PSF EXT CMAP CHEQ DRUDE XPLOR

         4 !NTITLE
*~~~~~~~~~~~~~~~~~~~~~~~~~~~~~~~~~~~~~~~~~~~~~~~~~~~~~~~~~~~~~~~~~~~~~~~        
*~ MINIMIZATION OF PACKMOL STRUCTURE                                            
*~~~~~~~~~~~~~~~~~~~~~~~~~~~~~~~~~~~~~~~~~~~~~~~~~~~~~~~~~~~~~~~~~~~~~~~        
*  DATE:    10/ 2/23     13:42:36      CREATED BY USER: marta                   

     17600 !NATOM
         1 IM1H     1        IM1H     C1       CD33F     2.48500       11.6110           0  -1.18100       1.10000    
         2 IM1H     1        IM1H     DC1      DRUD     -2.66700      0.400000           0   0.00000       0.00000    
         3 IM1H     1        IM1H     H1       HDA3A    0.135000       1.00800           0   0.00000       0.00000    
         4 IM1H     1        IM1H     H2       HDA3A    0.135000       1.00800           0   0.00000       0.00000    
         5 IM1H     1        IM1H     H3       HDA3A    0.135000       1.00800           0   0.00000       0.00000    
         6 IM1H     1        IM1H     N1       ND2R5C    2.35720       13.6070           0 -0.803000       1.00000    
         7 IM1H     1        IM1H     DN1      DRUD     -2.19920      0.400000           0   0.00000       0.00000    
         8 IM1H     1        IM1H     C2       CD2R5D    2.44700       11.6110           0  -1.08300       1.10000    
         9 IM1H     1        IM1H     DC2      DRUD     -2.55400      0.400000           0   0.00000       0.00000    
        10 IM1H     1        IM1H     H4       HDR5D    0.195000       1.00800           0   0.00000       0.00000    
        11 IM1H     1        IM1H     C3       CD2R5D    2.50700       11.6110           0  -1.08300       1.10000    
        12 IM1H     1        IM1H     DC3      DRUD     -2.55400      0.400000           0   0.00000       0.00000    
        13 IM1H     1        IM1H     H5       HDR5D    0.192000       1.00800           0   0.00000       0.00000    
        14 IM1H     1        IM1H     C4       CD2R5E    2.72410       11.6110           0  -1.25300       1.20000    
        15 IM1H     1        IM1H     DC4      DRUD     -2.74710      0.400000           0   0.00000       0.00000    
        16 IM1H     1        IM1H     H6       HDR5E    0.203000       1.00800           0   0.00000       0.00000    
        17 IM1H     1        IM1H     N2       ND2R5C    2.04220       13.6070           0 -0.803000       1.00000    
        18 IM1H     1        IM1H     DN2      DRUD     -2.19920      0.400000           0   0.00000       0.00000    
        19 IM1H     1        IM1H     H7       HDP1A    0.363000       1.00800           0   0.00000       0.00000    
        20 IM1H     1        IM1H     LPN21    LPD       0.00000       0.00000          -1   0.00000       0.00000    
        21 IM1H     2        IM1H     C1       CD33F     2.48500       11.6110           0  -1.18100       1.10000    
        22 IM1H     2        IM1H     DC1      DRUD     -2.66700      0.400000           0   0.00000       0.00000    
        23 IM1H     2        IM1H     H1       HDA3A    0.135000       1.00800           0   0.00000       0.00000    
        24 IM1H     2        IM1H     H2       HDA3A    0.135000       1.00800           0   0.00000       0.00000    
        25 IM1H     2        IM1H     H3       HDA3A    0.135000       1.00800           0   0.00000       0.00000    
        26 IM1H     2        IM1H     N1       ND2R5C    2.35720       13.6070           0 -0.803000       1.00000    
        27 IM1H     2        IM1H     DN1      DRUD     -2.19920      0.400000           0   0.00000       0.00000    
        28 IM1H     2        IM1H     C2       CD2R5D    2.44700       11.6110           0  -1.08300       1.10000    
        29 IM1H     2        IM1H     DC2      DRUD     -2.55400      0.400000           0   0.00000       0.00000    
        30 IM1H     2        IM1H     H4       HDR5D    0.195000       1.00800           0   0.00000       0.00000    
        31 IM1H     2        IM1H     C3       CD2R5D    2.50700       11.6110           0  -1.08300       1.10000    
        32 IM1H     2        IM1H     DC3      DRUD     -2.55400      0.400000           0   0.00000       0.00000    
        33 IM1H     2        IM1H     H5       HDR5D    0.192000       1.00800           0   0.00000       0.00000    
        34 IM1H     2        IM1H     C4       CD2R5E    2.72410       11.6110           0  -1.25300       1.20000    
        35 IM1H     2        IM1H     DC4      DRUD     -2.74710      0.400000           0   0.00000       0.00000    
        36 IM1H     2        IM1H     H6       HDR5E    0.203000       1.00800           0   0.00000       0.00000    
        37 IM1H     2        IM1H     N2       ND2R5C    2.04220       13.6070           0 -0.803000       1.00000    
        38 IM1H     2        IM1H     DN2      DRUD     -2.19920      0.400000           0   0.00000       0.00000    
        39 IM1H     2        IM1H     H7       HDP1A    0.363000       1.00800           0   0.00000       0.00000    
        40 IM1H     2        IM1H     LPN21    LPD       0.00000       0.00000          -1   0.00000       0.00000    
        41 IM1H     3        IM1H     C1       CD33F     2.48500       11.6110           0  -1.18100       1.10000    
        42 IM1H     3        IM1H     DC1      DRUD     -2.66700      0.400000           0   0.00000       0.00000    
        43 IM1H     3        IM1H     H1       HDA3A    0.135000       1.00800           0   0.00000       0.00000    
        44 IM1H     3        IM1H     H2       HDA3A    0.135000       1.00800           0   0.00000       0.00000    
        45 IM1H     3        IM1H     H3       HDA3A    0.135000       1.00800           0   0.00000       0.00000    
        46 IM1H     3        IM1H     N1       ND2R5C    2.35720       13.6070           0 -0.803000       1.00000    
        47 IM1H     3        IM1H     DN1      DRUD     -2.19920      0.400000           0   0.00000       0.00000    
        48 IM1H     3        IM1H     C2       CD2R5D    2.44700       11.6110           0  -1.08300       1.10000    
        49 IM1H     3        IM1H     DC2      DRUD     -2.55400      0.400000           0   0.00000       0.00000    
        50 IM1H     3        IM1H     H4       HDR5D    0.195000       1.00800           0   0.00000       0.00000    
        51 IM1H     3        IM1H     C3       CD2R5D    2.50700       11.6110           0  -1.08300       1.10000    
        52 IM1H     3        IM1H     DC3      DRUD     -2.55400      0.400000           0   0.00000       0.00000    
        53 IM1H     3        IM1H     H5       HDR5D    0.192000       1.00800           0   0.00000       0.00000    
        54 IM1H     3        IM1H     C4       CD2R5E    2.72410       11.6110           0  -1.25300       1.20000    
        55 IM1H     3        IM1H     DC4      DRUD     -2.74710      0.400000           0   0.00000       0.00000    
        56 IM1H     3        IM1H     H6       HDR5E    0.203000       1.00800           0   0.00000       0.00000    
        57 IM1H     3        IM1H     N2       ND2R5C    2.04220       13.6070           0 -0.803000       1.00000    
        58 IM1H     3        IM1H     DN2      DRUD     -2.19920      0.400000           0   0.00000       0.00000    
        59 IM1H     3        IM1H     H7       HDP1A    0.363000       1.00800           0   0.00000       0.00000    
        60 IM1H     3        IM1H     LPN21    LPD       0.00000       0.00000          -1   0.00000       0.00000    
        61 IM1H     4        IM1H     C1       CD33F     2.48500       11.6110           0  -1.18100       1.10000    
        62 IM1H     4        IM1H     DC1      DRUD     -2.66700      0.400000           0   0.00000       0.00000    
        63 IM1H     4        IM1H     H1       HDA3A    0.135000       1.00800           0   0.00000       0.00000    
        64 IM1H     4        IM1H     H2       HDA3A    0.135000       1.00800           0   0.00000       0.00000    
        65 IM1H     4        IM1H     H3       HDA3A    0.135000       1.00800           0   0.00000       0.00000    
        66 IM1H     4        IM1H     N1       ND2R5C    2.35720       13.6070           0 -0.803000       1.00000    
        67 IM1H     4        IM1H     DN1      DRUD     -2.19920      0.400000           0   0.00000       0.00000    
        68 IM1H     4        IM1H     C2       CD2R5D    2.44700       11.6110           0  -1.08300       1.10000    
        69 IM1H     4        IM1H     DC2      DRUD     -2.55400      0.400000           0   0.00000       0.00000    
        70 IM1H     4        IM1H     H4       HDR5D    0.195000       1.00800           0   0.00000       0.00000    
        71 IM1H     4        IM1H     C3       CD2R5D    2.50700       11.6110           0  -1.08300       1.10000    
        72 IM1H     4        IM1H     DC3      DRUD     -2.55400      0.400000           0   0.00000       0.00000    
        73 IM1H     4        IM1H     H5       HDR5D    0.192000       1.00800           0   0.00000       0.00000    
        74 IM1H     4        IM1H     C4       CD2R5E    2.72410       11.6110           0  -1.25300       1.20000    
        75 IM1H     4        IM1H     DC4      DRUD     -2.74710      0.400000           0   0.00000       0.00000    
        76 IM1H     4        IM1H     H6       HDR5E    0.203000       1.00800           0   0.00000       0.00000    
        77 IM1H     4        IM1H     N2       ND2R5C    2.04220       13.6070           0 -0.803000       1.00000    
        78 IM1H     4        IM1H     DN2      DRUD     -2.19920      0.400000           0   0.00000       0.00000    
        79 IM1H     4        IM1H     H7       HDP1A    0.363000       1.00800           0   0.00000       0.00000    
        80 IM1H     4        IM1H     LPN21    LPD       0.00000       0.00000          -1   0.00000       0.00000    
        81 IM1H     5        IM1H     C1       CD33F     2.48500       11.6110           0  -1.18100       1.10000    
        82 IM1H     5        IM1H     DC1      DRUD     -2.66700      0.400000           0   0.00000       0.00000    
        83 IM1H     5        IM1H     H1       HDA3A    0.135000       1.00800           0   0.00000       0.00000    
        84 IM1H     5        IM1H     H2       HDA3A    0.135000       1.00800           0   0.00000       0.00000    
        85 IM1H     5        IM1H     H3       HDA3A    0.135000       1.00800           0   0.00000       0.00000    
        86 IM1H     5        IM1H     N1       ND2R5C    2.35720       13.6070           0 -0.803000       1.00000    
        87 IM1H     5        IM1H     DN1      DRUD     -2.19920      0.400000           0   0.00000       0.00000    
        88 IM1H     5        IM1H     C2       CD2R5D    2.44700       11.6110           0  -1.08300       1.10000    
        89 IM1H     5        IM1H     DC2      DRUD     -2.55400      0.400000           0   0.00000       0.00000    
        90 IM1H     5        IM1H     H4       HDR5D    0.195000       1.00800           0   0.00000       0.00000    
        91 IM1H     5        IM1H     C3       CD2R5D    2.50700       11.6110           0  -1.08300       1.10000    
        92 IM1H     5        IM1H     DC3      DRUD     -2.55400      0.400000           0   0.00000       0.00000    
        93 IM1H     5        IM1H     H5       HDR5D    0.192000       1.00800           0   0.00000       0.00000    
        94 IM1H     5        IM1H     C4       CD2R5E    2.72410       11.6110           0  -1.25300       1.20000    
        95 IM1H     5        IM1H     DC4      DRUD     -2.74710      0.400000           0   0.00000       0.00000    
        96 IM1H     5        IM1H     H6       HDR5E    0.203000       1.00800           0   0.00000       0.00000    
        97 IM1H     5        IM1H     N2       ND2R5C    2.04220       13.6070           0 -0.803000       1.00000    
        98 IM1H     5        IM1H     DN2      DRUD     -2.19920      0.400000           0   0.00000       0.00000    
        99 IM1H     5        IM1H     H7       HDP1A    0.363000       1.00800           0   0.00000       0.00000    
       100 IM1H     5        IM1H     LPN21    LPD       0.00000       0.00000          -1   0.00000       0.00000    
       101 IM1H     6        IM1H     C1       CD33F     2.48500       11.6110           0  -1.18100       1.10000    
       102 IM1H     6        IM1H     DC1      DRUD     -2.66700      0.400000           0   0.00000       0.00000    
       103 IM1H     6        IM1H     H1       HDA3A    0.135000       1.00800           0   0.00000       0.00000    
       104 IM1H     6        IM1H     H2       HDA3A    0.135000       1.00800           0   0.00000       0.00000    
       105 IM1H     6        IM1H     H3       HDA3A    0.135000       1.00800           0   0.00000       0.00000    
       106 IM1H     6        IM1H     N1       ND2R5C    2.35720       13.6070           0 -0.803000       1.00000    
       107 IM1H     6        IM1H     DN1      DRUD     -2.19920      0.400000           0   0.00000       0.00000    
       108 IM1H     6        IM1H     C2       CD2R5D    2.44700       11.6110           0  -1.08300       1.10000    
       109 IM1H     6        IM1H     DC2      DRUD     -2.55400      0.400000           0   0.00000       0.00000    
       110 IM1H     6        IM1H     H4       HDR5D    0.195000       1.00800           0   0.00000       0.00000    
       111 IM1H     6        IM1H     C3       CD2R5D    2.50700       11.6110           0  -1.08300       1.10000    
       112 IM1H     6        IM1H     DC3      DRUD     -2.55400      0.400000           0   0.00000       0.00000    
       113 IM1H     6        IM1H     H5       HDR5D    0.192000       1.00800           0   0.00000       0.00000    
       114 IM1H     6        IM1H     C4       CD2R5E    2.72410       11.6110           0  -1.25300       1.20000    
       115 IM1H     6        IM1H     DC4      DRUD     -2.74710      0.400000           0   0.00000       0.00000    
       116 IM1H     6        IM1H     H6       HDR5E    0.203000       1.00800           0   0.00000       0.00000    
       117 IM1H     6        IM1H     N2       ND2R5C    2.04220       13.6070           0 -0.803000       1.00000    
       118 IM1H     6        IM1H     DN2      DRUD     -2.19920      0.400000           0   0.00000       0.00000    
       119 IM1H     6        IM1H     H7       HDP1A    0.363000       1.00800           0   0.00000       0.00000    
       120 IM1H     6        IM1H     LPN21    LPD       0.00000       0.00000          -1   0.00000       0.00000    
       121 IM1H     7        IM1H     C1       CD33F     2.48500       11.6110           0  -1.18100       1.10000    
       122 IM1H     7        IM1H     DC1      DRUD     -2.66700      0.400000           0   0.00000       0.00000    
       123 IM1H     7        IM1H     H1       HDA3A    0.135000       1.00800           0   0.00000       0.00000    
       124 IM1H     7        IM1H     H2       HDA3A    0.135000       1.00800           0   0.00000       0.00000    
       125 IM1H     7        IM1H     H3       HDA3A    0.135000       1.00800           0   0.00000       0.00000    
       126 IM1H     7        IM1H     N1       ND2R5C    2.35720       13.6070           0 -0.803000       1.00000    
       127 IM1H     7        IM1H     DN1      DRUD     -2.19920      0.400000           0   0.00000       0.00000    
       128 IM1H     7        IM1H     C2       CD2R5D    2.44700       11.6110           0  -1.08300       1.10000    
       129 IM1H     7        IM1H     DC2      DRUD     -2.55400      0.400000           0   0.00000       0.00000    
       130 IM1H     7        IM1H     H4       HDR5D    0.195000       1.00800           0   0.00000       0.00000    
       131 IM1H     7        IM1H     C3       CD2R5D    2.50700       11.6110           0  -1.08300       1.10000    
       132 IM1H     7        IM1H     DC3      DRUD     -2.55400      0.400000           0   0.00000       0.00000    
       133 IM1H     7        IM1H     H5       HDR5D    0.192000       1.00800           0   0.00000       0.00000    
       134 IM1H     7        IM1H     C4       CD2R5E    2.72410       11.6110           0  -1.25300       1.20000    
       135 IM1H     7        IM1H     DC4      DRUD     -2.74710      0.400000           0   0.00000       0.00000    
       136 IM1H     7        IM1H     H6       HDR5E    0.203000       1.00800           0   0.00000       0.00000    
       137 IM1H     7        IM1H     N2       ND2R5C    2.04220       13.6070           0 -0.803000       1.00000    
       138 IM1H     7        IM1H     DN2      DRUD     -2.19920      0.400000           0   0.00000       0.00000    
       139 IM1H     7        IM1H     H7       HDP1A    0.363000       1.00800           0   0.00000       0.00000    
       140 IM1H     7        IM1H     LPN21    LPD       0.00000       0.00000          -1   0.00000       0.00000    
       141 IM1H     8        IM1H     C1       CD33F     2.48500       11.6110           0  -1.18100       1.10000    
       142 IM1H     8        IM1H     DC1      DRUD     -2.66700      0.400000           0   0.00000       0.00000    
       143 IM1H     8        IM1H     H1       HDA3A    0.135000       1.00800           0   0.00000       0.00000    
       144 IM1H     8        IM1H     H2       HDA3A    0.135000       1.00800           0   0.00000       0.00000    
       145 IM1H     8        IM1H     H3       HDA3A    0.135000       1.00800           0   0.00000       0.00000    
       146 IM1H     8        IM1H     N1       ND2R5C    2.35720       13.6070           0 -0.803000       1.00000    
       147 IM1H     8        IM1H     DN1      DRUD     -2.19920      0.400000           0   0.00000       0.00000    
       148 IM1H     8        IM1H     C2       CD2R5D    2.44700       11.6110           0  -1.08300       1.10000    
       149 IM1H     8        IM1H     DC2      DRUD     -2.55400      0.400000           0   0.00000       0.00000    
       150 IM1H     8        IM1H     H4       HDR5D    0.195000       1.00800           0   0.00000       0.00000    
       151 IM1H     8        IM1H     C3       CD2R5D    2.50700       11.6110           0  -1.08300       1.10000    
       152 IM1H     8        IM1H     DC3      DRUD     -2.55400      0.400000           0   0.00000       0.00000    
       153 IM1H     8        IM1H     H5       HDR5D    0.192000       1.00800           0   0.00000       0.00000    
       154 IM1H     8        IM1H     C4       CD2R5E    2.72410       11.6110           0  -1.25300       1.20000    
       155 IM1H     8        IM1H     DC4      DRUD     -2.74710      0.400000           0   0.00000       0.00000    
       156 IM1H     8        IM1H     H6       HDR5E    0.203000       1.00800           0   0.00000       0.00000    
       157 IM1H     8        IM1H     N2       ND2R5C    2.04220       13.6070           0 -0.803000       1.00000    
       158 IM1H     8        IM1H     DN2      DRUD     -2.19920      0.400000           0   0.00000       0.00000    
       159 IM1H     8        IM1H     H7       HDP1A    0.363000       1.00800           0   0.00000       0.00000    
       160 IM1H     8        IM1H     LPN21    LPD       0.00000       0.00000          -1   0.00000       0.00000    
       161 IM1H     9        IM1H     C1       CD33F     2.48500       11.6110           0  -1.18100       1.10000    
       162 IM1H     9        IM1H     DC1      DRUD     -2.66700      0.400000           0   0.00000       0.00000    
       163 IM1H     9        IM1H     H1       HDA3A    0.135000       1.00800           0   0.00000       0.00000    
       164 IM1H     9        IM1H     H2       HDA3A    0.135000       1.00800           0   0.00000       0.00000    
       165 IM1H     9        IM1H     H3       HDA3A    0.135000       1.00800           0   0.00000       0.00000    
       166 IM1H     9        IM1H     N1       ND2R5C    2.35720       13.6070           0 -0.803000       1.00000    
       167 IM1H     9        IM1H     DN1      DRUD     -2.19920      0.400000           0   0.00000       0.00000    
       168 IM1H     9        IM1H     C2       CD2R5D    2.44700       11.6110           0  -1.08300       1.10000    
       169 IM1H     9        IM1H     DC2      DRUD     -2.55400      0.400000           0   0.00000       0.00000    
       170 IM1H     9        IM1H     H4       HDR5D    0.195000       1.00800           0   0.00000       0.00000    
       171 IM1H     9        IM1H     C3       CD2R5D    2.50700       11.6110           0  -1.08300       1.10000    
       172 IM1H     9        IM1H     DC3      DRUD     -2.55400      0.400000           0   0.00000       0.00000    
       173 IM1H     9        IM1H     H5       HDR5D    0.192000       1.00800           0   0.00000       0.00000    
       174 IM1H     9        IM1H     C4       CD2R5E    2.72410       11.6110           0  -1.25300       1.20000    
       175 IM1H     9        IM1H     DC4      DRUD     -2.74710      0.400000           0   0.00000       0.00000    
       176 IM1H     9        IM1H     H6       HDR5E    0.203000       1.00800           0   0.00000       0.00000    
       177 IM1H     9        IM1H     N2       ND2R5C    2.04220       13.6070           0 -0.803000       1.00000    
       178 IM1H     9        IM1H     DN2      DRUD     -2.19920      0.400000           0   0.00000       0.00000    
       179 IM1H     9        IM1H     H7       HDP1A    0.363000       1.00800           0   0.00000       0.00000    
       180 IM1H     9        IM1H     LPN21    LPD       0.00000       0.00000          -1   0.00000       0.00000    
       181 IM1H     10       IM1H     C1       CD33F     2.48500       11.6110           0  -1.18100       1.10000    
       182 IM1H     10       IM1H     DC1      DRUD     -2.66700      0.400000           0   0.00000       0.00000    
       183 IM1H     10       IM1H     H1       HDA3A    0.135000       1.00800           0   0.00000       0.00000    
       184 IM1H     10       IM1H     H2       HDA3A    0.135000       1.00800           0   0.00000       0.00000    
       185 IM1H     10       IM1H     H3       HDA3A    0.135000       1.00800           0   0.00000       0.00000    
       186 IM1H     10       IM1H     N1       ND2R5C    2.35720       13.6070           0 -0.803000       1.00000    
       187 IM1H     10       IM1H     DN1      DRUD     -2.19920      0.400000           0   0.00000       0.00000    
       188 IM1H     10       IM1H     C2       CD2R5D    2.44700       11.6110           0  -1.08300       1.10000    
       189 IM1H     10       IM1H     DC2      DRUD     -2.55400      0.400000           0   0.00000       0.00000    
       190 IM1H     10       IM1H     H4       HDR5D    0.195000       1.00800           0   0.00000       0.00000    
       191 IM1H     10       IM1H     C3       CD2R5D    2.50700       11.6110           0  -1.08300       1.10000    
       192 IM1H     10       IM1H     DC3      DRUD     -2.55400      0.400000           0   0.00000       0.00000    
       193 IM1H     10       IM1H     H5       HDR5D    0.192000       1.00800           0   0.00000       0.00000    
       194 IM1H     10       IM1H     C4       CD2R5E    2.72410       11.6110           0  -1.25300       1.20000    
       195 IM1H     10       IM1H     DC4      DRUD     -2.74710      0.400000           0   0.00000       0.00000    
       196 IM1H     10       IM1H     H6       HDR5E    0.203000       1.00800           0   0.00000       0.00000    
       197 IM1H     10       IM1H     N2       ND2R5C    2.04220       13.6070           0 -0.803000       1.00000    
       198 IM1H     10       IM1H     DN2      DRUD     -2.19920      0.400000           0   0.00000       0.00000    
       199 IM1H     10       IM1H     H7       HDP1A    0.363000       1.00800           0   0.00000       0.00000    
       200 IM1H     10       IM1H     LPN21    LPD       0.00000       0.00000          -1   0.00000       0.00000    
       201 IM1H     11       IM1H     C1       CD33F     2.48500       11.6110           0  -1.18100       1.10000    
       202 IM1H     11       IM1H     DC1      DRUD     -2.66700      0.400000           0   0.00000       0.00000    
       203 IM1H     11       IM1H     H1       HDA3A    0.135000       1.00800           0   0.00000       0.00000    
       204 IM1H     11       IM1H     H2       HDA3A    0.135000       1.00800           0   0.00000       0.00000    
       205 IM1H     11       IM1H     H3       HDA3A    0.135000       1.00800           0   0.00000       0.00000    
       206 IM1H     11       IM1H     N1       ND2R5C    2.35720       13.6070           0 -0.803000       1.00000    
       207 IM1H     11       IM1H     DN1      DRUD     -2.19920      0.400000           0   0.00000       0.00000    
       208 IM1H     11       IM1H     C2       CD2R5D    2.44700       11.6110           0  -1.08300       1.10000    
       209 IM1H     11       IM1H     DC2      DRUD     -2.55400      0.400000           0   0.00000       0.00000    
       210 IM1H     11       IM1H     H4       HDR5D    0.195000       1.00800           0   0.00000       0.00000    
       211 IM1H     11       IM1H     C3       CD2R5D    2.50700       11.6110           0  -1.08300       1.10000    
       212 IM1H     11       IM1H     DC3      DRUD     -2.55400      0.400000           0   0.00000       0.00000    
       213 IM1H     11       IM1H     H5       HDR5D    0.192000       1.00800           0   0.00000       0.00000    
       214 IM1H     11       IM1H     C4       CD2R5E    2.72410       11.6110           0  -1.25300       1.20000    
       215 IM1H     11       IM1H     DC4      DRUD     -2.74710      0.400000           0   0.00000       0.00000    
       216 IM1H     11       IM1H     H6       HDR5E    0.203000       1.00800           0   0.00000       0.00000    
       217 IM1H     11       IM1H     N2       ND2R5C    2.04220       13.6070           0 -0.803000       1.00000    
       218 IM1H     11       IM1H     DN2      DRUD     -2.19920      0.400000           0   0.00000       0.00000    
       219 IM1H     11       IM1H     H7       HDP1A    0.363000       1.00800           0   0.00000       0.00000    
       220 IM1H     11       IM1H     LPN21    LPD       0.00000       0.00000          -1   0.00000       0.00000    
       221 IM1H     12       IM1H     C1       CD33F     2.48500       11.6110           0  -1.18100       1.10000    
       222 IM1H     12       IM1H     DC1      DRUD     -2.66700      0.400000           0   0.00000       0.00000    
       223 IM1H     12       IM1H     H1       HDA3A    0.135000       1.00800           0   0.00000       0.00000    
       224 IM1H     12       IM1H     H2       HDA3A    0.135000       1.00800           0   0.00000       0.00000    
       225 IM1H     12       IM1H     H3       HDA3A    0.135000       1.00800           0   0.00000       0.00000    
       226 IM1H     12       IM1H     N1       ND2R5C    2.35720       13.6070           0 -0.803000       1.00000    
       227 IM1H     12       IM1H     DN1      DRUD     -2.19920      0.400000           0   0.00000       0.00000    
       228 IM1H     12       IM1H     C2       CD2R5D    2.44700       11.6110           0  -1.08300       1.10000    
       229 IM1H     12       IM1H     DC2      DRUD     -2.55400      0.400000           0   0.00000       0.00000    
       230 IM1H     12       IM1H     H4       HDR5D    0.195000       1.00800           0   0.00000       0.00000    
       231 IM1H     12       IM1H     C3       CD2R5D    2.50700       11.6110           0  -1.08300       1.10000    
       232 IM1H     12       IM1H     DC3      DRUD     -2.55400      0.400000           0   0.00000       0.00000    
       233 IM1H     12       IM1H     H5       HDR5D    0.192000       1.00800           0   0.00000       0.00000    
       234 IM1H     12       IM1H     C4       CD2R5E    2.72410       11.6110           0  -1.25300       1.20000    
       235 IM1H     12       IM1H     DC4      DRUD     -2.74710      0.400000           0   0.00000       0.00000    
       236 IM1H     12       IM1H     H6       HDR5E    0.203000       1.00800           0   0.00000       0.00000    
       237 IM1H     12       IM1H     N2       ND2R5C    2.04220       13.6070           0 -0.803000       1.00000    
       238 IM1H     12       IM1H     DN2      DRUD     -2.19920      0.400000           0   0.00000       0.00000    
       239 IM1H     12       IM1H     H7       HDP1A    0.363000       1.00800           0   0.00000       0.00000    
       240 IM1H     12       IM1H     LPN21    LPD       0.00000       0.00000          -1   0.00000       0.00000    
       241 IM1H     13       IM1H     C1       CD33F     2.48500       11.6110           0  -1.18100       1.10000    
       242 IM1H     13       IM1H     DC1      DRUD     -2.66700      0.400000           0   0.00000       0.00000    
       243 IM1H     13       IM1H     H1       HDA3A    0.135000       1.00800           0   0.00000       0.00000    
       244 IM1H     13       IM1H     H2       HDA3A    0.135000       1.00800           0   0.00000       0.00000    
       245 IM1H     13       IM1H     H3       HDA3A    0.135000       1.00800           0   0.00000       0.00000    
       246 IM1H     13       IM1H     N1       ND2R5C    2.35720       13.6070           0 -0.803000       1.00000    
       247 IM1H     13       IM1H     DN1      DRUD     -2.19920      0.400000           0   0.00000       0.00000    
       248 IM1H     13       IM1H     C2       CD2R5D    2.44700       11.6110           0  -1.08300       1.10000    
       249 IM1H     13       IM1H     DC2      DRUD     -2.55400      0.400000           0   0.00000       0.00000    
       250 IM1H     13       IM1H     H4       HDR5D    0.195000       1.00800           0   0.00000       0.00000    
       251 IM1H     13       IM1H     C3       CD2R5D    2.50700       11.6110           0  -1.08300       1.10000    
       252 IM1H     13       IM1H     DC3      DRUD     -2.55400      0.400000           0   0.00000       0.00000    
       253 IM1H     13       IM1H     H5       HDR5D    0.192000       1.00800           0   0.00000       0.00000    
       254 IM1H     13       IM1H     C4       CD2R5E    2.72410       11.6110           0  -1.25300       1.20000    
       255 IM1H     13       IM1H     DC4      DRUD     -2.74710      0.400000           0   0.00000       0.00000    
       256 IM1H     13       IM1H     H6       HDR5E    0.203000       1.00800           0   0.00000       0.00000    
       257 IM1H     13       IM1H     N2       ND2R5C    2.04220       13.6070           0 -0.803000       1.00000    
       258 IM1H     13       IM1H     DN2      DRUD     -2.19920      0.400000           0   0.00000       0.00000    
       259 IM1H     13       IM1H     H7       HDP1A    0.363000       1.00800           0   0.00000       0.00000    
       260 IM1H     13       IM1H     LPN21    LPD       0.00000       0.00000          -1   0.00000       0.00000    
       261 IM1H     14       IM1H     C1       CD33F     2.48500       11.6110           0  -1.18100       1.10000    
       262 IM1H     14       IM1H     DC1      DRUD     -2.66700      0.400000           0   0.00000       0.00000    
       263 IM1H     14       IM1H     H1       HDA3A    0.135000       1.00800           0   0.00000       0.00000    
       264 IM1H     14       IM1H     H2       HDA3A    0.135000       1.00800           0   0.00000       0.00000    
       265 IM1H     14       IM1H     H3       HDA3A    0.135000       1.00800           0   0.00000       0.00000    
       266 IM1H     14       IM1H     N1       ND2R5C    2.35720       13.6070           0 -0.803000       1.00000    
       267 IM1H     14       IM1H     DN1      DRUD     -2.19920      0.400000           0   0.00000       0.00000    
       268 IM1H     14       IM1H     C2       CD2R5D    2.44700       11.6110           0  -1.08300       1.10000    
       269 IM1H     14       IM1H     DC2      DRUD     -2.55400      0.400000           0   0.00000       0.00000    
       270 IM1H     14       IM1H     H4       HDR5D    0.195000       1.00800           0   0.00000       0.00000    
       271 IM1H     14       IM1H     C3       CD2R5D    2.50700       11.6110           0  -1.08300       1.10000    
       272 IM1H     14       IM1H     DC3      DRUD     -2.55400      0.400000           0   0.00000       0.00000    
       273 IM1H     14       IM1H     H5       HDR5D    0.192000       1.00800           0   0.00000       0.00000    
       274 IM1H     14       IM1H     C4       CD2R5E    2.72410       11.6110           0  -1.25300       1.20000    
       275 IM1H     14       IM1H     DC4      DRUD     -2.74710      0.400000           0   0.00000       0.00000    
       276 IM1H     14       IM1H     H6       HDR5E    0.203000       1.00800           0   0.00000       0.00000    
       277 IM1H     14       IM1H     N2       ND2R5C    2.04220       13.6070           0 -0.803000       1.00000    
       278 IM1H     14       IM1H     DN2      DRUD     -2.19920      0.400000           0   0.00000       0.00000    
       279 IM1H     14       IM1H     H7       HDP1A    0.363000       1.00800           0   0.00000       0.00000    
       280 IM1H     14       IM1H     LPN21    LPD       0.00000       0.00000          -1   0.00000       0.00000    
       281 IM1H     15       IM1H     C1       CD33F     2.48500       11.6110           0  -1.18100       1.10000    
       282 IM1H     15       IM1H     DC1      DRUD     -2.66700      0.400000           0   0.00000       0.00000    
       283 IM1H     15       IM1H     H1       HDA3A    0.135000       1.00800           0   0.00000       0.00000    
       284 IM1H     15       IM1H     H2       HDA3A    0.135000       1.00800           0   0.00000       0.00000    
       285 IM1H     15       IM1H     H3       HDA3A    0.135000       1.00800           0   0.00000       0.00000    
       286 IM1H     15       IM1H     N1       ND2R5C    2.35720       13.6070           0 -0.803000       1.00000    
       287 IM1H     15       IM1H     DN1      DRUD     -2.19920      0.400000           0   0.00000       0.00000    
       288 IM1H     15       IM1H     C2       CD2R5D    2.44700       11.6110           0  -1.08300       1.10000    
       289 IM1H     15       IM1H     DC2      DRUD     -2.55400      0.400000           0   0.00000       0.00000    
       290 IM1H     15       IM1H     H4       HDR5D    0.195000       1.00800           0   0.00000       0.00000    
       291 IM1H     15       IM1H     C3       CD2R5D    2.50700       11.6110           0  -1.08300       1.10000    
       292 IM1H     15       IM1H     DC3      DRUD     -2.55400      0.400000           0   0.00000       0.00000    
       293 IM1H     15       IM1H     H5       HDR5D    0.192000       1.00800           0   0.00000       0.00000    
       294 IM1H     15       IM1H     C4       CD2R5E    2.72410       11.6110           0  -1.25300       1.20000    
       295 IM1H     15       IM1H     DC4      DRUD     -2.74710      0.400000           0   0.00000       0.00000    
       296 IM1H     15       IM1H     H6       HDR5E    0.203000       1.00800           0   0.00000       0.00000    
       297 IM1H     15       IM1H     N2       ND2R5C    2.04220       13.6070           0 -0.803000       1.00000    
       298 IM1H     15       IM1H     DN2      DRUD     -2.19920      0.400000           0   0.00000       0.00000    
       299 IM1H     15       IM1H     H7       HDP1A    0.363000       1.00800           0   0.00000       0.00000    
       300 IM1H     15       IM1H     LPN21    LPD       0.00000       0.00000          -1   0.00000       0.00000    
       301 IM1H     16       IM1H     C1       CD33F     2.48500       11.6110           0  -1.18100       1.10000    
       302 IM1H     16       IM1H     DC1      DRUD     -2.66700      0.400000           0   0.00000       0.00000    
       303 IM1H     16       IM1H     H1       HDA3A    0.135000       1.00800           0   0.00000       0.00000    
       304 IM1H     16       IM1H     H2       HDA3A    0.135000       1.00800           0   0.00000       0.00000    
       305 IM1H     16       IM1H     H3       HDA3A    0.135000       1.00800           0   0.00000       0.00000    
       306 IM1H     16       IM1H     N1       ND2R5C    2.35720       13.6070           0 -0.803000       1.00000    
       307 IM1H     16       IM1H     DN1      DRUD     -2.19920      0.400000           0   0.00000       0.00000    
       308 IM1H     16       IM1H     C2       CD2R5D    2.44700       11.6110           0  -1.08300       1.10000    
       309 IM1H     16       IM1H     DC2      DRUD     -2.55400      0.400000           0   0.00000       0.00000    
       310 IM1H     16       IM1H     H4       HDR5D    0.195000       1.00800           0   0.00000       0.00000    
       311 IM1H     16       IM1H     C3       CD2R5D    2.50700       11.6110           0  -1.08300       1.10000    
       312 IM1H     16       IM1H     DC3      DRUD     -2.55400      0.400000           0   0.00000       0.00000    
       313 IM1H     16       IM1H     H5       HDR5D    0.192000       1.00800           0   0.00000       0.00000    
       314 IM1H     16       IM1H     C4       CD2R5E    2.72410       11.6110           0  -1.25300       1.20000    
       315 IM1H     16       IM1H     DC4      DRUD     -2.74710      0.400000           0   0.00000       0.00000    
       316 IM1H     16       IM1H     H6       HDR5E    0.203000       1.00800           0   0.00000       0.00000    
       317 IM1H     16       IM1H     N2       ND2R5C    2.04220       13.6070           0 -0.803000       1.00000    
       318 IM1H     16       IM1H     DN2      DRUD     -2.19920      0.400000           0   0.00000       0.00000    
       319 IM1H     16       IM1H     H7       HDP1A    0.363000       1.00800           0   0.00000       0.00000    
       320 IM1H     16       IM1H     LPN21    LPD       0.00000       0.00000          -1   0.00000       0.00000    
       321 IM1H     17       IM1H     C1       CD33F     2.48500       11.6110           0  -1.18100       1.10000    
       322 IM1H     17       IM1H     DC1      DRUD     -2.66700      0.400000           0   0.00000       0.00000    
       323 IM1H     17       IM1H     H1       HDA3A    0.135000       1.00800           0   0.00000       0.00000    
       324 IM1H     17       IM1H     H2       HDA3A    0.135000       1.00800           0   0.00000       0.00000    
       325 IM1H     17       IM1H     H3       HDA3A    0.135000       1.00800           0   0.00000       0.00000    
       326 IM1H     17       IM1H     N1       ND2R5C    2.35720       13.6070           0 -0.803000       1.00000    
       327 IM1H     17       IM1H     DN1      DRUD     -2.19920      0.400000           0   0.00000       0.00000    
       328 IM1H     17       IM1H     C2       CD2R5D    2.44700       11.6110           0  -1.08300       1.10000    
       329 IM1H     17       IM1H     DC2      DRUD     -2.55400      0.400000           0   0.00000       0.00000    
       330 IM1H     17       IM1H     H4       HDR5D    0.195000       1.00800           0   0.00000       0.00000    
       331 IM1H     17       IM1H     C3       CD2R5D    2.50700       11.6110           0  -1.08300       1.10000    
       332 IM1H     17       IM1H     DC3      DRUD     -2.55400      0.400000           0   0.00000       0.00000    
       333 IM1H     17       IM1H     H5       HDR5D    0.192000       1.00800           0   0.00000       0.00000    
       334 IM1H     17       IM1H     C4       CD2R5E    2.72410       11.6110           0  -1.25300       1.20000    
       335 IM1H     17       IM1H     DC4      DRUD     -2.74710      0.400000           0   0.00000       0.00000    
       336 IM1H     17       IM1H     H6       HDR5E    0.203000       1.00800           0   0.00000       0.00000    
       337 IM1H     17       IM1H     N2       ND2R5C    2.04220       13.6070           0 -0.803000       1.00000    
       338 IM1H     17       IM1H     DN2      DRUD     -2.19920      0.400000           0   0.00000       0.00000    
       339 IM1H     17       IM1H     H7       HDP1A    0.363000       1.00800           0   0.00000       0.00000    
       340 IM1H     17       IM1H     LPN21    LPD       0.00000       0.00000          -1   0.00000       0.00000    
       341 IM1H     18       IM1H     C1       CD33F     2.48500       11.6110           0  -1.18100       1.10000    
       342 IM1H     18       IM1H     DC1      DRUD     -2.66700      0.400000           0   0.00000       0.00000    
       343 IM1H     18       IM1H     H1       HDA3A    0.135000       1.00800           0   0.00000       0.00000    
       344 IM1H     18       IM1H     H2       HDA3A    0.135000       1.00800           0   0.00000       0.00000    
       345 IM1H     18       IM1H     H3       HDA3A    0.135000       1.00800           0   0.00000       0.00000    
       346 IM1H     18       IM1H     N1       ND2R5C    2.35720       13.6070           0 -0.803000       1.00000    
       347 IM1H     18       IM1H     DN1      DRUD     -2.19920      0.400000           0   0.00000       0.00000    
       348 IM1H     18       IM1H     C2       CD2R5D    2.44700       11.6110           0  -1.08300       1.10000    
       349 IM1H     18       IM1H     DC2      DRUD     -2.55400      0.400000           0   0.00000       0.00000    
       350 IM1H     18       IM1H     H4       HDR5D    0.195000       1.00800           0   0.00000       0.00000    
       351 IM1H     18       IM1H     C3       CD2R5D    2.50700       11.6110           0  -1.08300       1.10000    
       352 IM1H     18       IM1H     DC3      DRUD     -2.55400      0.400000           0   0.00000       0.00000    
       353 IM1H     18       IM1H     H5       HDR5D    0.192000       1.00800           0   0.00000       0.00000    
       354 IM1H     18       IM1H     C4       CD2R5E    2.72410       11.6110           0  -1.25300       1.20000    
       355 IM1H     18       IM1H     DC4      DRUD     -2.74710      0.400000           0   0.00000       0.00000    
       356 IM1H     18       IM1H     H6       HDR5E    0.203000       1.00800           0   0.00000       0.00000    
       357 IM1H     18       IM1H     N2       ND2R5C    2.04220       13.6070           0 -0.803000       1.00000    
       358 IM1H     18       IM1H     DN2      DRUD     -2.19920      0.400000           0   0.00000       0.00000    
       359 IM1H     18       IM1H     H7       HDP1A    0.363000       1.00800           0   0.00000       0.00000    
       360 IM1H     18       IM1H     LPN21    LPD       0.00000       0.00000          -1   0.00000       0.00000    
       361 IM1H     19       IM1H     C1       CD33F     2.48500       11.6110           0  -1.18100       1.10000    
       362 IM1H     19       IM1H     DC1      DRUD     -2.66700      0.400000           0   0.00000       0.00000    
       363 IM1H     19       IM1H     H1       HDA3A    0.135000       1.00800           0   0.00000       0.00000    
       364 IM1H     19       IM1H     H2       HDA3A    0.135000       1.00800           0   0.00000       0.00000    
       365 IM1H     19       IM1H     H3       HDA3A    0.135000       1.00800           0   0.00000       0.00000    
       366 IM1H     19       IM1H     N1       ND2R5C    2.35720       13.6070           0 -0.803000       1.00000    
       367 IM1H     19       IM1H     DN1      DRUD     -2.19920      0.400000           0   0.00000       0.00000    
       368 IM1H     19       IM1H     C2       CD2R5D    2.44700       11.6110           0  -1.08300       1.10000    
       369 IM1H     19       IM1H     DC2      DRUD     -2.55400      0.400000           0   0.00000       0.00000    
       370 IM1H     19       IM1H     H4       HDR5D    0.195000       1.00800           0   0.00000       0.00000    
       371 IM1H     19       IM1H     C3       CD2R5D    2.50700       11.6110           0  -1.08300       1.10000    
       372 IM1H     19       IM1H     DC3      DRUD     -2.55400      0.400000           0   0.00000       0.00000    
       373 IM1H     19       IM1H     H5       HDR5D    0.192000       1.00800           0   0.00000       0.00000    
       374 IM1H     19       IM1H     C4       CD2R5E    2.72410       11.6110           0  -1.25300       1.20000    
       375 IM1H     19       IM1H     DC4      DRUD     -2.74710      0.400000           0   0.00000       0.00000    
       376 IM1H     19       IM1H     H6       HDR5E    0.203000       1.00800           0   0.00000       0.00000    
       377 IM1H     19       IM1H     N2       ND2R5C    2.04220       13.6070           0 -0.803000       1.00000    
       378 IM1H     19       IM1H     DN2      DRUD     -2.19920      0.400000           0   0.00000       0.00000    
       379 IM1H     19       IM1H     H7       HDP1A    0.363000       1.00800           0   0.00000       0.00000    
       380 IM1H     19       IM1H     LPN21    LPD       0.00000       0.00000          -1   0.00000       0.00000    
       381 IM1H     20       IM1H     C1       CD33F     2.48500       11.6110           0  -1.18100       1.10000    
       382 IM1H     20       IM1H     DC1      DRUD     -2.66700      0.400000           0   0.00000       0.00000    
       383 IM1H     20       IM1H     H1       HDA3A    0.135000       1.00800           0   0.00000       0.00000    
       384 IM1H     20       IM1H     H2       HDA3A    0.135000       1.00800           0   0.00000       0.00000    
       385 IM1H     20       IM1H     H3       HDA3A    0.135000       1.00800           0   0.00000       0.00000    
       386 IM1H     20       IM1H     N1       ND2R5C    2.35720       13.6070           0 -0.803000       1.00000    
       387 IM1H     20       IM1H     DN1      DRUD     -2.19920      0.400000           0   0.00000       0.00000    
       388 IM1H     20       IM1H     C2       CD2R5D    2.44700       11.6110           0  -1.08300       1.10000    
       389 IM1H     20       IM1H     DC2      DRUD     -2.55400      0.400000           0   0.00000       0.00000    
       390 IM1H     20       IM1H     H4       HDR5D    0.195000       1.00800           0   0.00000       0.00000    
       391 IM1H     20       IM1H     C3       CD2R5D    2.50700       11.6110           0  -1.08300       1.10000    
       392 IM1H     20       IM1H     DC3      DRUD     -2.55400      0.400000           0   0.00000       0.00000    
       393 IM1H     20       IM1H     H5       HDR5D    0.192000       1.00800           0   0.00000       0.00000    
       394 IM1H     20       IM1H     C4       CD2R5E    2.72410       11.6110           0  -1.25300       1.20000    
       395 IM1H     20       IM1H     DC4      DRUD     -2.74710      0.400000           0   0.00000       0.00000    
       396 IM1H     20       IM1H     H6       HDR5E    0.203000       1.00800           0   0.00000       0.00000    
       397 IM1H     20       IM1H     N2       ND2R5C    2.04220       13.6070           0 -0.803000       1.00000    
       398 IM1H     20       IM1H     DN2      DRUD     -2.19920      0.400000           0   0.00000       0.00000    
       399 IM1H     20       IM1H     H7       HDP1A    0.363000       1.00800           0   0.00000       0.00000    
       400 IM1H     20       IM1H     LPN21    LPD       0.00000       0.00000          -1   0.00000       0.00000    
       401 IM1H     21       IM1H     C1       CD33F     2.48500       11.6110           0  -1.18100       1.10000    
       402 IM1H     21       IM1H     DC1      DRUD     -2.66700      0.400000           0   0.00000       0.00000    
       403 IM1H     21       IM1H     H1       HDA3A    0.135000       1.00800           0   0.00000       0.00000    
       404 IM1H     21       IM1H     H2       HDA3A    0.135000       1.00800           0   0.00000       0.00000    
       405 IM1H     21       IM1H     H3       HDA3A    0.135000       1.00800           0   0.00000       0.00000    
       406 IM1H     21       IM1H     N1       ND2R5C    2.35720       13.6070           0 -0.803000       1.00000    
       407 IM1H     21       IM1H     DN1      DRUD     -2.19920      0.400000           0   0.00000       0.00000    
       408 IM1H     21       IM1H     C2       CD2R5D    2.44700       11.6110           0  -1.08300       1.10000    
       409 IM1H     21       IM1H     DC2      DRUD     -2.55400      0.400000           0   0.00000       0.00000    
       410 IM1H     21       IM1H     H4       HDR5D    0.195000       1.00800           0   0.00000       0.00000    
       411 IM1H     21       IM1H     C3       CD2R5D    2.50700       11.6110           0  -1.08300       1.10000    
       412 IM1H     21       IM1H     DC3      DRUD     -2.55400      0.400000           0   0.00000       0.00000    
       413 IM1H     21       IM1H     H5       HDR5D    0.192000       1.00800           0   0.00000       0.00000    
       414 IM1H     21       IM1H     C4       CD2R5E    2.72410       11.6110           0  -1.25300       1.20000    
       415 IM1H     21       IM1H     DC4      DRUD     -2.74710      0.400000           0   0.00000       0.00000    
       416 IM1H     21       IM1H     H6       HDR5E    0.203000       1.00800           0   0.00000       0.00000    
       417 IM1H     21       IM1H     N2       ND2R5C    2.04220       13.6070           0 -0.803000       1.00000    
       418 IM1H     21       IM1H     DN2      DRUD     -2.19920      0.400000           0   0.00000       0.00000    
       419 IM1H     21       IM1H     H7       HDP1A    0.363000       1.00800           0   0.00000       0.00000    
       420 IM1H     21       IM1H     LPN21    LPD       0.00000       0.00000          -1   0.00000       0.00000    
       421 IM1H     22       IM1H     C1       CD33F     2.48500       11.6110           0  -1.18100       1.10000    
       422 IM1H     22       IM1H     DC1      DRUD     -2.66700      0.400000           0   0.00000       0.00000    
       423 IM1H     22       IM1H     H1       HDA3A    0.135000       1.00800           0   0.00000       0.00000    
       424 IM1H     22       IM1H     H2       HDA3A    0.135000       1.00800           0   0.00000       0.00000    
       425 IM1H     22       IM1H     H3       HDA3A    0.135000       1.00800           0   0.00000       0.00000    
       426 IM1H     22       IM1H     N1       ND2R5C    2.35720       13.6070           0 -0.803000       1.00000    
       427 IM1H     22       IM1H     DN1      DRUD     -2.19920      0.400000           0   0.00000       0.00000    
       428 IM1H     22       IM1H     C2       CD2R5D    2.44700       11.6110           0  -1.08300       1.10000    
       429 IM1H     22       IM1H     DC2      DRUD     -2.55400      0.400000           0   0.00000       0.00000    
       430 IM1H     22       IM1H     H4       HDR5D    0.195000       1.00800           0   0.00000       0.00000    
       431 IM1H     22       IM1H     C3       CD2R5D    2.50700       11.6110           0  -1.08300       1.10000    
       432 IM1H     22       IM1H     DC3      DRUD     -2.55400      0.400000           0   0.00000       0.00000    
       433 IM1H     22       IM1H     H5       HDR5D    0.192000       1.00800           0   0.00000       0.00000    
       434 IM1H     22       IM1H     C4       CD2R5E    2.72410       11.6110           0  -1.25300       1.20000    
       435 IM1H     22       IM1H     DC4      DRUD     -2.74710      0.400000           0   0.00000       0.00000    
       436 IM1H     22       IM1H     H6       HDR5E    0.203000       1.00800           0   0.00000       0.00000    
       437 IM1H     22       IM1H     N2       ND2R5C    2.04220       13.6070           0 -0.803000       1.00000    
       438 IM1H     22       IM1H     DN2      DRUD     -2.19920      0.400000           0   0.00000       0.00000    
       439 IM1H     22       IM1H     H7       HDP1A    0.363000       1.00800           0   0.00000       0.00000    
       440 IM1H     22       IM1H     LPN21    LPD       0.00000       0.00000          -1   0.00000       0.00000    
       441 IM1H     23       IM1H     C1       CD33F     2.48500       11.6110           0  -1.18100       1.10000    
       442 IM1H     23       IM1H     DC1      DRUD     -2.66700      0.400000           0   0.00000       0.00000    
       443 IM1H     23       IM1H     H1       HDA3A    0.135000       1.00800           0   0.00000       0.00000    
       444 IM1H     23       IM1H     H2       HDA3A    0.135000       1.00800           0   0.00000       0.00000    
       445 IM1H     23       IM1H     H3       HDA3A    0.135000       1.00800           0   0.00000       0.00000    
       446 IM1H     23       IM1H     N1       ND2R5C    2.35720       13.6070           0 -0.803000       1.00000    
       447 IM1H     23       IM1H     DN1      DRUD     -2.19920      0.400000           0   0.00000       0.00000    
       448 IM1H     23       IM1H     C2       CD2R5D    2.44700       11.6110           0  -1.08300       1.10000    
       449 IM1H     23       IM1H     DC2      DRUD     -2.55400      0.400000           0   0.00000       0.00000    
       450 IM1H     23       IM1H     H4       HDR5D    0.195000       1.00800           0   0.00000       0.00000    
       451 IM1H     23       IM1H     C3       CD2R5D    2.50700       11.6110           0  -1.08300       1.10000    
       452 IM1H     23       IM1H     DC3      DRUD     -2.55400      0.400000           0   0.00000       0.00000    
       453 IM1H     23       IM1H     H5       HDR5D    0.192000       1.00800           0   0.00000       0.00000    
       454 IM1H     23       IM1H     C4       CD2R5E    2.72410       11.6110           0  -1.25300       1.20000    
       455 IM1H     23       IM1H     DC4      DRUD     -2.74710      0.400000           0   0.00000       0.00000    
       456 IM1H     23       IM1H     H6       HDR5E    0.203000       1.00800           0   0.00000       0.00000    
       457 IM1H     23       IM1H     N2       ND2R5C    2.04220       13.6070           0 -0.803000       1.00000    
       458 IM1H     23       IM1H     DN2      DRUD     -2.19920      0.400000           0   0.00000       0.00000    
       459 IM1H     23       IM1H     H7       HDP1A    0.363000       1.00800           0   0.00000       0.00000    
       460 IM1H     23       IM1H     LPN21    LPD       0.00000       0.00000          -1   0.00000       0.00000    
       461 IM1H     24       IM1H     C1       CD33F     2.48500       11.6110           0  -1.18100       1.10000    
       462 IM1H     24       IM1H     DC1      DRUD     -2.66700      0.400000           0   0.00000       0.00000    
       463 IM1H     24       IM1H     H1       HDA3A    0.135000       1.00800           0   0.00000       0.00000    
       464 IM1H     24       IM1H     H2       HDA3A    0.135000       1.00800           0   0.00000       0.00000    
       465 IM1H     24       IM1H     H3       HDA3A    0.135000       1.00800           0   0.00000       0.00000    
       466 IM1H     24       IM1H     N1       ND2R5C    2.35720       13.6070           0 -0.803000       1.00000    
       467 IM1H     24       IM1H     DN1      DRUD     -2.19920      0.400000           0   0.00000       0.00000    
       468 IM1H     24       IM1H     C2       CD2R5D    2.44700       11.6110           0  -1.08300       1.10000    
       469 IM1H     24       IM1H     DC2      DRUD     -2.55400      0.400000           0   0.00000       0.00000    
       470 IM1H     24       IM1H     H4       HDR5D    0.195000       1.00800           0   0.00000       0.00000    
       471 IM1H     24       IM1H     C3       CD2R5D    2.50700       11.6110           0  -1.08300       1.10000    
       472 IM1H     24       IM1H     DC3      DRUD     -2.55400      0.400000           0   0.00000       0.00000    
       473 IM1H     24       IM1H     H5       HDR5D    0.192000       1.00800           0   0.00000       0.00000    
       474 IM1H     24       IM1H     C4       CD2R5E    2.72410       11.6110           0  -1.25300       1.20000    
       475 IM1H     24       IM1H     DC4      DRUD     -2.74710      0.400000           0   0.00000       0.00000    
       476 IM1H     24       IM1H     H6       HDR5E    0.203000       1.00800           0   0.00000       0.00000    
       477 IM1H     24       IM1H     N2       ND2R5C    2.04220       13.6070           0 -0.803000       1.00000    
       478 IM1H     24       IM1H     DN2      DRUD     -2.19920      0.400000           0   0.00000       0.00000    
       479 IM1H     24       IM1H     H7       HDP1A    0.363000       1.00800           0   0.00000       0.00000    
       480 IM1H     24       IM1H     LPN21    LPD       0.00000       0.00000          -1   0.00000       0.00000    
       481 IM1H     25       IM1H     C1       CD33F     2.48500       11.6110           0  -1.18100       1.10000    
       482 IM1H     25       IM1H     DC1      DRUD     -2.66700      0.400000           0   0.00000       0.00000    
       483 IM1H     25       IM1H     H1       HDA3A    0.135000       1.00800           0   0.00000       0.00000    
       484 IM1H     25       IM1H     H2       HDA3A    0.135000       1.00800           0   0.00000       0.00000    
       485 IM1H     25       IM1H     H3       HDA3A    0.135000       1.00800           0   0.00000       0.00000    
       486 IM1H     25       IM1H     N1       ND2R5C    2.35720       13.6070           0 -0.803000       1.00000    
       487 IM1H     25       IM1H     DN1      DRUD     -2.19920      0.400000           0   0.00000       0.00000    
       488 IM1H     25       IM1H     C2       CD2R5D    2.44700       11.6110           0  -1.08300       1.10000    
       489 IM1H     25       IM1H     DC2      DRUD     -2.55400      0.400000           0   0.00000       0.00000    
       490 IM1H     25       IM1H     H4       HDR5D    0.195000       1.00800           0   0.00000       0.00000    
       491 IM1H     25       IM1H     C3       CD2R5D    2.50700       11.6110           0  -1.08300       1.10000    
       492 IM1H     25       IM1H     DC3      DRUD     -2.55400      0.400000           0   0.00000       0.00000    
       493 IM1H     25       IM1H     H5       HDR5D    0.192000       1.00800           0   0.00000       0.00000    
       494 IM1H     25       IM1H     C4       CD2R5E    2.72410       11.6110           0  -1.25300       1.20000    
       495 IM1H     25       IM1H     DC4      DRUD     -2.74710      0.400000           0   0.00000       0.00000    
       496 IM1H     25       IM1H     H6       HDR5E    0.203000       1.00800           0   0.00000       0.00000    
       497 IM1H     25       IM1H     N2       ND2R5C    2.04220       13.6070           0 -0.803000       1.00000    
       498 IM1H     25       IM1H     DN2      DRUD     -2.19920      0.400000           0   0.00000       0.00000    
       499 IM1H     25       IM1H     H7       HDP1A    0.363000       1.00800           0   0.00000       0.00000    
       500 IM1H     25       IM1H     LPN21    LPD       0.00000       0.00000          -1   0.00000       0.00000    
       501 IM1H     26       IM1H     C1       CD33F     2.48500       11.6110           0  -1.18100       1.10000    
       502 IM1H     26       IM1H     DC1      DRUD     -2.66700      0.400000           0   0.00000       0.00000    
       503 IM1H     26       IM1H     H1       HDA3A    0.135000       1.00800           0   0.00000       0.00000    
       504 IM1H     26       IM1H     H2       HDA3A    0.135000       1.00800           0   0.00000       0.00000    
       505 IM1H     26       IM1H     H3       HDA3A    0.135000       1.00800           0   0.00000       0.00000    
       506 IM1H     26       IM1H     N1       ND2R5C    2.35720       13.6070           0 -0.803000       1.00000    
       507 IM1H     26       IM1H     DN1      DRUD     -2.19920      0.400000           0   0.00000       0.00000    
       508 IM1H     26       IM1H     C2       CD2R5D    2.44700       11.6110           0  -1.08300       1.10000    
       509 IM1H     26       IM1H     DC2      DRUD     -2.55400      0.400000           0   0.00000       0.00000    
       510 IM1H     26       IM1H     H4       HDR5D    0.195000       1.00800           0   0.00000       0.00000    
       511 IM1H     26       IM1H     C3       CD2R5D    2.50700       11.6110           0  -1.08300       1.10000    
       512 IM1H     26       IM1H     DC3      DRUD     -2.55400      0.400000           0   0.00000       0.00000    
       513 IM1H     26       IM1H     H5       HDR5D    0.192000       1.00800           0   0.00000       0.00000    
       514 IM1H     26       IM1H     C4       CD2R5E    2.72410       11.6110           0  -1.25300       1.20000    
       515 IM1H     26       IM1H     DC4      DRUD     -2.74710      0.400000           0   0.00000       0.00000    
       516 IM1H     26       IM1H     H6       HDR5E    0.203000       1.00800           0   0.00000       0.00000    
       517 IM1H     26       IM1H     N2       ND2R5C    2.04220       13.6070           0 -0.803000       1.00000    
       518 IM1H     26       IM1H     DN2      DRUD     -2.19920      0.400000           0   0.00000       0.00000    
       519 IM1H     26       IM1H     H7       HDP1A    0.363000       1.00800           0   0.00000       0.00000    
       520 IM1H     26       IM1H     LPN21    LPD       0.00000       0.00000          -1   0.00000       0.00000    
       521 IM1H     27       IM1H     C1       CD33F     2.48500       11.6110           0  -1.18100       1.10000    
       522 IM1H     27       IM1H     DC1      DRUD     -2.66700      0.400000           0   0.00000       0.00000    
       523 IM1H     27       IM1H     H1       HDA3A    0.135000       1.00800           0   0.00000       0.00000    
       524 IM1H     27       IM1H     H2       HDA3A    0.135000       1.00800           0   0.00000       0.00000    
       525 IM1H     27       IM1H     H3       HDA3A    0.135000       1.00800           0   0.00000       0.00000    
       526 IM1H     27       IM1H     N1       ND2R5C    2.35720       13.6070           0 -0.803000       1.00000    
       527 IM1H     27       IM1H     DN1      DRUD     -2.19920      0.400000           0   0.00000       0.00000    
       528 IM1H     27       IM1H     C2       CD2R5D    2.44700       11.6110           0  -1.08300       1.10000    
       529 IM1H     27       IM1H     DC2      DRUD     -2.55400      0.400000           0   0.00000       0.00000    
       530 IM1H     27       IM1H     H4       HDR5D    0.195000       1.00800           0   0.00000       0.00000    
       531 IM1H     27       IM1H     C3       CD2R5D    2.50700       11.6110           0  -1.08300       1.10000    
       532 IM1H     27       IM1H     DC3      DRUD     -2.55400      0.400000           0   0.00000       0.00000    
       533 IM1H     27       IM1H     H5       HDR5D    0.192000       1.00800           0   0.00000       0.00000    
       534 IM1H     27       IM1H     C4       CD2R5E    2.72410       11.6110           0  -1.25300       1.20000    
       535 IM1H     27       IM1H     DC4      DRUD     -2.74710      0.400000           0   0.00000       0.00000    
       536 IM1H     27       IM1H     H6       HDR5E    0.203000       1.00800           0   0.00000       0.00000    
       537 IM1H     27       IM1H     N2       ND2R5C    2.04220       13.6070           0 -0.803000       1.00000    
       538 IM1H     27       IM1H     DN2      DRUD     -2.19920      0.400000           0   0.00000       0.00000    
       539 IM1H     27       IM1H     H7       HDP1A    0.363000       1.00800           0   0.00000       0.00000    
       540 IM1H     27       IM1H     LPN21    LPD       0.00000       0.00000          -1   0.00000       0.00000    
       541 IM1H     28       IM1H     C1       CD33F     2.48500       11.6110           0  -1.18100       1.10000    
       542 IM1H     28       IM1H     DC1      DRUD     -2.66700      0.400000           0   0.00000       0.00000    
       543 IM1H     28       IM1H     H1       HDA3A    0.135000       1.00800           0   0.00000       0.00000    
       544 IM1H     28       IM1H     H2       HDA3A    0.135000       1.00800           0   0.00000       0.00000    
       545 IM1H     28       IM1H     H3       HDA3A    0.135000       1.00800           0   0.00000       0.00000    
       546 IM1H     28       IM1H     N1       ND2R5C    2.35720       13.6070           0 -0.803000       1.00000    
       547 IM1H     28       IM1H     DN1      DRUD     -2.19920      0.400000           0   0.00000       0.00000    
       548 IM1H     28       IM1H     C2       CD2R5D    2.44700       11.6110           0  -1.08300       1.10000    
       549 IM1H     28       IM1H     DC2      DRUD     -2.55400      0.400000           0   0.00000       0.00000    
       550 IM1H     28       IM1H     H4       HDR5D    0.195000       1.00800           0   0.00000       0.00000    
       551 IM1H     28       IM1H     C3       CD2R5D    2.50700       11.6110           0  -1.08300       1.10000    
       552 IM1H     28       IM1H     DC3      DRUD     -2.55400      0.400000           0   0.00000       0.00000    
       553 IM1H     28       IM1H     H5       HDR5D    0.192000       1.00800           0   0.00000       0.00000    
       554 IM1H     28       IM1H     C4       CD2R5E    2.72410       11.6110           0  -1.25300       1.20000    
       555 IM1H     28       IM1H     DC4      DRUD     -2.74710      0.400000           0   0.00000       0.00000    
       556 IM1H     28       IM1H     H6       HDR5E    0.203000       1.00800           0   0.00000       0.00000    
       557 IM1H     28       IM1H     N2       ND2R5C    2.04220       13.6070           0 -0.803000       1.00000    
       558 IM1H     28       IM1H     DN2      DRUD     -2.19920      0.400000           0   0.00000       0.00000    
       559 IM1H     28       IM1H     H7       HDP1A    0.363000       1.00800           0   0.00000       0.00000    
       560 IM1H     28       IM1H     LPN21    LPD       0.00000       0.00000          -1   0.00000       0.00000    
       561 IM1H     29       IM1H     C1       CD33F     2.48500       11.6110           0  -1.18100       1.10000    
       562 IM1H     29       IM1H     DC1      DRUD     -2.66700      0.400000           0   0.00000       0.00000    
       563 IM1H     29       IM1H     H1       HDA3A    0.135000       1.00800           0   0.00000       0.00000    
       564 IM1H     29       IM1H     H2       HDA3A    0.135000       1.00800           0   0.00000       0.00000    
       565 IM1H     29       IM1H     H3       HDA3A    0.135000       1.00800           0   0.00000       0.00000    
       566 IM1H     29       IM1H     N1       ND2R5C    2.35720       13.6070           0 -0.803000       1.00000    
       567 IM1H     29       IM1H     DN1      DRUD     -2.19920      0.400000           0   0.00000       0.00000    
       568 IM1H     29       IM1H     C2       CD2R5D    2.44700       11.6110           0  -1.08300       1.10000    
       569 IM1H     29       IM1H     DC2      DRUD     -2.55400      0.400000           0   0.00000       0.00000    
       570 IM1H     29       IM1H     H4       HDR5D    0.195000       1.00800           0   0.00000       0.00000    
       571 IM1H     29       IM1H     C3       CD2R5D    2.50700       11.6110           0  -1.08300       1.10000    
       572 IM1H     29       IM1H     DC3      DRUD     -2.55400      0.400000           0   0.00000       0.00000    
       573 IM1H     29       IM1H     H5       HDR5D    0.192000       1.00800           0   0.00000       0.00000    
       574 IM1H     29       IM1H     C4       CD2R5E    2.72410       11.6110           0  -1.25300       1.20000    
       575 IM1H     29       IM1H     DC4      DRUD     -2.74710      0.400000           0   0.00000       0.00000    
       576 IM1H     29       IM1H     H6       HDR5E    0.203000       1.00800           0   0.00000       0.00000    
       577 IM1H     29       IM1H     N2       ND2R5C    2.04220       13.6070           0 -0.803000       1.00000    
       578 IM1H     29       IM1H     DN2      DRUD     -2.19920      0.400000           0   0.00000       0.00000    
       579 IM1H     29       IM1H     H7       HDP1A    0.363000       1.00800           0   0.00000       0.00000    
       580 IM1H     29       IM1H     LPN21    LPD       0.00000       0.00000          -1   0.00000       0.00000    
       581 IM1H     30       IM1H     C1       CD33F     2.48500       11.6110           0  -1.18100       1.10000    
       582 IM1H     30       IM1H     DC1      DRUD     -2.66700      0.400000           0   0.00000       0.00000    
       583 IM1H     30       IM1H     H1       HDA3A    0.135000       1.00800           0   0.00000       0.00000    
       584 IM1H     30       IM1H     H2       HDA3A    0.135000       1.00800           0   0.00000       0.00000    
       585 IM1H     30       IM1H     H3       HDA3A    0.135000       1.00800           0   0.00000       0.00000    
       586 IM1H     30       IM1H     N1       ND2R5C    2.35720       13.6070           0 -0.803000       1.00000    
       587 IM1H     30       IM1H     DN1      DRUD     -2.19920      0.400000           0   0.00000       0.00000    
       588 IM1H     30       IM1H     C2       CD2R5D    2.44700       11.6110           0  -1.08300       1.10000    
       589 IM1H     30       IM1H     DC2      DRUD     -2.55400      0.400000           0   0.00000       0.00000    
       590 IM1H     30       IM1H     H4       HDR5D    0.195000       1.00800           0   0.00000       0.00000    
       591 IM1H     30       IM1H     C3       CD2R5D    2.50700       11.6110           0  -1.08300       1.10000    
       592 IM1H     30       IM1H     DC3      DRUD     -2.55400      0.400000           0   0.00000       0.00000    
       593 IM1H     30       IM1H     H5       HDR5D    0.192000       1.00800           0   0.00000       0.00000    
       594 IM1H     30       IM1H     C4       CD2R5E    2.72410       11.6110           0  -1.25300       1.20000    
       595 IM1H     30       IM1H     DC4      DRUD     -2.74710      0.400000           0   0.00000       0.00000    
       596 IM1H     30       IM1H     H6       HDR5E    0.203000       1.00800           0   0.00000       0.00000    
       597 IM1H     30       IM1H     N2       ND2R5C    2.04220       13.6070           0 -0.803000       1.00000    
       598 IM1H     30       IM1H     DN2      DRUD     -2.19920      0.400000           0   0.00000       0.00000    
       599 IM1H     30       IM1H     H7       HDP1A    0.363000       1.00800           0   0.00000       0.00000    
       600 IM1H     30       IM1H     LPN21    LPD       0.00000       0.00000          -1   0.00000       0.00000    
       601 IM1H     31       IM1H     C1       CD33F     2.48500       11.6110           0  -1.18100       1.10000    
       602 IM1H     31       IM1H     DC1      DRUD     -2.66700      0.400000           0   0.00000       0.00000    
       603 IM1H     31       IM1H     H1       HDA3A    0.135000       1.00800           0   0.00000       0.00000    
       604 IM1H     31       IM1H     H2       HDA3A    0.135000       1.00800           0   0.00000       0.00000    
       605 IM1H     31       IM1H     H3       HDA3A    0.135000       1.00800           0   0.00000       0.00000    
       606 IM1H     31       IM1H     N1       ND2R5C    2.35720       13.6070           0 -0.803000       1.00000    
       607 IM1H     31       IM1H     DN1      DRUD     -2.19920      0.400000           0   0.00000       0.00000    
       608 IM1H     31       IM1H     C2       CD2R5D    2.44700       11.6110           0  -1.08300       1.10000    
       609 IM1H     31       IM1H     DC2      DRUD     -2.55400      0.400000           0   0.00000       0.00000    
       610 IM1H     31       IM1H     H4       HDR5D    0.195000       1.00800           0   0.00000       0.00000    
       611 IM1H     31       IM1H     C3       CD2R5D    2.50700       11.6110           0  -1.08300       1.10000    
       612 IM1H     31       IM1H     DC3      DRUD     -2.55400      0.400000           0   0.00000       0.00000    
       613 IM1H     31       IM1H     H5       HDR5D    0.192000       1.00800           0   0.00000       0.00000    
       614 IM1H     31       IM1H     C4       CD2R5E    2.72410       11.6110           0  -1.25300       1.20000    
       615 IM1H     31       IM1H     DC4      DRUD     -2.74710      0.400000           0   0.00000       0.00000    
       616 IM1H     31       IM1H     H6       HDR5E    0.203000       1.00800           0   0.00000       0.00000    
       617 IM1H     31       IM1H     N2       ND2R5C    2.04220       13.6070           0 -0.803000       1.00000    
       618 IM1H     31       IM1H     DN2      DRUD     -2.19920      0.400000           0   0.00000       0.00000    
       619 IM1H     31       IM1H     H7       HDP1A    0.363000       1.00800           0   0.00000       0.00000    
       620 IM1H     31       IM1H     LPN21    LPD       0.00000       0.00000          -1   0.00000       0.00000    
       621 IM1H     32       IM1H     C1       CD33F     2.48500       11.6110           0  -1.18100       1.10000    
       622 IM1H     32       IM1H     DC1      DRUD     -2.66700      0.400000           0   0.00000       0.00000    
       623 IM1H     32       IM1H     H1       HDA3A    0.135000       1.00800           0   0.00000       0.00000    
       624 IM1H     32       IM1H     H2       HDA3A    0.135000       1.00800           0   0.00000       0.00000    
       625 IM1H     32       IM1H     H3       HDA3A    0.135000       1.00800           0   0.00000       0.00000    
       626 IM1H     32       IM1H     N1       ND2R5C    2.35720       13.6070           0 -0.803000       1.00000    
       627 IM1H     32       IM1H     DN1      DRUD     -2.19920      0.400000           0   0.00000       0.00000    
       628 IM1H     32       IM1H     C2       CD2R5D    2.44700       11.6110           0  -1.08300       1.10000    
       629 IM1H     32       IM1H     DC2      DRUD     -2.55400      0.400000           0   0.00000       0.00000    
       630 IM1H     32       IM1H     H4       HDR5D    0.195000       1.00800           0   0.00000       0.00000    
       631 IM1H     32       IM1H     C3       CD2R5D    2.50700       11.6110           0  -1.08300       1.10000    
       632 IM1H     32       IM1H     DC3      DRUD     -2.55400      0.400000           0   0.00000       0.00000    
       633 IM1H     32       IM1H     H5       HDR5D    0.192000       1.00800           0   0.00000       0.00000    
       634 IM1H     32       IM1H     C4       CD2R5E    2.72410       11.6110           0  -1.25300       1.20000    
       635 IM1H     32       IM1H     DC4      DRUD     -2.74710      0.400000           0   0.00000       0.00000    
       636 IM1H     32       IM1H     H6       HDR5E    0.203000       1.00800           0   0.00000       0.00000    
       637 IM1H     32       IM1H     N2       ND2R5C    2.04220       13.6070           0 -0.803000       1.00000    
       638 IM1H     32       IM1H     DN2      DRUD     -2.19920      0.400000           0   0.00000       0.00000    
       639 IM1H     32       IM1H     H7       HDP1A    0.363000       1.00800           0   0.00000       0.00000    
       640 IM1H     32       IM1H     LPN21    LPD       0.00000       0.00000          -1   0.00000       0.00000    
       641 IM1H     33       IM1H     C1       CD33F     2.48500       11.6110           0  -1.18100       1.10000    
       642 IM1H     33       IM1H     DC1      DRUD     -2.66700      0.400000           0   0.00000       0.00000    
       643 IM1H     33       IM1H     H1       HDA3A    0.135000       1.00800           0   0.00000       0.00000    
       644 IM1H     33       IM1H     H2       HDA3A    0.135000       1.00800           0   0.00000       0.00000    
       645 IM1H     33       IM1H     H3       HDA3A    0.135000       1.00800           0   0.00000       0.00000    
       646 IM1H     33       IM1H     N1       ND2R5C    2.35720       13.6070           0 -0.803000       1.00000    
       647 IM1H     33       IM1H     DN1      DRUD     -2.19920      0.400000           0   0.00000       0.00000    
       648 IM1H     33       IM1H     C2       CD2R5D    2.44700       11.6110           0  -1.08300       1.10000    
       649 IM1H     33       IM1H     DC2      DRUD     -2.55400      0.400000           0   0.00000       0.00000    
       650 IM1H     33       IM1H     H4       HDR5D    0.195000       1.00800           0   0.00000       0.00000    
       651 IM1H     33       IM1H     C3       CD2R5D    2.50700       11.6110           0  -1.08300       1.10000    
       652 IM1H     33       IM1H     DC3      DRUD     -2.55400      0.400000           0   0.00000       0.00000    
       653 IM1H     33       IM1H     H5       HDR5D    0.192000       1.00800           0   0.00000       0.00000    
       654 IM1H     33       IM1H     C4       CD2R5E    2.72410       11.6110           0  -1.25300       1.20000    
       655 IM1H     33       IM1H     DC4      DRUD     -2.74710      0.400000           0   0.00000       0.00000    
       656 IM1H     33       IM1H     H6       HDR5E    0.203000       1.00800           0   0.00000       0.00000    
       657 IM1H     33       IM1H     N2       ND2R5C    2.04220       13.6070           0 -0.803000       1.00000    
       658 IM1H     33       IM1H     DN2      DRUD     -2.19920      0.400000           0   0.00000       0.00000    
       659 IM1H     33       IM1H     H7       HDP1A    0.363000       1.00800           0   0.00000       0.00000    
       660 IM1H     33       IM1H     LPN21    LPD       0.00000       0.00000          -1   0.00000       0.00000    
       661 IM1H     34       IM1H     C1       CD33F     2.48500       11.6110           0  -1.18100       1.10000    
       662 IM1H     34       IM1H     DC1      DRUD     -2.66700      0.400000           0   0.00000       0.00000    
       663 IM1H     34       IM1H     H1       HDA3A    0.135000       1.00800           0   0.00000       0.00000    
       664 IM1H     34       IM1H     H2       HDA3A    0.135000       1.00800           0   0.00000       0.00000    
       665 IM1H     34       IM1H     H3       HDA3A    0.135000       1.00800           0   0.00000       0.00000    
       666 IM1H     34       IM1H     N1       ND2R5C    2.35720       13.6070           0 -0.803000       1.00000    
       667 IM1H     34       IM1H     DN1      DRUD     -2.19920      0.400000           0   0.00000       0.00000    
       668 IM1H     34       IM1H     C2       CD2R5D    2.44700       11.6110           0  -1.08300       1.10000    
       669 IM1H     34       IM1H     DC2      DRUD     -2.55400      0.400000           0   0.00000       0.00000    
       670 IM1H     34       IM1H     H4       HDR5D    0.195000       1.00800           0   0.00000       0.00000    
       671 IM1H     34       IM1H     C3       CD2R5D    2.50700       11.6110           0  -1.08300       1.10000    
       672 IM1H     34       IM1H     DC3      DRUD     -2.55400      0.400000           0   0.00000       0.00000    
       673 IM1H     34       IM1H     H5       HDR5D    0.192000       1.00800           0   0.00000       0.00000    
       674 IM1H     34       IM1H     C4       CD2R5E    2.72410       11.6110           0  -1.25300       1.20000    
       675 IM1H     34       IM1H     DC4      DRUD     -2.74710      0.400000           0   0.00000       0.00000    
       676 IM1H     34       IM1H     H6       HDR5E    0.203000       1.00800           0   0.00000       0.00000    
       677 IM1H     34       IM1H     N2       ND2R5C    2.04220       13.6070           0 -0.803000       1.00000    
       678 IM1H     34       IM1H     DN2      DRUD     -2.19920      0.400000           0   0.00000       0.00000    
       679 IM1H     34       IM1H     H7       HDP1A    0.363000       1.00800           0   0.00000       0.00000    
       680 IM1H     34       IM1H     LPN21    LPD       0.00000       0.00000          -1   0.00000       0.00000    
       681 IM1H     35       IM1H     C1       CD33F     2.48500       11.6110           0  -1.18100       1.10000    
       682 IM1H     35       IM1H     DC1      DRUD     -2.66700      0.400000           0   0.00000       0.00000    
       683 IM1H     35       IM1H     H1       HDA3A    0.135000       1.00800           0   0.00000       0.00000    
       684 IM1H     35       IM1H     H2       HDA3A    0.135000       1.00800           0   0.00000       0.00000    
       685 IM1H     35       IM1H     H3       HDA3A    0.135000       1.00800           0   0.00000       0.00000    
       686 IM1H     35       IM1H     N1       ND2R5C    2.35720       13.6070           0 -0.803000       1.00000    
       687 IM1H     35       IM1H     DN1      DRUD     -2.19920      0.400000           0   0.00000       0.00000    
       688 IM1H     35       IM1H     C2       CD2R5D    2.44700       11.6110           0  -1.08300       1.10000    
       689 IM1H     35       IM1H     DC2      DRUD     -2.55400      0.400000           0   0.00000       0.00000    
       690 IM1H     35       IM1H     H4       HDR5D    0.195000       1.00800           0   0.00000       0.00000    
       691 IM1H     35       IM1H     C3       CD2R5D    2.50700       11.6110           0  -1.08300       1.10000    
       692 IM1H     35       IM1H     DC3      DRUD     -2.55400      0.400000           0   0.00000       0.00000    
       693 IM1H     35       IM1H     H5       HDR5D    0.192000       1.00800           0   0.00000       0.00000    
       694 IM1H     35       IM1H     C4       CD2R5E    2.72410       11.6110           0  -1.25300       1.20000    
       695 IM1H     35       IM1H     DC4      DRUD     -2.74710      0.400000           0   0.00000       0.00000    
       696 IM1H     35       IM1H     H6       HDR5E    0.203000       1.00800           0   0.00000       0.00000    
       697 IM1H     35       IM1H     N2       ND2R5C    2.04220       13.6070           0 -0.803000       1.00000    
       698 IM1H     35       IM1H     DN2      DRUD     -2.19920      0.400000           0   0.00000       0.00000    
       699 IM1H     35       IM1H     H7       HDP1A    0.363000       1.00800           0   0.00000       0.00000    
       700 IM1H     35       IM1H     LPN21    LPD       0.00000       0.00000          -1   0.00000       0.00000    
       701 IM1H     36       IM1H     C1       CD33F     2.48500       11.6110           0  -1.18100       1.10000    
       702 IM1H     36       IM1H     DC1      DRUD     -2.66700      0.400000           0   0.00000       0.00000    
       703 IM1H     36       IM1H     H1       HDA3A    0.135000       1.00800           0   0.00000       0.00000    
       704 IM1H     36       IM1H     H2       HDA3A    0.135000       1.00800           0   0.00000       0.00000    
       705 IM1H     36       IM1H     H3       HDA3A    0.135000       1.00800           0   0.00000       0.00000    
       706 IM1H     36       IM1H     N1       ND2R5C    2.35720       13.6070           0 -0.803000       1.00000    
       707 IM1H     36       IM1H     DN1      DRUD     -2.19920      0.400000           0   0.00000       0.00000    
       708 IM1H     36       IM1H     C2       CD2R5D    2.44700       11.6110           0  -1.08300       1.10000    
       709 IM1H     36       IM1H     DC2      DRUD     -2.55400      0.400000           0   0.00000       0.00000    
       710 IM1H     36       IM1H     H4       HDR5D    0.195000       1.00800           0   0.00000       0.00000    
       711 IM1H     36       IM1H     C3       CD2R5D    2.50700       11.6110           0  -1.08300       1.10000    
       712 IM1H     36       IM1H     DC3      DRUD     -2.55400      0.400000           0   0.00000       0.00000    
       713 IM1H     36       IM1H     H5       HDR5D    0.192000       1.00800           0   0.00000       0.00000    
       714 IM1H     36       IM1H     C4       CD2R5E    2.72410       11.6110           0  -1.25300       1.20000    
       715 IM1H     36       IM1H     DC4      DRUD     -2.74710      0.400000           0   0.00000       0.00000    
       716 IM1H     36       IM1H     H6       HDR5E    0.203000       1.00800           0   0.00000       0.00000    
       717 IM1H     36       IM1H     N2       ND2R5C    2.04220       13.6070           0 -0.803000       1.00000    
       718 IM1H     36       IM1H     DN2      DRUD     -2.19920      0.400000           0   0.00000       0.00000    
       719 IM1H     36       IM1H     H7       HDP1A    0.363000       1.00800           0   0.00000       0.00000    
       720 IM1H     36       IM1H     LPN21    LPD       0.00000       0.00000          -1   0.00000       0.00000    
       721 IM1H     37       IM1H     C1       CD33F     2.48500       11.6110           0  -1.18100       1.10000    
       722 IM1H     37       IM1H     DC1      DRUD     -2.66700      0.400000           0   0.00000       0.00000    
       723 IM1H     37       IM1H     H1       HDA3A    0.135000       1.00800           0   0.00000       0.00000    
       724 IM1H     37       IM1H     H2       HDA3A    0.135000       1.00800           0   0.00000       0.00000    
       725 IM1H     37       IM1H     H3       HDA3A    0.135000       1.00800           0   0.00000       0.00000    
       726 IM1H     37       IM1H     N1       ND2R5C    2.35720       13.6070           0 -0.803000       1.00000    
       727 IM1H     37       IM1H     DN1      DRUD     -2.19920      0.400000           0   0.00000       0.00000    
       728 IM1H     37       IM1H     C2       CD2R5D    2.44700       11.6110           0  -1.08300       1.10000    
       729 IM1H     37       IM1H     DC2      DRUD     -2.55400      0.400000           0   0.00000       0.00000    
       730 IM1H     37       IM1H     H4       HDR5D    0.195000       1.00800           0   0.00000       0.00000    
       731 IM1H     37       IM1H     C3       CD2R5D    2.50700       11.6110           0  -1.08300       1.10000    
       732 IM1H     37       IM1H     DC3      DRUD     -2.55400      0.400000           0   0.00000       0.00000    
       733 IM1H     37       IM1H     H5       HDR5D    0.192000       1.00800           0   0.00000       0.00000    
       734 IM1H     37       IM1H     C4       CD2R5E    2.72410       11.6110           0  -1.25300       1.20000    
       735 IM1H     37       IM1H     DC4      DRUD     -2.74710      0.400000           0   0.00000       0.00000    
       736 IM1H     37       IM1H     H6       HDR5E    0.203000       1.00800           0   0.00000       0.00000    
       737 IM1H     37       IM1H     N2       ND2R5C    2.04220       13.6070           0 -0.803000       1.00000    
       738 IM1H     37       IM1H     DN2      DRUD     -2.19920      0.400000           0   0.00000       0.00000    
       739 IM1H     37       IM1H     H7       HDP1A    0.363000       1.00800           0   0.00000       0.00000    
       740 IM1H     37       IM1H     LPN21    LPD       0.00000       0.00000          -1   0.00000       0.00000    
       741 IM1H     38       IM1H     C1       CD33F     2.48500       11.6110           0  -1.18100       1.10000    
       742 IM1H     38       IM1H     DC1      DRUD     -2.66700      0.400000           0   0.00000       0.00000    
       743 IM1H     38       IM1H     H1       HDA3A    0.135000       1.00800           0   0.00000       0.00000    
       744 IM1H     38       IM1H     H2       HDA3A    0.135000       1.00800           0   0.00000       0.00000    
       745 IM1H     38       IM1H     H3       HDA3A    0.135000       1.00800           0   0.00000       0.00000    
       746 IM1H     38       IM1H     N1       ND2R5C    2.35720       13.6070           0 -0.803000       1.00000    
       747 IM1H     38       IM1H     DN1      DRUD     -2.19920      0.400000           0   0.00000       0.00000    
       748 IM1H     38       IM1H     C2       CD2R5D    2.44700       11.6110           0  -1.08300       1.10000    
       749 IM1H     38       IM1H     DC2      DRUD     -2.55400      0.400000           0   0.00000       0.00000    
       750 IM1H     38       IM1H     H4       HDR5D    0.195000       1.00800           0   0.00000       0.00000    
       751 IM1H     38       IM1H     C3       CD2R5D    2.50700       11.6110           0  -1.08300       1.10000    
       752 IM1H     38       IM1H     DC3      DRUD     -2.55400      0.400000           0   0.00000       0.00000    
       753 IM1H     38       IM1H     H5       HDR5D    0.192000       1.00800           0   0.00000       0.00000    
       754 IM1H     38       IM1H     C4       CD2R5E    2.72410       11.6110           0  -1.25300       1.20000    
       755 IM1H     38       IM1H     DC4      DRUD     -2.74710      0.400000           0   0.00000       0.00000    
       756 IM1H     38       IM1H     H6       HDR5E    0.203000       1.00800           0   0.00000       0.00000    
       757 IM1H     38       IM1H     N2       ND2R5C    2.04220       13.6070           0 -0.803000       1.00000    
       758 IM1H     38       IM1H     DN2      DRUD     -2.19920      0.400000           0   0.00000       0.00000    
       759 IM1H     38       IM1H     H7       HDP1A    0.363000       1.00800           0   0.00000       0.00000    
       760 IM1H     38       IM1H     LPN21    LPD       0.00000       0.00000          -1   0.00000       0.00000    
       761 IM1H     39       IM1H     C1       CD33F     2.48500       11.6110           0  -1.18100       1.10000    
       762 IM1H     39       IM1H     DC1      DRUD     -2.66700      0.400000           0   0.00000       0.00000    
       763 IM1H     39       IM1H     H1       HDA3A    0.135000       1.00800           0   0.00000       0.00000    
       764 IM1H     39       IM1H     H2       HDA3A    0.135000       1.00800           0   0.00000       0.00000    
       765 IM1H     39       IM1H     H3       HDA3A    0.135000       1.00800           0   0.00000       0.00000    
       766 IM1H     39       IM1H     N1       ND2R5C    2.35720       13.6070           0 -0.803000       1.00000    
       767 IM1H     39       IM1H     DN1      DRUD     -2.19920      0.400000           0   0.00000       0.00000    
       768 IM1H     39       IM1H     C2       CD2R5D    2.44700       11.6110           0  -1.08300       1.10000    
       769 IM1H     39       IM1H     DC2      DRUD     -2.55400      0.400000           0   0.00000       0.00000    
       770 IM1H     39       IM1H     H4       HDR5D    0.195000       1.00800           0   0.00000       0.00000    
       771 IM1H     39       IM1H     C3       CD2R5D    2.50700       11.6110           0  -1.08300       1.10000    
       772 IM1H     39       IM1H     DC3      DRUD     -2.55400      0.400000           0   0.00000       0.00000    
       773 IM1H     39       IM1H     H5       HDR5D    0.192000       1.00800           0   0.00000       0.00000    
       774 IM1H     39       IM1H     C4       CD2R5E    2.72410       11.6110           0  -1.25300       1.20000    
       775 IM1H     39       IM1H     DC4      DRUD     -2.74710      0.400000           0   0.00000       0.00000    
       776 IM1H     39       IM1H     H6       HDR5E    0.203000       1.00800           0   0.00000       0.00000    
       777 IM1H     39       IM1H     N2       ND2R5C    2.04220       13.6070           0 -0.803000       1.00000    
       778 IM1H     39       IM1H     DN2      DRUD     -2.19920      0.400000           0   0.00000       0.00000    
       779 IM1H     39       IM1H     H7       HDP1A    0.363000       1.00800           0   0.00000       0.00000    
       780 IM1H     39       IM1H     LPN21    LPD       0.00000       0.00000          -1   0.00000       0.00000    
       781 IM1H     40       IM1H     C1       CD33F     2.48500       11.6110           0  -1.18100       1.10000    
       782 IM1H     40       IM1H     DC1      DRUD     -2.66700      0.400000           0   0.00000       0.00000    
       783 IM1H     40       IM1H     H1       HDA3A    0.135000       1.00800           0   0.00000       0.00000    
       784 IM1H     40       IM1H     H2       HDA3A    0.135000       1.00800           0   0.00000       0.00000    
       785 IM1H     40       IM1H     H3       HDA3A    0.135000       1.00800           0   0.00000       0.00000    
       786 IM1H     40       IM1H     N1       ND2R5C    2.35720       13.6070           0 -0.803000       1.00000    
       787 IM1H     40       IM1H     DN1      DRUD     -2.19920      0.400000           0   0.00000       0.00000    
       788 IM1H     40       IM1H     C2       CD2R5D    2.44700       11.6110           0  -1.08300       1.10000    
       789 IM1H     40       IM1H     DC2      DRUD     -2.55400      0.400000           0   0.00000       0.00000    
       790 IM1H     40       IM1H     H4       HDR5D    0.195000       1.00800           0   0.00000       0.00000    
       791 IM1H     40       IM1H     C3       CD2R5D    2.50700       11.6110           0  -1.08300       1.10000    
       792 IM1H     40       IM1H     DC3      DRUD     -2.55400      0.400000           0   0.00000       0.00000    
       793 IM1H     40       IM1H     H5       HDR5D    0.192000       1.00800           0   0.00000       0.00000    
       794 IM1H     40       IM1H     C4       CD2R5E    2.72410       11.6110           0  -1.25300       1.20000    
       795 IM1H     40       IM1H     DC4      DRUD     -2.74710      0.400000           0   0.00000       0.00000    
       796 IM1H     40       IM1H     H6       HDR5E    0.203000       1.00800           0   0.00000       0.00000    
       797 IM1H     40       IM1H     N2       ND2R5C    2.04220       13.6070           0 -0.803000       1.00000    
       798 IM1H     40       IM1H     DN2      DRUD     -2.19920      0.400000           0   0.00000       0.00000    
       799 IM1H     40       IM1H     H7       HDP1A    0.363000       1.00800           0   0.00000       0.00000    
       800 IM1H     40       IM1H     LPN21    LPD       0.00000       0.00000          -1   0.00000       0.00000    
       801 IM1H     41       IM1H     C1       CD33F     2.48500       11.6110           0  -1.18100       1.10000    
       802 IM1H     41       IM1H     DC1      DRUD     -2.66700      0.400000           0   0.00000       0.00000    
       803 IM1H     41       IM1H     H1       HDA3A    0.135000       1.00800           0   0.00000       0.00000    
       804 IM1H     41       IM1H     H2       HDA3A    0.135000       1.00800           0   0.00000       0.00000    
       805 IM1H     41       IM1H     H3       HDA3A    0.135000       1.00800           0   0.00000       0.00000    
       806 IM1H     41       IM1H     N1       ND2R5C    2.35720       13.6070           0 -0.803000       1.00000    
       807 IM1H     41       IM1H     DN1      DRUD     -2.19920      0.400000           0   0.00000       0.00000    
       808 IM1H     41       IM1H     C2       CD2R5D    2.44700       11.6110           0  -1.08300       1.10000    
       809 IM1H     41       IM1H     DC2      DRUD     -2.55400      0.400000           0   0.00000       0.00000    
       810 IM1H     41       IM1H     H4       HDR5D    0.195000       1.00800           0   0.00000       0.00000    
       811 IM1H     41       IM1H     C3       CD2R5D    2.50700       11.6110           0  -1.08300       1.10000    
       812 IM1H     41       IM1H     DC3      DRUD     -2.55400      0.400000           0   0.00000       0.00000    
       813 IM1H     41       IM1H     H5       HDR5D    0.192000       1.00800           0   0.00000       0.00000    
       814 IM1H     41       IM1H     C4       CD2R5E    2.72410       11.6110           0  -1.25300       1.20000    
       815 IM1H     41       IM1H     DC4      DRUD     -2.74710      0.400000           0   0.00000       0.00000    
       816 IM1H     41       IM1H     H6       HDR5E    0.203000       1.00800           0   0.00000       0.00000    
       817 IM1H     41       IM1H     N2       ND2R5C    2.04220       13.6070           0 -0.803000       1.00000    
       818 IM1H     41       IM1H     DN2      DRUD     -2.19920      0.400000           0   0.00000       0.00000    
       819 IM1H     41       IM1H     H7       HDP1A    0.363000       1.00800           0   0.00000       0.00000    
       820 IM1H     41       IM1H     LPN21    LPD       0.00000       0.00000          -1   0.00000       0.00000    
       821 IM1H     42       IM1H     C1       CD33F     2.48500       11.6110           0  -1.18100       1.10000    
       822 IM1H     42       IM1H     DC1      DRUD     -2.66700      0.400000           0   0.00000       0.00000    
       823 IM1H     42       IM1H     H1       HDA3A    0.135000       1.00800           0   0.00000       0.00000    
       824 IM1H     42       IM1H     H2       HDA3A    0.135000       1.00800           0   0.00000       0.00000    
       825 IM1H     42       IM1H     H3       HDA3A    0.135000       1.00800           0   0.00000       0.00000    
       826 IM1H     42       IM1H     N1       ND2R5C    2.35720       13.6070           0 -0.803000       1.00000    
       827 IM1H     42       IM1H     DN1      DRUD     -2.19920      0.400000           0   0.00000       0.00000    
       828 IM1H     42       IM1H     C2       CD2R5D    2.44700       11.6110           0  -1.08300       1.10000    
       829 IM1H     42       IM1H     DC2      DRUD     -2.55400      0.400000           0   0.00000       0.00000    
       830 IM1H     42       IM1H     H4       HDR5D    0.195000       1.00800           0   0.00000       0.00000    
       831 IM1H     42       IM1H     C3       CD2R5D    2.50700       11.6110           0  -1.08300       1.10000    
       832 IM1H     42       IM1H     DC3      DRUD     -2.55400      0.400000           0   0.00000       0.00000    
       833 IM1H     42       IM1H     H5       HDR5D    0.192000       1.00800           0   0.00000       0.00000    
       834 IM1H     42       IM1H     C4       CD2R5E    2.72410       11.6110           0  -1.25300       1.20000    
       835 IM1H     42       IM1H     DC4      DRUD     -2.74710      0.400000           0   0.00000       0.00000    
       836 IM1H     42       IM1H     H6       HDR5E    0.203000       1.00800           0   0.00000       0.00000    
       837 IM1H     42       IM1H     N2       ND2R5C    2.04220       13.6070           0 -0.803000       1.00000    
       838 IM1H     42       IM1H     DN2      DRUD     -2.19920      0.400000           0   0.00000       0.00000    
       839 IM1H     42       IM1H     H7       HDP1A    0.363000       1.00800           0   0.00000       0.00000    
       840 IM1H     42       IM1H     LPN21    LPD       0.00000       0.00000          -1   0.00000       0.00000    
       841 IM1H     43       IM1H     C1       CD33F     2.48500       11.6110           0  -1.18100       1.10000    
       842 IM1H     43       IM1H     DC1      DRUD     -2.66700      0.400000           0   0.00000       0.00000    
       843 IM1H     43       IM1H     H1       HDA3A    0.135000       1.00800           0   0.00000       0.00000    
       844 IM1H     43       IM1H     H2       HDA3A    0.135000       1.00800           0   0.00000       0.00000    
       845 IM1H     43       IM1H     H3       HDA3A    0.135000       1.00800           0   0.00000       0.00000    
       846 IM1H     43       IM1H     N1       ND2R5C    2.35720       13.6070           0 -0.803000       1.00000    
       847 IM1H     43       IM1H     DN1      DRUD     -2.19920      0.400000           0   0.00000       0.00000    
       848 IM1H     43       IM1H     C2       CD2R5D    2.44700       11.6110           0  -1.08300       1.10000    
       849 IM1H     43       IM1H     DC2      DRUD     -2.55400      0.400000           0   0.00000       0.00000    
       850 IM1H     43       IM1H     H4       HDR5D    0.195000       1.00800           0   0.00000       0.00000    
       851 IM1H     43       IM1H     C3       CD2R5D    2.50700       11.6110           0  -1.08300       1.10000    
       852 IM1H     43       IM1H     DC3      DRUD     -2.55400      0.400000           0   0.00000       0.00000    
       853 IM1H     43       IM1H     H5       HDR5D    0.192000       1.00800           0   0.00000       0.00000    
       854 IM1H     43       IM1H     C4       CD2R5E    2.72410       11.6110           0  -1.25300       1.20000    
       855 IM1H     43       IM1H     DC4      DRUD     -2.74710      0.400000           0   0.00000       0.00000    
       856 IM1H     43       IM1H     H6       HDR5E    0.203000       1.00800           0   0.00000       0.00000    
       857 IM1H     43       IM1H     N2       ND2R5C    2.04220       13.6070           0 -0.803000       1.00000    
       858 IM1H     43       IM1H     DN2      DRUD     -2.19920      0.400000           0   0.00000       0.00000    
       859 IM1H     43       IM1H     H7       HDP1A    0.363000       1.00800           0   0.00000       0.00000    
       860 IM1H     43       IM1H     LPN21    LPD       0.00000       0.00000          -1   0.00000       0.00000    
       861 IM1H     44       IM1H     C1       CD33F     2.48500       11.6110           0  -1.18100       1.10000    
       862 IM1H     44       IM1H     DC1      DRUD     -2.66700      0.400000           0   0.00000       0.00000    
       863 IM1H     44       IM1H     H1       HDA3A    0.135000       1.00800           0   0.00000       0.00000    
       864 IM1H     44       IM1H     H2       HDA3A    0.135000       1.00800           0   0.00000       0.00000    
       865 IM1H     44       IM1H     H3       HDA3A    0.135000       1.00800           0   0.00000       0.00000    
       866 IM1H     44       IM1H     N1       ND2R5C    2.35720       13.6070           0 -0.803000       1.00000    
       867 IM1H     44       IM1H     DN1      DRUD     -2.19920      0.400000           0   0.00000       0.00000    
       868 IM1H     44       IM1H     C2       CD2R5D    2.44700       11.6110           0  -1.08300       1.10000    
       869 IM1H     44       IM1H     DC2      DRUD     -2.55400      0.400000           0   0.00000       0.00000    
       870 IM1H     44       IM1H     H4       HDR5D    0.195000       1.00800           0   0.00000       0.00000    
       871 IM1H     44       IM1H     C3       CD2R5D    2.50700       11.6110           0  -1.08300       1.10000    
       872 IM1H     44       IM1H     DC3      DRUD     -2.55400      0.400000           0   0.00000       0.00000    
       873 IM1H     44       IM1H     H5       HDR5D    0.192000       1.00800           0   0.00000       0.00000    
       874 IM1H     44       IM1H     C4       CD2R5E    2.72410       11.6110           0  -1.25300       1.20000    
       875 IM1H     44       IM1H     DC4      DRUD     -2.74710      0.400000           0   0.00000       0.00000    
       876 IM1H     44       IM1H     H6       HDR5E    0.203000       1.00800           0   0.00000       0.00000    
       877 IM1H     44       IM1H     N2       ND2R5C    2.04220       13.6070           0 -0.803000       1.00000    
       878 IM1H     44       IM1H     DN2      DRUD     -2.19920      0.400000           0   0.00000       0.00000    
       879 IM1H     44       IM1H     H7       HDP1A    0.363000       1.00800           0   0.00000       0.00000    
       880 IM1H     44       IM1H     LPN21    LPD       0.00000       0.00000          -1   0.00000       0.00000    
       881 IM1H     45       IM1H     C1       CD33F     2.48500       11.6110           0  -1.18100       1.10000    
       882 IM1H     45       IM1H     DC1      DRUD     -2.66700      0.400000           0   0.00000       0.00000    
       883 IM1H     45       IM1H     H1       HDA3A    0.135000       1.00800           0   0.00000       0.00000    
       884 IM1H     45       IM1H     H2       HDA3A    0.135000       1.00800           0   0.00000       0.00000    
       885 IM1H     45       IM1H     H3       HDA3A    0.135000       1.00800           0   0.00000       0.00000    
       886 IM1H     45       IM1H     N1       ND2R5C    2.35720       13.6070           0 -0.803000       1.00000    
       887 IM1H     45       IM1H     DN1      DRUD     -2.19920      0.400000           0   0.00000       0.00000    
       888 IM1H     45       IM1H     C2       CD2R5D    2.44700       11.6110           0  -1.08300       1.10000    
       889 IM1H     45       IM1H     DC2      DRUD     -2.55400      0.400000           0   0.00000       0.00000    
       890 IM1H     45       IM1H     H4       HDR5D    0.195000       1.00800           0   0.00000       0.00000    
       891 IM1H     45       IM1H     C3       CD2R5D    2.50700       11.6110           0  -1.08300       1.10000    
       892 IM1H     45       IM1H     DC3      DRUD     -2.55400      0.400000           0   0.00000       0.00000    
       893 IM1H     45       IM1H     H5       HDR5D    0.192000       1.00800           0   0.00000       0.00000    
       894 IM1H     45       IM1H     C4       CD2R5E    2.72410       11.6110           0  -1.25300       1.20000    
       895 IM1H     45       IM1H     DC4      DRUD     -2.74710      0.400000           0   0.00000       0.00000    
       896 IM1H     45       IM1H     H6       HDR5E    0.203000       1.00800           0   0.00000       0.00000    
       897 IM1H     45       IM1H     N2       ND2R5C    2.04220       13.6070           0 -0.803000       1.00000    
       898 IM1H     45       IM1H     DN2      DRUD     -2.19920      0.400000           0   0.00000       0.00000    
       899 IM1H     45       IM1H     H7       HDP1A    0.363000       1.00800           0   0.00000       0.00000    
       900 IM1H     45       IM1H     LPN21    LPD       0.00000       0.00000          -1   0.00000       0.00000    
       901 IM1H     46       IM1H     C1       CD33F     2.48500       11.6110           0  -1.18100       1.10000    
       902 IM1H     46       IM1H     DC1      DRUD     -2.66700      0.400000           0   0.00000       0.00000    
       903 IM1H     46       IM1H     H1       HDA3A    0.135000       1.00800           0   0.00000       0.00000    
       904 IM1H     46       IM1H     H2       HDA3A    0.135000       1.00800           0   0.00000       0.00000    
       905 IM1H     46       IM1H     H3       HDA3A    0.135000       1.00800           0   0.00000       0.00000    
       906 IM1H     46       IM1H     N1       ND2R5C    2.35720       13.6070           0 -0.803000       1.00000    
       907 IM1H     46       IM1H     DN1      DRUD     -2.19920      0.400000           0   0.00000       0.00000    
       908 IM1H     46       IM1H     C2       CD2R5D    2.44700       11.6110           0  -1.08300       1.10000    
       909 IM1H     46       IM1H     DC2      DRUD     -2.55400      0.400000           0   0.00000       0.00000    
       910 IM1H     46       IM1H     H4       HDR5D    0.195000       1.00800           0   0.00000       0.00000    
       911 IM1H     46       IM1H     C3       CD2R5D    2.50700       11.6110           0  -1.08300       1.10000    
       912 IM1H     46       IM1H     DC3      DRUD     -2.55400      0.400000           0   0.00000       0.00000    
       913 IM1H     46       IM1H     H5       HDR5D    0.192000       1.00800           0   0.00000       0.00000    
       914 IM1H     46       IM1H     C4       CD2R5E    2.72410       11.6110           0  -1.25300       1.20000    
       915 IM1H     46       IM1H     DC4      DRUD     -2.74710      0.400000           0   0.00000       0.00000    
       916 IM1H     46       IM1H     H6       HDR5E    0.203000       1.00800           0   0.00000       0.00000    
       917 IM1H     46       IM1H     N2       ND2R5C    2.04220       13.6070           0 -0.803000       1.00000    
       918 IM1H     46       IM1H     DN2      DRUD     -2.19920      0.400000           0   0.00000       0.00000    
       919 IM1H     46       IM1H     H7       HDP1A    0.363000       1.00800           0   0.00000       0.00000    
       920 IM1H     46       IM1H     LPN21    LPD       0.00000       0.00000          -1   0.00000       0.00000    
       921 IM1H     47       IM1H     C1       CD33F     2.48500       11.6110           0  -1.18100       1.10000    
       922 IM1H     47       IM1H     DC1      DRUD     -2.66700      0.400000           0   0.00000       0.00000    
       923 IM1H     47       IM1H     H1       HDA3A    0.135000       1.00800           0   0.00000       0.00000    
       924 IM1H     47       IM1H     H2       HDA3A    0.135000       1.00800           0   0.00000       0.00000    
       925 IM1H     47       IM1H     H3       HDA3A    0.135000       1.00800           0   0.00000       0.00000    
       926 IM1H     47       IM1H     N1       ND2R5C    2.35720       13.6070           0 -0.803000       1.00000    
       927 IM1H     47       IM1H     DN1      DRUD     -2.19920      0.400000           0   0.00000       0.00000    
       928 IM1H     47       IM1H     C2       CD2R5D    2.44700       11.6110           0  -1.08300       1.10000    
       929 IM1H     47       IM1H     DC2      DRUD     -2.55400      0.400000           0   0.00000       0.00000    
       930 IM1H     47       IM1H     H4       HDR5D    0.195000       1.00800           0   0.00000       0.00000    
       931 IM1H     47       IM1H     C3       CD2R5D    2.50700       11.6110           0  -1.08300       1.10000    
       932 IM1H     47       IM1H     DC3      DRUD     -2.55400      0.400000           0   0.00000       0.00000    
       933 IM1H     47       IM1H     H5       HDR5D    0.192000       1.00800           0   0.00000       0.00000    
       934 IM1H     47       IM1H     C4       CD2R5E    2.72410       11.6110           0  -1.25300       1.20000    
       935 IM1H     47       IM1H     DC4      DRUD     -2.74710      0.400000           0   0.00000       0.00000    
       936 IM1H     47       IM1H     H6       HDR5E    0.203000       1.00800           0   0.00000       0.00000    
       937 IM1H     47       IM1H     N2       ND2R5C    2.04220       13.6070           0 -0.803000       1.00000    
       938 IM1H     47       IM1H     DN2      DRUD     -2.19920      0.400000           0   0.00000       0.00000    
       939 IM1H     47       IM1H     H7       HDP1A    0.363000       1.00800           0   0.00000       0.00000    
       940 IM1H     47       IM1H     LPN21    LPD       0.00000       0.00000          -1   0.00000       0.00000    
       941 IM1H     48       IM1H     C1       CD33F     2.48500       11.6110           0  -1.18100       1.10000    
       942 IM1H     48       IM1H     DC1      DRUD     -2.66700      0.400000           0   0.00000       0.00000    
       943 IM1H     48       IM1H     H1       HDA3A    0.135000       1.00800           0   0.00000       0.00000    
       944 IM1H     48       IM1H     H2       HDA3A    0.135000       1.00800           0   0.00000       0.00000    
       945 IM1H     48       IM1H     H3       HDA3A    0.135000       1.00800           0   0.00000       0.00000    
       946 IM1H     48       IM1H     N1       ND2R5C    2.35720       13.6070           0 -0.803000       1.00000    
       947 IM1H     48       IM1H     DN1      DRUD     -2.19920      0.400000           0   0.00000       0.00000    
       948 IM1H     48       IM1H     C2       CD2R5D    2.44700       11.6110           0  -1.08300       1.10000    
       949 IM1H     48       IM1H     DC2      DRUD     -2.55400      0.400000           0   0.00000       0.00000    
       950 IM1H     48       IM1H     H4       HDR5D    0.195000       1.00800           0   0.00000       0.00000    
       951 IM1H     48       IM1H     C3       CD2R5D    2.50700       11.6110           0  -1.08300       1.10000    
       952 IM1H     48       IM1H     DC3      DRUD     -2.55400      0.400000           0   0.00000       0.00000    
       953 IM1H     48       IM1H     H5       HDR5D    0.192000       1.00800           0   0.00000       0.00000    
       954 IM1H     48       IM1H     C4       CD2R5E    2.72410       11.6110           0  -1.25300       1.20000    
       955 IM1H     48       IM1H     DC4      DRUD     -2.74710      0.400000           0   0.00000       0.00000    
       956 IM1H     48       IM1H     H6       HDR5E    0.203000       1.00800           0   0.00000       0.00000    
       957 IM1H     48       IM1H     N2       ND2R5C    2.04220       13.6070           0 -0.803000       1.00000    
       958 IM1H     48       IM1H     DN2      DRUD     -2.19920      0.400000           0   0.00000       0.00000    
       959 IM1H     48       IM1H     H7       HDP1A    0.363000       1.00800           0   0.00000       0.00000    
       960 IM1H     48       IM1H     LPN21    LPD       0.00000       0.00000          -1   0.00000       0.00000    
       961 IM1H     49       IM1H     C1       CD33F     2.48500       11.6110           0  -1.18100       1.10000    
       962 IM1H     49       IM1H     DC1      DRUD     -2.66700      0.400000           0   0.00000       0.00000    
       963 IM1H     49       IM1H     H1       HDA3A    0.135000       1.00800           0   0.00000       0.00000    
       964 IM1H     49       IM1H     H2       HDA3A    0.135000       1.00800           0   0.00000       0.00000    
       965 IM1H     49       IM1H     H3       HDA3A    0.135000       1.00800           0   0.00000       0.00000    
       966 IM1H     49       IM1H     N1       ND2R5C    2.35720       13.6070           0 -0.803000       1.00000    
       967 IM1H     49       IM1H     DN1      DRUD     -2.19920      0.400000           0   0.00000       0.00000    
       968 IM1H     49       IM1H     C2       CD2R5D    2.44700       11.6110           0  -1.08300       1.10000    
       969 IM1H     49       IM1H     DC2      DRUD     -2.55400      0.400000           0   0.00000       0.00000    
       970 IM1H     49       IM1H     H4       HDR5D    0.195000       1.00800           0   0.00000       0.00000    
       971 IM1H     49       IM1H     C3       CD2R5D    2.50700       11.6110           0  -1.08300       1.10000    
       972 IM1H     49       IM1H     DC3      DRUD     -2.55400      0.400000           0   0.00000       0.00000    
       973 IM1H     49       IM1H     H5       HDR5D    0.192000       1.00800           0   0.00000       0.00000    
       974 IM1H     49       IM1H     C4       CD2R5E    2.72410       11.6110           0  -1.25300       1.20000    
       975 IM1H     49       IM1H     DC4      DRUD     -2.74710      0.400000           0   0.00000       0.00000    
       976 IM1H     49       IM1H     H6       HDR5E    0.203000       1.00800           0   0.00000       0.00000    
       977 IM1H     49       IM1H     N2       ND2R5C    2.04220       13.6070           0 -0.803000       1.00000    
       978 IM1H     49       IM1H     DN2      DRUD     -2.19920      0.400000           0   0.00000       0.00000    
       979 IM1H     49       IM1H     H7       HDP1A    0.363000       1.00800           0   0.00000       0.00000    
       980 IM1H     49       IM1H     LPN21    LPD       0.00000       0.00000          -1   0.00000       0.00000    
       981 IM1H     50       IM1H     C1       CD33F     2.48500       11.6110           0  -1.18100       1.10000    
       982 IM1H     50       IM1H     DC1      DRUD     -2.66700      0.400000           0   0.00000       0.00000    
       983 IM1H     50       IM1H     H1       HDA3A    0.135000       1.00800           0   0.00000       0.00000    
       984 IM1H     50       IM1H     H2       HDA3A    0.135000       1.00800           0   0.00000       0.00000    
       985 IM1H     50       IM1H     H3       HDA3A    0.135000       1.00800           0   0.00000       0.00000    
       986 IM1H     50       IM1H     N1       ND2R5C    2.35720       13.6070           0 -0.803000       1.00000    
       987 IM1H     50       IM1H     DN1      DRUD     -2.19920      0.400000           0   0.00000       0.00000    
       988 IM1H     50       IM1H     C2       CD2R5D    2.44700       11.6110           0  -1.08300       1.10000    
       989 IM1H     50       IM1H     DC2      DRUD     -2.55400      0.400000           0   0.00000       0.00000    
       990 IM1H     50       IM1H     H4       HDR5D    0.195000       1.00800           0   0.00000       0.00000    
       991 IM1H     50       IM1H     C3       CD2R5D    2.50700       11.6110           0  -1.08300       1.10000    
       992 IM1H     50       IM1H     DC3      DRUD     -2.55400      0.400000           0   0.00000       0.00000    
       993 IM1H     50       IM1H     H5       HDR5D    0.192000       1.00800           0   0.00000       0.00000    
       994 IM1H     50       IM1H     C4       CD2R5E    2.72410       11.6110           0  -1.25300       1.20000    
       995 IM1H     50       IM1H     DC4      DRUD     -2.74710      0.400000           0   0.00000       0.00000    
       996 IM1H     50       IM1H     H6       HDR5E    0.203000       1.00800           0   0.00000       0.00000    
       997 IM1H     50       IM1H     N2       ND2R5C    2.04220       13.6070           0 -0.803000       1.00000    
       998 IM1H     50       IM1H     DN2      DRUD     -2.19920      0.400000           0   0.00000       0.00000    
       999 IM1H     50       IM1H     H7       HDP1A    0.363000       1.00800           0   0.00000       0.00000    
      1000 IM1H     50       IM1H     LPN21    LPD       0.00000       0.00000          -1   0.00000       0.00000    
      1001 IM1H     51       IM1H     C1       CD33F     2.48500       11.6110           0  -1.18100       1.10000    
      1002 IM1H     51       IM1H     DC1      DRUD     -2.66700      0.400000           0   0.00000       0.00000    
      1003 IM1H     51       IM1H     H1       HDA3A    0.135000       1.00800           0   0.00000       0.00000    
      1004 IM1H     51       IM1H     H2       HDA3A    0.135000       1.00800           0   0.00000       0.00000    
      1005 IM1H     51       IM1H     H3       HDA3A    0.135000       1.00800           0   0.00000       0.00000    
      1006 IM1H     51       IM1H     N1       ND2R5C    2.35720       13.6070           0 -0.803000       1.00000    
      1007 IM1H     51       IM1H     DN1      DRUD     -2.19920      0.400000           0   0.00000       0.00000    
      1008 IM1H     51       IM1H     C2       CD2R5D    2.44700       11.6110           0  -1.08300       1.10000    
      1009 IM1H     51       IM1H     DC2      DRUD     -2.55400      0.400000           0   0.00000       0.00000    
      1010 IM1H     51       IM1H     H4       HDR5D    0.195000       1.00800           0   0.00000       0.00000    
      1011 IM1H     51       IM1H     C3       CD2R5D    2.50700       11.6110           0  -1.08300       1.10000    
      1012 IM1H     51       IM1H     DC3      DRUD     -2.55400      0.400000           0   0.00000       0.00000    
      1013 IM1H     51       IM1H     H5       HDR5D    0.192000       1.00800           0   0.00000       0.00000    
      1014 IM1H     51       IM1H     C4       CD2R5E    2.72410       11.6110           0  -1.25300       1.20000    
      1015 IM1H     51       IM1H     DC4      DRUD     -2.74710      0.400000           0   0.00000       0.00000    
      1016 IM1H     51       IM1H     H6       HDR5E    0.203000       1.00800           0   0.00000       0.00000    
      1017 IM1H     51       IM1H     N2       ND2R5C    2.04220       13.6070           0 -0.803000       1.00000    
      1018 IM1H     51       IM1H     DN2      DRUD     -2.19920      0.400000           0   0.00000       0.00000    
      1019 IM1H     51       IM1H     H7       HDP1A    0.363000       1.00800           0   0.00000       0.00000    
      1020 IM1H     51       IM1H     LPN21    LPD       0.00000       0.00000          -1   0.00000       0.00000    
      1021 IM1H     52       IM1H     C1       CD33F     2.48500       11.6110           0  -1.18100       1.10000    
      1022 IM1H     52       IM1H     DC1      DRUD     -2.66700      0.400000           0   0.00000       0.00000    
      1023 IM1H     52       IM1H     H1       HDA3A    0.135000       1.00800           0   0.00000       0.00000    
      1024 IM1H     52       IM1H     H2       HDA3A    0.135000       1.00800           0   0.00000       0.00000    
      1025 IM1H     52       IM1H     H3       HDA3A    0.135000       1.00800           0   0.00000       0.00000    
      1026 IM1H     52       IM1H     N1       ND2R5C    2.35720       13.6070           0 -0.803000       1.00000    
      1027 IM1H     52       IM1H     DN1      DRUD     -2.19920      0.400000           0   0.00000       0.00000    
      1028 IM1H     52       IM1H     C2       CD2R5D    2.44700       11.6110           0  -1.08300       1.10000    
      1029 IM1H     52       IM1H     DC2      DRUD     -2.55400      0.400000           0   0.00000       0.00000    
      1030 IM1H     52       IM1H     H4       HDR5D    0.195000       1.00800           0   0.00000       0.00000    
      1031 IM1H     52       IM1H     C3       CD2R5D    2.50700       11.6110           0  -1.08300       1.10000    
      1032 IM1H     52       IM1H     DC3      DRUD     -2.55400      0.400000           0   0.00000       0.00000    
      1033 IM1H     52       IM1H     H5       HDR5D    0.192000       1.00800           0   0.00000       0.00000    
      1034 IM1H     52       IM1H     C4       CD2R5E    2.72410       11.6110           0  -1.25300       1.20000    
      1035 IM1H     52       IM1H     DC4      DRUD     -2.74710      0.400000           0   0.00000       0.00000    
      1036 IM1H     52       IM1H     H6       HDR5E    0.203000       1.00800           0   0.00000       0.00000    
      1037 IM1H     52       IM1H     N2       ND2R5C    2.04220       13.6070           0 -0.803000       1.00000    
      1038 IM1H     52       IM1H     DN2      DRUD     -2.19920      0.400000           0   0.00000       0.00000    
      1039 IM1H     52       IM1H     H7       HDP1A    0.363000       1.00800           0   0.00000       0.00000    
      1040 IM1H     52       IM1H     LPN21    LPD       0.00000       0.00000          -1   0.00000       0.00000    
      1041 IM1H     53       IM1H     C1       CD33F     2.48500       11.6110           0  -1.18100       1.10000    
      1042 IM1H     53       IM1H     DC1      DRUD     -2.66700      0.400000           0   0.00000       0.00000    
      1043 IM1H     53       IM1H     H1       HDA3A    0.135000       1.00800           0   0.00000       0.00000    
      1044 IM1H     53       IM1H     H2       HDA3A    0.135000       1.00800           0   0.00000       0.00000    
      1045 IM1H     53       IM1H     H3       HDA3A    0.135000       1.00800           0   0.00000       0.00000    
      1046 IM1H     53       IM1H     N1       ND2R5C    2.35720       13.6070           0 -0.803000       1.00000    
      1047 IM1H     53       IM1H     DN1      DRUD     -2.19920      0.400000           0   0.00000       0.00000    
      1048 IM1H     53       IM1H     C2       CD2R5D    2.44700       11.6110           0  -1.08300       1.10000    
      1049 IM1H     53       IM1H     DC2      DRUD     -2.55400      0.400000           0   0.00000       0.00000    
      1050 IM1H     53       IM1H     H4       HDR5D    0.195000       1.00800           0   0.00000       0.00000    
      1051 IM1H     53       IM1H     C3       CD2R5D    2.50700       11.6110           0  -1.08300       1.10000    
      1052 IM1H     53       IM1H     DC3      DRUD     -2.55400      0.400000           0   0.00000       0.00000    
      1053 IM1H     53       IM1H     H5       HDR5D    0.192000       1.00800           0   0.00000       0.00000    
      1054 IM1H     53       IM1H     C4       CD2R5E    2.72410       11.6110           0  -1.25300       1.20000    
      1055 IM1H     53       IM1H     DC4      DRUD     -2.74710      0.400000           0   0.00000       0.00000    
      1056 IM1H     53       IM1H     H6       HDR5E    0.203000       1.00800           0   0.00000       0.00000    
      1057 IM1H     53       IM1H     N2       ND2R5C    2.04220       13.6070           0 -0.803000       1.00000    
      1058 IM1H     53       IM1H     DN2      DRUD     -2.19920      0.400000           0   0.00000       0.00000    
      1059 IM1H     53       IM1H     H7       HDP1A    0.363000       1.00800           0   0.00000       0.00000    
      1060 IM1H     53       IM1H     LPN21    LPD       0.00000       0.00000          -1   0.00000       0.00000    
      1061 IM1H     54       IM1H     C1       CD33F     2.48500       11.6110           0  -1.18100       1.10000    
      1062 IM1H     54       IM1H     DC1      DRUD     -2.66700      0.400000           0   0.00000       0.00000    
      1063 IM1H     54       IM1H     H1       HDA3A    0.135000       1.00800           0   0.00000       0.00000    
      1064 IM1H     54       IM1H     H2       HDA3A    0.135000       1.00800           0   0.00000       0.00000    
      1065 IM1H     54       IM1H     H3       HDA3A    0.135000       1.00800           0   0.00000       0.00000    
      1066 IM1H     54       IM1H     N1       ND2R5C    2.35720       13.6070           0 -0.803000       1.00000    
      1067 IM1H     54       IM1H     DN1      DRUD     -2.19920      0.400000           0   0.00000       0.00000    
      1068 IM1H     54       IM1H     C2       CD2R5D    2.44700       11.6110           0  -1.08300       1.10000    
      1069 IM1H     54       IM1H     DC2      DRUD     -2.55400      0.400000           0   0.00000       0.00000    
      1070 IM1H     54       IM1H     H4       HDR5D    0.195000       1.00800           0   0.00000       0.00000    
      1071 IM1H     54       IM1H     C3       CD2R5D    2.50700       11.6110           0  -1.08300       1.10000    
      1072 IM1H     54       IM1H     DC3      DRUD     -2.55400      0.400000           0   0.00000       0.00000    
      1073 IM1H     54       IM1H     H5       HDR5D    0.192000       1.00800           0   0.00000       0.00000    
      1074 IM1H     54       IM1H     C4       CD2R5E    2.72410       11.6110           0  -1.25300       1.20000    
      1075 IM1H     54       IM1H     DC4      DRUD     -2.74710      0.400000           0   0.00000       0.00000    
      1076 IM1H     54       IM1H     H6       HDR5E    0.203000       1.00800           0   0.00000       0.00000    
      1077 IM1H     54       IM1H     N2       ND2R5C    2.04220       13.6070           0 -0.803000       1.00000    
      1078 IM1H     54       IM1H     DN2      DRUD     -2.19920      0.400000           0   0.00000       0.00000    
      1079 IM1H     54       IM1H     H7       HDP1A    0.363000       1.00800           0   0.00000       0.00000    
      1080 IM1H     54       IM1H     LPN21    LPD       0.00000       0.00000          -1   0.00000       0.00000    
      1081 IM1H     55       IM1H     C1       CD33F     2.48500       11.6110           0  -1.18100       1.10000    
      1082 IM1H     55       IM1H     DC1      DRUD     -2.66700      0.400000           0   0.00000       0.00000    
      1083 IM1H     55       IM1H     H1       HDA3A    0.135000       1.00800           0   0.00000       0.00000    
      1084 IM1H     55       IM1H     H2       HDA3A    0.135000       1.00800           0   0.00000       0.00000    
      1085 IM1H     55       IM1H     H3       HDA3A    0.135000       1.00800           0   0.00000       0.00000    
      1086 IM1H     55       IM1H     N1       ND2R5C    2.35720       13.6070           0 -0.803000       1.00000    
      1087 IM1H     55       IM1H     DN1      DRUD     -2.19920      0.400000           0   0.00000       0.00000    
      1088 IM1H     55       IM1H     C2       CD2R5D    2.44700       11.6110           0  -1.08300       1.10000    
      1089 IM1H     55       IM1H     DC2      DRUD     -2.55400      0.400000           0   0.00000       0.00000    
      1090 IM1H     55       IM1H     H4       HDR5D    0.195000       1.00800           0   0.00000       0.00000    
      1091 IM1H     55       IM1H     C3       CD2R5D    2.50700       11.6110           0  -1.08300       1.10000    
      1092 IM1H     55       IM1H     DC3      DRUD     -2.55400      0.400000           0   0.00000       0.00000    
      1093 IM1H     55       IM1H     H5       HDR5D    0.192000       1.00800           0   0.00000       0.00000    
      1094 IM1H     55       IM1H     C4       CD2R5E    2.72410       11.6110           0  -1.25300       1.20000    
      1095 IM1H     55       IM1H     DC4      DRUD     -2.74710      0.400000           0   0.00000       0.00000    
      1096 IM1H     55       IM1H     H6       HDR5E    0.203000       1.00800           0   0.00000       0.00000    
      1097 IM1H     55       IM1H     N2       ND2R5C    2.04220       13.6070           0 -0.803000       1.00000    
      1098 IM1H     55       IM1H     DN2      DRUD     -2.19920      0.400000           0   0.00000       0.00000    
      1099 IM1H     55       IM1H     H7       HDP1A    0.363000       1.00800           0   0.00000       0.00000    
      1100 IM1H     55       IM1H     LPN21    LPD       0.00000       0.00000          -1   0.00000       0.00000    
      1101 IM1H     56       IM1H     C1       CD33F     2.48500       11.6110           0  -1.18100       1.10000    
      1102 IM1H     56       IM1H     DC1      DRUD     -2.66700      0.400000           0   0.00000       0.00000    
      1103 IM1H     56       IM1H     H1       HDA3A    0.135000       1.00800           0   0.00000       0.00000    
      1104 IM1H     56       IM1H     H2       HDA3A    0.135000       1.00800           0   0.00000       0.00000    
      1105 IM1H     56       IM1H     H3       HDA3A    0.135000       1.00800           0   0.00000       0.00000    
      1106 IM1H     56       IM1H     N1       ND2R5C    2.35720       13.6070           0 -0.803000       1.00000    
      1107 IM1H     56       IM1H     DN1      DRUD     -2.19920      0.400000           0   0.00000       0.00000    
      1108 IM1H     56       IM1H     C2       CD2R5D    2.44700       11.6110           0  -1.08300       1.10000    
      1109 IM1H     56       IM1H     DC2      DRUD     -2.55400      0.400000           0   0.00000       0.00000    
      1110 IM1H     56       IM1H     H4       HDR5D    0.195000       1.00800           0   0.00000       0.00000    
      1111 IM1H     56       IM1H     C3       CD2R5D    2.50700       11.6110           0  -1.08300       1.10000    
      1112 IM1H     56       IM1H     DC3      DRUD     -2.55400      0.400000           0   0.00000       0.00000    
      1113 IM1H     56       IM1H     H5       HDR5D    0.192000       1.00800           0   0.00000       0.00000    
      1114 IM1H     56       IM1H     C4       CD2R5E    2.72410       11.6110           0  -1.25300       1.20000    
      1115 IM1H     56       IM1H     DC4      DRUD     -2.74710      0.400000           0   0.00000       0.00000    
      1116 IM1H     56       IM1H     H6       HDR5E    0.203000       1.00800           0   0.00000       0.00000    
      1117 IM1H     56       IM1H     N2       ND2R5C    2.04220       13.6070           0 -0.803000       1.00000    
      1118 IM1H     56       IM1H     DN2      DRUD     -2.19920      0.400000           0   0.00000       0.00000    
      1119 IM1H     56       IM1H     H7       HDP1A    0.363000       1.00800           0   0.00000       0.00000    
      1120 IM1H     56       IM1H     LPN21    LPD       0.00000       0.00000          -1   0.00000       0.00000    
      1121 IM1H     57       IM1H     C1       CD33F     2.48500       11.6110           0  -1.18100       1.10000    
      1122 IM1H     57       IM1H     DC1      DRUD     -2.66700      0.400000           0   0.00000       0.00000    
      1123 IM1H     57       IM1H     H1       HDA3A    0.135000       1.00800           0   0.00000       0.00000    
      1124 IM1H     57       IM1H     H2       HDA3A    0.135000       1.00800           0   0.00000       0.00000    
      1125 IM1H     57       IM1H     H3       HDA3A    0.135000       1.00800           0   0.00000       0.00000    
      1126 IM1H     57       IM1H     N1       ND2R5C    2.35720       13.6070           0 -0.803000       1.00000    
      1127 IM1H     57       IM1H     DN1      DRUD     -2.19920      0.400000           0   0.00000       0.00000    
      1128 IM1H     57       IM1H     C2       CD2R5D    2.44700       11.6110           0  -1.08300       1.10000    
      1129 IM1H     57       IM1H     DC2      DRUD     -2.55400      0.400000           0   0.00000       0.00000    
      1130 IM1H     57       IM1H     H4       HDR5D    0.195000       1.00800           0   0.00000       0.00000    
      1131 IM1H     57       IM1H     C3       CD2R5D    2.50700       11.6110           0  -1.08300       1.10000    
      1132 IM1H     57       IM1H     DC3      DRUD     -2.55400      0.400000           0   0.00000       0.00000    
      1133 IM1H     57       IM1H     H5       HDR5D    0.192000       1.00800           0   0.00000       0.00000    
      1134 IM1H     57       IM1H     C4       CD2R5E    2.72410       11.6110           0  -1.25300       1.20000    
      1135 IM1H     57       IM1H     DC4      DRUD     -2.74710      0.400000           0   0.00000       0.00000    
      1136 IM1H     57       IM1H     H6       HDR5E    0.203000       1.00800           0   0.00000       0.00000    
      1137 IM1H     57       IM1H     N2       ND2R5C    2.04220       13.6070           0 -0.803000       1.00000    
      1138 IM1H     57       IM1H     DN2      DRUD     -2.19920      0.400000           0   0.00000       0.00000    
      1139 IM1H     57       IM1H     H7       HDP1A    0.363000       1.00800           0   0.00000       0.00000    
      1140 IM1H     57       IM1H     LPN21    LPD       0.00000       0.00000          -1   0.00000       0.00000    
      1141 IM1H     58       IM1H     C1       CD33F     2.48500       11.6110           0  -1.18100       1.10000    
      1142 IM1H     58       IM1H     DC1      DRUD     -2.66700      0.400000           0   0.00000       0.00000    
      1143 IM1H     58       IM1H     H1       HDA3A    0.135000       1.00800           0   0.00000       0.00000    
      1144 IM1H     58       IM1H     H2       HDA3A    0.135000       1.00800           0   0.00000       0.00000    
      1145 IM1H     58       IM1H     H3       HDA3A    0.135000       1.00800           0   0.00000       0.00000    
      1146 IM1H     58       IM1H     N1       ND2R5C    2.35720       13.6070           0 -0.803000       1.00000    
      1147 IM1H     58       IM1H     DN1      DRUD     -2.19920      0.400000           0   0.00000       0.00000    
      1148 IM1H     58       IM1H     C2       CD2R5D    2.44700       11.6110           0  -1.08300       1.10000    
      1149 IM1H     58       IM1H     DC2      DRUD     -2.55400      0.400000           0   0.00000       0.00000    
      1150 IM1H     58       IM1H     H4       HDR5D    0.195000       1.00800           0   0.00000       0.00000    
      1151 IM1H     58       IM1H     C3       CD2R5D    2.50700       11.6110           0  -1.08300       1.10000    
      1152 IM1H     58       IM1H     DC3      DRUD     -2.55400      0.400000           0   0.00000       0.00000    
      1153 IM1H     58       IM1H     H5       HDR5D    0.192000       1.00800           0   0.00000       0.00000    
      1154 IM1H     58       IM1H     C4       CD2R5E    2.72410       11.6110           0  -1.25300       1.20000    
      1155 IM1H     58       IM1H     DC4      DRUD     -2.74710      0.400000           0   0.00000       0.00000    
      1156 IM1H     58       IM1H     H6       HDR5E    0.203000       1.00800           0   0.00000       0.00000    
      1157 IM1H     58       IM1H     N2       ND2R5C    2.04220       13.6070           0 -0.803000       1.00000    
      1158 IM1H     58       IM1H     DN2      DRUD     -2.19920      0.400000           0   0.00000       0.00000    
      1159 IM1H     58       IM1H     H7       HDP1A    0.363000       1.00800           0   0.00000       0.00000    
      1160 IM1H     58       IM1H     LPN21    LPD       0.00000       0.00000          -1   0.00000       0.00000    
      1161 IM1H     59       IM1H     C1       CD33F     2.48500       11.6110           0  -1.18100       1.10000    
      1162 IM1H     59       IM1H     DC1      DRUD     -2.66700      0.400000           0   0.00000       0.00000    
      1163 IM1H     59       IM1H     H1       HDA3A    0.135000       1.00800           0   0.00000       0.00000    
      1164 IM1H     59       IM1H     H2       HDA3A    0.135000       1.00800           0   0.00000       0.00000    
      1165 IM1H     59       IM1H     H3       HDA3A    0.135000       1.00800           0   0.00000       0.00000    
      1166 IM1H     59       IM1H     N1       ND2R5C    2.35720       13.6070           0 -0.803000       1.00000    
      1167 IM1H     59       IM1H     DN1      DRUD     -2.19920      0.400000           0   0.00000       0.00000    
      1168 IM1H     59       IM1H     C2       CD2R5D    2.44700       11.6110           0  -1.08300       1.10000    
      1169 IM1H     59       IM1H     DC2      DRUD     -2.55400      0.400000           0   0.00000       0.00000    
      1170 IM1H     59       IM1H     H4       HDR5D    0.195000       1.00800           0   0.00000       0.00000    
      1171 IM1H     59       IM1H     C3       CD2R5D    2.50700       11.6110           0  -1.08300       1.10000    
      1172 IM1H     59       IM1H     DC3      DRUD     -2.55400      0.400000           0   0.00000       0.00000    
      1173 IM1H     59       IM1H     H5       HDR5D    0.192000       1.00800           0   0.00000       0.00000    
      1174 IM1H     59       IM1H     C4       CD2R5E    2.72410       11.6110           0  -1.25300       1.20000    
      1175 IM1H     59       IM1H     DC4      DRUD     -2.74710      0.400000           0   0.00000       0.00000    
      1176 IM1H     59       IM1H     H6       HDR5E    0.203000       1.00800           0   0.00000       0.00000    
      1177 IM1H     59       IM1H     N2       ND2R5C    2.04220       13.6070           0 -0.803000       1.00000    
      1178 IM1H     59       IM1H     DN2      DRUD     -2.19920      0.400000           0   0.00000       0.00000    
      1179 IM1H     59       IM1H     H7       HDP1A    0.363000       1.00800           0   0.00000       0.00000    
      1180 IM1H     59       IM1H     LPN21    LPD       0.00000       0.00000          -1   0.00000       0.00000    
      1181 IM1H     60       IM1H     C1       CD33F     2.48500       11.6110           0  -1.18100       1.10000    
      1182 IM1H     60       IM1H     DC1      DRUD     -2.66700      0.400000           0   0.00000       0.00000    
      1183 IM1H     60       IM1H     H1       HDA3A    0.135000       1.00800           0   0.00000       0.00000    
      1184 IM1H     60       IM1H     H2       HDA3A    0.135000       1.00800           0   0.00000       0.00000    
      1185 IM1H     60       IM1H     H3       HDA3A    0.135000       1.00800           0   0.00000       0.00000    
      1186 IM1H     60       IM1H     N1       ND2R5C    2.35720       13.6070           0 -0.803000       1.00000    
      1187 IM1H     60       IM1H     DN1      DRUD     -2.19920      0.400000           0   0.00000       0.00000    
      1188 IM1H     60       IM1H     C2       CD2R5D    2.44700       11.6110           0  -1.08300       1.10000    
      1189 IM1H     60       IM1H     DC2      DRUD     -2.55400      0.400000           0   0.00000       0.00000    
      1190 IM1H     60       IM1H     H4       HDR5D    0.195000       1.00800           0   0.00000       0.00000    
      1191 IM1H     60       IM1H     C3       CD2R5D    2.50700       11.6110           0  -1.08300       1.10000    
      1192 IM1H     60       IM1H     DC3      DRUD     -2.55400      0.400000           0   0.00000       0.00000    
      1193 IM1H     60       IM1H     H5       HDR5D    0.192000       1.00800           0   0.00000       0.00000    
      1194 IM1H     60       IM1H     C4       CD2R5E    2.72410       11.6110           0  -1.25300       1.20000    
      1195 IM1H     60       IM1H     DC4      DRUD     -2.74710      0.400000           0   0.00000       0.00000    
      1196 IM1H     60       IM1H     H6       HDR5E    0.203000       1.00800           0   0.00000       0.00000    
      1197 IM1H     60       IM1H     N2       ND2R5C    2.04220       13.6070           0 -0.803000       1.00000    
      1198 IM1H     60       IM1H     DN2      DRUD     -2.19920      0.400000           0   0.00000       0.00000    
      1199 IM1H     60       IM1H     H7       HDP1A    0.363000       1.00800           0   0.00000       0.00000    
      1200 IM1H     60       IM1H     LPN21    LPD       0.00000       0.00000          -1   0.00000       0.00000    
      1201 IM1H     61       IM1H     C1       CD33F     2.48500       11.6110           0  -1.18100       1.10000    
      1202 IM1H     61       IM1H     DC1      DRUD     -2.66700      0.400000           0   0.00000       0.00000    
      1203 IM1H     61       IM1H     H1       HDA3A    0.135000       1.00800           0   0.00000       0.00000    
      1204 IM1H     61       IM1H     H2       HDA3A    0.135000       1.00800           0   0.00000       0.00000    
      1205 IM1H     61       IM1H     H3       HDA3A    0.135000       1.00800           0   0.00000       0.00000    
      1206 IM1H     61       IM1H     N1       ND2R5C    2.35720       13.6070           0 -0.803000       1.00000    
      1207 IM1H     61       IM1H     DN1      DRUD     -2.19920      0.400000           0   0.00000       0.00000    
      1208 IM1H     61       IM1H     C2       CD2R5D    2.44700       11.6110           0  -1.08300       1.10000    
      1209 IM1H     61       IM1H     DC2      DRUD     -2.55400      0.400000           0   0.00000       0.00000    
      1210 IM1H     61       IM1H     H4       HDR5D    0.195000       1.00800           0   0.00000       0.00000    
      1211 IM1H     61       IM1H     C3       CD2R5D    2.50700       11.6110           0  -1.08300       1.10000    
      1212 IM1H     61       IM1H     DC3      DRUD     -2.55400      0.400000           0   0.00000       0.00000    
      1213 IM1H     61       IM1H     H5       HDR5D    0.192000       1.00800           0   0.00000       0.00000    
      1214 IM1H     61       IM1H     C4       CD2R5E    2.72410       11.6110           0  -1.25300       1.20000    
      1215 IM1H     61       IM1H     DC4      DRUD     -2.74710      0.400000           0   0.00000       0.00000    
      1216 IM1H     61       IM1H     H6       HDR5E    0.203000       1.00800           0   0.00000       0.00000    
      1217 IM1H     61       IM1H     N2       ND2R5C    2.04220       13.6070           0 -0.803000       1.00000    
      1218 IM1H     61       IM1H     DN2      DRUD     -2.19920      0.400000           0   0.00000       0.00000    
      1219 IM1H     61       IM1H     H7       HDP1A    0.363000       1.00800           0   0.00000       0.00000    
      1220 IM1H     61       IM1H     LPN21    LPD       0.00000       0.00000          -1   0.00000       0.00000    
      1221 IM1H     62       IM1H     C1       CD33F     2.48500       11.6110           0  -1.18100       1.10000    
      1222 IM1H     62       IM1H     DC1      DRUD     -2.66700      0.400000           0   0.00000       0.00000    
      1223 IM1H     62       IM1H     H1       HDA3A    0.135000       1.00800           0   0.00000       0.00000    
      1224 IM1H     62       IM1H     H2       HDA3A    0.135000       1.00800           0   0.00000       0.00000    
      1225 IM1H     62       IM1H     H3       HDA3A    0.135000       1.00800           0   0.00000       0.00000    
      1226 IM1H     62       IM1H     N1       ND2R5C    2.35720       13.6070           0 -0.803000       1.00000    
      1227 IM1H     62       IM1H     DN1      DRUD     -2.19920      0.400000           0   0.00000       0.00000    
      1228 IM1H     62       IM1H     C2       CD2R5D    2.44700       11.6110           0  -1.08300       1.10000    
      1229 IM1H     62       IM1H     DC2      DRUD     -2.55400      0.400000           0   0.00000       0.00000    
      1230 IM1H     62       IM1H     H4       HDR5D    0.195000       1.00800           0   0.00000       0.00000    
      1231 IM1H     62       IM1H     C3       CD2R5D    2.50700       11.6110           0  -1.08300       1.10000    
      1232 IM1H     62       IM1H     DC3      DRUD     -2.55400      0.400000           0   0.00000       0.00000    
      1233 IM1H     62       IM1H     H5       HDR5D    0.192000       1.00800           0   0.00000       0.00000    
      1234 IM1H     62       IM1H     C4       CD2R5E    2.72410       11.6110           0  -1.25300       1.20000    
      1235 IM1H     62       IM1H     DC4      DRUD     -2.74710      0.400000           0   0.00000       0.00000    
      1236 IM1H     62       IM1H     H6       HDR5E    0.203000       1.00800           0   0.00000       0.00000    
      1237 IM1H     62       IM1H     N2       ND2R5C    2.04220       13.6070           0 -0.803000       1.00000    
      1238 IM1H     62       IM1H     DN2      DRUD     -2.19920      0.400000           0   0.00000       0.00000    
      1239 IM1H     62       IM1H     H7       HDP1A    0.363000       1.00800           0   0.00000       0.00000    
      1240 IM1H     62       IM1H     LPN21    LPD       0.00000       0.00000          -1   0.00000       0.00000    
      1241 IM1H     63       IM1H     C1       CD33F     2.48500       11.6110           0  -1.18100       1.10000    
      1242 IM1H     63       IM1H     DC1      DRUD     -2.66700      0.400000           0   0.00000       0.00000    
      1243 IM1H     63       IM1H     H1       HDA3A    0.135000       1.00800           0   0.00000       0.00000    
      1244 IM1H     63       IM1H     H2       HDA3A    0.135000       1.00800           0   0.00000       0.00000    
      1245 IM1H     63       IM1H     H3       HDA3A    0.135000       1.00800           0   0.00000       0.00000    
      1246 IM1H     63       IM1H     N1       ND2R5C    2.35720       13.6070           0 -0.803000       1.00000    
      1247 IM1H     63       IM1H     DN1      DRUD     -2.19920      0.400000           0   0.00000       0.00000    
      1248 IM1H     63       IM1H     C2       CD2R5D    2.44700       11.6110           0  -1.08300       1.10000    
      1249 IM1H     63       IM1H     DC2      DRUD     -2.55400      0.400000           0   0.00000       0.00000    
      1250 IM1H     63       IM1H     H4       HDR5D    0.195000       1.00800           0   0.00000       0.00000    
      1251 IM1H     63       IM1H     C3       CD2R5D    2.50700       11.6110           0  -1.08300       1.10000    
      1252 IM1H     63       IM1H     DC3      DRUD     -2.55400      0.400000           0   0.00000       0.00000    
      1253 IM1H     63       IM1H     H5       HDR5D    0.192000       1.00800           0   0.00000       0.00000    
      1254 IM1H     63       IM1H     C4       CD2R5E    2.72410       11.6110           0  -1.25300       1.20000    
      1255 IM1H     63       IM1H     DC4      DRUD     -2.74710      0.400000           0   0.00000       0.00000    
      1256 IM1H     63       IM1H     H6       HDR5E    0.203000       1.00800           0   0.00000       0.00000    
      1257 IM1H     63       IM1H     N2       ND2R5C    2.04220       13.6070           0 -0.803000       1.00000    
      1258 IM1H     63       IM1H     DN2      DRUD     -2.19920      0.400000           0   0.00000       0.00000    
      1259 IM1H     63       IM1H     H7       HDP1A    0.363000       1.00800           0   0.00000       0.00000    
      1260 IM1H     63       IM1H     LPN21    LPD       0.00000       0.00000          -1   0.00000       0.00000    
      1261 IM1H     64       IM1H     C1       CD33F     2.48500       11.6110           0  -1.18100       1.10000    
      1262 IM1H     64       IM1H     DC1      DRUD     -2.66700      0.400000           0   0.00000       0.00000    
      1263 IM1H     64       IM1H     H1       HDA3A    0.135000       1.00800           0   0.00000       0.00000    
      1264 IM1H     64       IM1H     H2       HDA3A    0.135000       1.00800           0   0.00000       0.00000    
      1265 IM1H     64       IM1H     H3       HDA3A    0.135000       1.00800           0   0.00000       0.00000    
      1266 IM1H     64       IM1H     N1       ND2R5C    2.35720       13.6070           0 -0.803000       1.00000    
      1267 IM1H     64       IM1H     DN1      DRUD     -2.19920      0.400000           0   0.00000       0.00000    
      1268 IM1H     64       IM1H     C2       CD2R5D    2.44700       11.6110           0  -1.08300       1.10000    
      1269 IM1H     64       IM1H     DC2      DRUD     -2.55400      0.400000           0   0.00000       0.00000    
      1270 IM1H     64       IM1H     H4       HDR5D    0.195000       1.00800           0   0.00000       0.00000    
      1271 IM1H     64       IM1H     C3       CD2R5D    2.50700       11.6110           0  -1.08300       1.10000    
      1272 IM1H     64       IM1H     DC3      DRUD     -2.55400      0.400000           0   0.00000       0.00000    
      1273 IM1H     64       IM1H     H5       HDR5D    0.192000       1.00800           0   0.00000       0.00000    
      1274 IM1H     64       IM1H     C4       CD2R5E    2.72410       11.6110           0  -1.25300       1.20000    
      1275 IM1H     64       IM1H     DC4      DRUD     -2.74710      0.400000           0   0.00000       0.00000    
      1276 IM1H     64       IM1H     H6       HDR5E    0.203000       1.00800           0   0.00000       0.00000    
      1277 IM1H     64       IM1H     N2       ND2R5C    2.04220       13.6070           0 -0.803000       1.00000    
      1278 IM1H     64       IM1H     DN2      DRUD     -2.19920      0.400000           0   0.00000       0.00000    
      1279 IM1H     64       IM1H     H7       HDP1A    0.363000       1.00800           0   0.00000       0.00000    
      1280 IM1H     64       IM1H     LPN21    LPD       0.00000       0.00000          -1   0.00000       0.00000    
      1281 IM1H     65       IM1H     C1       CD33F     2.48500       11.6110           0  -1.18100       1.10000    
      1282 IM1H     65       IM1H     DC1      DRUD     -2.66700      0.400000           0   0.00000       0.00000    
      1283 IM1H     65       IM1H     H1       HDA3A    0.135000       1.00800           0   0.00000       0.00000    
      1284 IM1H     65       IM1H     H2       HDA3A    0.135000       1.00800           0   0.00000       0.00000    
      1285 IM1H     65       IM1H     H3       HDA3A    0.135000       1.00800           0   0.00000       0.00000    
      1286 IM1H     65       IM1H     N1       ND2R5C    2.35720       13.6070           0 -0.803000       1.00000    
      1287 IM1H     65       IM1H     DN1      DRUD     -2.19920      0.400000           0   0.00000       0.00000    
      1288 IM1H     65       IM1H     C2       CD2R5D    2.44700       11.6110           0  -1.08300       1.10000    
      1289 IM1H     65       IM1H     DC2      DRUD     -2.55400      0.400000           0   0.00000       0.00000    
      1290 IM1H     65       IM1H     H4       HDR5D    0.195000       1.00800           0   0.00000       0.00000    
      1291 IM1H     65       IM1H     C3       CD2R5D    2.50700       11.6110           0  -1.08300       1.10000    
      1292 IM1H     65       IM1H     DC3      DRUD     -2.55400      0.400000           0   0.00000       0.00000    
      1293 IM1H     65       IM1H     H5       HDR5D    0.192000       1.00800           0   0.00000       0.00000    
      1294 IM1H     65       IM1H     C4       CD2R5E    2.72410       11.6110           0  -1.25300       1.20000    
      1295 IM1H     65       IM1H     DC4      DRUD     -2.74710      0.400000           0   0.00000       0.00000    
      1296 IM1H     65       IM1H     H6       HDR5E    0.203000       1.00800           0   0.00000       0.00000    
      1297 IM1H     65       IM1H     N2       ND2R5C    2.04220       13.6070           0 -0.803000       1.00000    
      1298 IM1H     65       IM1H     DN2      DRUD     -2.19920      0.400000           0   0.00000       0.00000    
      1299 IM1H     65       IM1H     H7       HDP1A    0.363000       1.00800           0   0.00000       0.00000    
      1300 IM1H     65       IM1H     LPN21    LPD       0.00000       0.00000          -1   0.00000       0.00000    
      1301 IM1H     66       IM1H     C1       CD33F     2.48500       11.6110           0  -1.18100       1.10000    
      1302 IM1H     66       IM1H     DC1      DRUD     -2.66700      0.400000           0   0.00000       0.00000    
      1303 IM1H     66       IM1H     H1       HDA3A    0.135000       1.00800           0   0.00000       0.00000    
      1304 IM1H     66       IM1H     H2       HDA3A    0.135000       1.00800           0   0.00000       0.00000    
      1305 IM1H     66       IM1H     H3       HDA3A    0.135000       1.00800           0   0.00000       0.00000    
      1306 IM1H     66       IM1H     N1       ND2R5C    2.35720       13.6070           0 -0.803000       1.00000    
      1307 IM1H     66       IM1H     DN1      DRUD     -2.19920      0.400000           0   0.00000       0.00000    
      1308 IM1H     66       IM1H     C2       CD2R5D    2.44700       11.6110           0  -1.08300       1.10000    
      1309 IM1H     66       IM1H     DC2      DRUD     -2.55400      0.400000           0   0.00000       0.00000    
      1310 IM1H     66       IM1H     H4       HDR5D    0.195000       1.00800           0   0.00000       0.00000    
      1311 IM1H     66       IM1H     C3       CD2R5D    2.50700       11.6110           0  -1.08300       1.10000    
      1312 IM1H     66       IM1H     DC3      DRUD     -2.55400      0.400000           0   0.00000       0.00000    
      1313 IM1H     66       IM1H     H5       HDR5D    0.192000       1.00800           0   0.00000       0.00000    
      1314 IM1H     66       IM1H     C4       CD2R5E    2.72410       11.6110           0  -1.25300       1.20000    
      1315 IM1H     66       IM1H     DC4      DRUD     -2.74710      0.400000           0   0.00000       0.00000    
      1316 IM1H     66       IM1H     H6       HDR5E    0.203000       1.00800           0   0.00000       0.00000    
      1317 IM1H     66       IM1H     N2       ND2R5C    2.04220       13.6070           0 -0.803000       1.00000    
      1318 IM1H     66       IM1H     DN2      DRUD     -2.19920      0.400000           0   0.00000       0.00000    
      1319 IM1H     66       IM1H     H7       HDP1A    0.363000       1.00800           0   0.00000       0.00000    
      1320 IM1H     66       IM1H     LPN21    LPD       0.00000       0.00000          -1   0.00000       0.00000    
      1321 IM1H     67       IM1H     C1       CD33F     2.48500       11.6110           0  -1.18100       1.10000    
      1322 IM1H     67       IM1H     DC1      DRUD     -2.66700      0.400000           0   0.00000       0.00000    
      1323 IM1H     67       IM1H     H1       HDA3A    0.135000       1.00800           0   0.00000       0.00000    
      1324 IM1H     67       IM1H     H2       HDA3A    0.135000       1.00800           0   0.00000       0.00000    
      1325 IM1H     67       IM1H     H3       HDA3A    0.135000       1.00800           0   0.00000       0.00000    
      1326 IM1H     67       IM1H     N1       ND2R5C    2.35720       13.6070           0 -0.803000       1.00000    
      1327 IM1H     67       IM1H     DN1      DRUD     -2.19920      0.400000           0   0.00000       0.00000    
      1328 IM1H     67       IM1H     C2       CD2R5D    2.44700       11.6110           0  -1.08300       1.10000    
      1329 IM1H     67       IM1H     DC2      DRUD     -2.55400      0.400000           0   0.00000       0.00000    
      1330 IM1H     67       IM1H     H4       HDR5D    0.195000       1.00800           0   0.00000       0.00000    
      1331 IM1H     67       IM1H     C3       CD2R5D    2.50700       11.6110           0  -1.08300       1.10000    
      1332 IM1H     67       IM1H     DC3      DRUD     -2.55400      0.400000           0   0.00000       0.00000    
      1333 IM1H     67       IM1H     H5       HDR5D    0.192000       1.00800           0   0.00000       0.00000    
      1334 IM1H     67       IM1H     C4       CD2R5E    2.72410       11.6110           0  -1.25300       1.20000    
      1335 IM1H     67       IM1H     DC4      DRUD     -2.74710      0.400000           0   0.00000       0.00000    
      1336 IM1H     67       IM1H     H6       HDR5E    0.203000       1.00800           0   0.00000       0.00000    
      1337 IM1H     67       IM1H     N2       ND2R5C    2.04220       13.6070           0 -0.803000       1.00000    
      1338 IM1H     67       IM1H     DN2      DRUD     -2.19920      0.400000           0   0.00000       0.00000    
      1339 IM1H     67       IM1H     H7       HDP1A    0.363000       1.00800           0   0.00000       0.00000    
      1340 IM1H     67       IM1H     LPN21    LPD       0.00000       0.00000          -1   0.00000       0.00000    
      1341 IM1H     68       IM1H     C1       CD33F     2.48500       11.6110           0  -1.18100       1.10000    
      1342 IM1H     68       IM1H     DC1      DRUD     -2.66700      0.400000           0   0.00000       0.00000    
      1343 IM1H     68       IM1H     H1       HDA3A    0.135000       1.00800           0   0.00000       0.00000    
      1344 IM1H     68       IM1H     H2       HDA3A    0.135000       1.00800           0   0.00000       0.00000    
      1345 IM1H     68       IM1H     H3       HDA3A    0.135000       1.00800           0   0.00000       0.00000    
      1346 IM1H     68       IM1H     N1       ND2R5C    2.35720       13.6070           0 -0.803000       1.00000    
      1347 IM1H     68       IM1H     DN1      DRUD     -2.19920      0.400000           0   0.00000       0.00000    
      1348 IM1H     68       IM1H     C2       CD2R5D    2.44700       11.6110           0  -1.08300       1.10000    
      1349 IM1H     68       IM1H     DC2      DRUD     -2.55400      0.400000           0   0.00000       0.00000    
      1350 IM1H     68       IM1H     H4       HDR5D    0.195000       1.00800           0   0.00000       0.00000    
      1351 IM1H     68       IM1H     C3       CD2R5D    2.50700       11.6110           0  -1.08300       1.10000    
      1352 IM1H     68       IM1H     DC3      DRUD     -2.55400      0.400000           0   0.00000       0.00000    
      1353 IM1H     68       IM1H     H5       HDR5D    0.192000       1.00800           0   0.00000       0.00000    
      1354 IM1H     68       IM1H     C4       CD2R5E    2.72410       11.6110           0  -1.25300       1.20000    
      1355 IM1H     68       IM1H     DC4      DRUD     -2.74710      0.400000           0   0.00000       0.00000    
      1356 IM1H     68       IM1H     H6       HDR5E    0.203000       1.00800           0   0.00000       0.00000    
      1357 IM1H     68       IM1H     N2       ND2R5C    2.04220       13.6070           0 -0.803000       1.00000    
      1358 IM1H     68       IM1H     DN2      DRUD     -2.19920      0.400000           0   0.00000       0.00000    
      1359 IM1H     68       IM1H     H7       HDP1A    0.363000       1.00800           0   0.00000       0.00000    
      1360 IM1H     68       IM1H     LPN21    LPD       0.00000       0.00000          -1   0.00000       0.00000    
      1361 IM1H     69       IM1H     C1       CD33F     2.48500       11.6110           0  -1.18100       1.10000    
      1362 IM1H     69       IM1H     DC1      DRUD     -2.66700      0.400000           0   0.00000       0.00000    
      1363 IM1H     69       IM1H     H1       HDA3A    0.135000       1.00800           0   0.00000       0.00000    
      1364 IM1H     69       IM1H     H2       HDA3A    0.135000       1.00800           0   0.00000       0.00000    
      1365 IM1H     69       IM1H     H3       HDA3A    0.135000       1.00800           0   0.00000       0.00000    
      1366 IM1H     69       IM1H     N1       ND2R5C    2.35720       13.6070           0 -0.803000       1.00000    
      1367 IM1H     69       IM1H     DN1      DRUD     -2.19920      0.400000           0   0.00000       0.00000    
      1368 IM1H     69       IM1H     C2       CD2R5D    2.44700       11.6110           0  -1.08300       1.10000    
      1369 IM1H     69       IM1H     DC2      DRUD     -2.55400      0.400000           0   0.00000       0.00000    
      1370 IM1H     69       IM1H     H4       HDR5D    0.195000       1.00800           0   0.00000       0.00000    
      1371 IM1H     69       IM1H     C3       CD2R5D    2.50700       11.6110           0  -1.08300       1.10000    
      1372 IM1H     69       IM1H     DC3      DRUD     -2.55400      0.400000           0   0.00000       0.00000    
      1373 IM1H     69       IM1H     H5       HDR5D    0.192000       1.00800           0   0.00000       0.00000    
      1374 IM1H     69       IM1H     C4       CD2R5E    2.72410       11.6110           0  -1.25300       1.20000    
      1375 IM1H     69       IM1H     DC4      DRUD     -2.74710      0.400000           0   0.00000       0.00000    
      1376 IM1H     69       IM1H     H6       HDR5E    0.203000       1.00800           0   0.00000       0.00000    
      1377 IM1H     69       IM1H     N2       ND2R5C    2.04220       13.6070           0 -0.803000       1.00000    
      1378 IM1H     69       IM1H     DN2      DRUD     -2.19920      0.400000           0   0.00000       0.00000    
      1379 IM1H     69       IM1H     H7       HDP1A    0.363000       1.00800           0   0.00000       0.00000    
      1380 IM1H     69       IM1H     LPN21    LPD       0.00000       0.00000          -1   0.00000       0.00000    
      1381 IM1H     70       IM1H     C1       CD33F     2.48500       11.6110           0  -1.18100       1.10000    
      1382 IM1H     70       IM1H     DC1      DRUD     -2.66700      0.400000           0   0.00000       0.00000    
      1383 IM1H     70       IM1H     H1       HDA3A    0.135000       1.00800           0   0.00000       0.00000    
      1384 IM1H     70       IM1H     H2       HDA3A    0.135000       1.00800           0   0.00000       0.00000    
      1385 IM1H     70       IM1H     H3       HDA3A    0.135000       1.00800           0   0.00000       0.00000    
      1386 IM1H     70       IM1H     N1       ND2R5C    2.35720       13.6070           0 -0.803000       1.00000    
      1387 IM1H     70       IM1H     DN1      DRUD     -2.19920      0.400000           0   0.00000       0.00000    
      1388 IM1H     70       IM1H     C2       CD2R5D    2.44700       11.6110           0  -1.08300       1.10000    
      1389 IM1H     70       IM1H     DC2      DRUD     -2.55400      0.400000           0   0.00000       0.00000    
      1390 IM1H     70       IM1H     H4       HDR5D    0.195000       1.00800           0   0.00000       0.00000    
      1391 IM1H     70       IM1H     C3       CD2R5D    2.50700       11.6110           0  -1.08300       1.10000    
      1392 IM1H     70       IM1H     DC3      DRUD     -2.55400      0.400000           0   0.00000       0.00000    
      1393 IM1H     70       IM1H     H5       HDR5D    0.192000       1.00800           0   0.00000       0.00000    
      1394 IM1H     70       IM1H     C4       CD2R5E    2.72410       11.6110           0  -1.25300       1.20000    
      1395 IM1H     70       IM1H     DC4      DRUD     -2.74710      0.400000           0   0.00000       0.00000    
      1396 IM1H     70       IM1H     H6       HDR5E    0.203000       1.00800           0   0.00000       0.00000    
      1397 IM1H     70       IM1H     N2       ND2R5C    2.04220       13.6070           0 -0.803000       1.00000    
      1398 IM1H     70       IM1H     DN2      DRUD     -2.19920      0.400000           0   0.00000       0.00000    
      1399 IM1H     70       IM1H     H7       HDP1A    0.363000       1.00800           0   0.00000       0.00000    
      1400 IM1H     70       IM1H     LPN21    LPD       0.00000       0.00000          -1   0.00000       0.00000    
      1401 IM1H     71       IM1H     C1       CD33F     2.48500       11.6110           0  -1.18100       1.10000    
      1402 IM1H     71       IM1H     DC1      DRUD     -2.66700      0.400000           0   0.00000       0.00000    
      1403 IM1H     71       IM1H     H1       HDA3A    0.135000       1.00800           0   0.00000       0.00000    
      1404 IM1H     71       IM1H     H2       HDA3A    0.135000       1.00800           0   0.00000       0.00000    
      1405 IM1H     71       IM1H     H3       HDA3A    0.135000       1.00800           0   0.00000       0.00000    
      1406 IM1H     71       IM1H     N1       ND2R5C    2.35720       13.6070           0 -0.803000       1.00000    
      1407 IM1H     71       IM1H     DN1      DRUD     -2.19920      0.400000           0   0.00000       0.00000    
      1408 IM1H     71       IM1H     C2       CD2R5D    2.44700       11.6110           0  -1.08300       1.10000    
      1409 IM1H     71       IM1H     DC2      DRUD     -2.55400      0.400000           0   0.00000       0.00000    
      1410 IM1H     71       IM1H     H4       HDR5D    0.195000       1.00800           0   0.00000       0.00000    
      1411 IM1H     71       IM1H     C3       CD2R5D    2.50700       11.6110           0  -1.08300       1.10000    
      1412 IM1H     71       IM1H     DC3      DRUD     -2.55400      0.400000           0   0.00000       0.00000    
      1413 IM1H     71       IM1H     H5       HDR5D    0.192000       1.00800           0   0.00000       0.00000    
      1414 IM1H     71       IM1H     C4       CD2R5E    2.72410       11.6110           0  -1.25300       1.20000    
      1415 IM1H     71       IM1H     DC4      DRUD     -2.74710      0.400000           0   0.00000       0.00000    
      1416 IM1H     71       IM1H     H6       HDR5E    0.203000       1.00800           0   0.00000       0.00000    
      1417 IM1H     71       IM1H     N2       ND2R5C    2.04220       13.6070           0 -0.803000       1.00000    
      1418 IM1H     71       IM1H     DN2      DRUD     -2.19920      0.400000           0   0.00000       0.00000    
      1419 IM1H     71       IM1H     H7       HDP1A    0.363000       1.00800           0   0.00000       0.00000    
      1420 IM1H     71       IM1H     LPN21    LPD       0.00000       0.00000          -1   0.00000       0.00000    
      1421 IM1H     72       IM1H     C1       CD33F     2.48500       11.6110           0  -1.18100       1.10000    
      1422 IM1H     72       IM1H     DC1      DRUD     -2.66700      0.400000           0   0.00000       0.00000    
      1423 IM1H     72       IM1H     H1       HDA3A    0.135000       1.00800           0   0.00000       0.00000    
      1424 IM1H     72       IM1H     H2       HDA3A    0.135000       1.00800           0   0.00000       0.00000    
      1425 IM1H     72       IM1H     H3       HDA3A    0.135000       1.00800           0   0.00000       0.00000    
      1426 IM1H     72       IM1H     N1       ND2R5C    2.35720       13.6070           0 -0.803000       1.00000    
      1427 IM1H     72       IM1H     DN1      DRUD     -2.19920      0.400000           0   0.00000       0.00000    
      1428 IM1H     72       IM1H     C2       CD2R5D    2.44700       11.6110           0  -1.08300       1.10000    
      1429 IM1H     72       IM1H     DC2      DRUD     -2.55400      0.400000           0   0.00000       0.00000    
      1430 IM1H     72       IM1H     H4       HDR5D    0.195000       1.00800           0   0.00000       0.00000    
      1431 IM1H     72       IM1H     C3       CD2R5D    2.50700       11.6110           0  -1.08300       1.10000    
      1432 IM1H     72       IM1H     DC3      DRUD     -2.55400      0.400000           0   0.00000       0.00000    
      1433 IM1H     72       IM1H     H5       HDR5D    0.192000       1.00800           0   0.00000       0.00000    
      1434 IM1H     72       IM1H     C4       CD2R5E    2.72410       11.6110           0  -1.25300       1.20000    
      1435 IM1H     72       IM1H     DC4      DRUD     -2.74710      0.400000           0   0.00000       0.00000    
      1436 IM1H     72       IM1H     H6       HDR5E    0.203000       1.00800           0   0.00000       0.00000    
      1437 IM1H     72       IM1H     N2       ND2R5C    2.04220       13.6070           0 -0.803000       1.00000    
      1438 IM1H     72       IM1H     DN2      DRUD     -2.19920      0.400000           0   0.00000       0.00000    
      1439 IM1H     72       IM1H     H7       HDP1A    0.363000       1.00800           0   0.00000       0.00000    
      1440 IM1H     72       IM1H     LPN21    LPD       0.00000       0.00000          -1   0.00000       0.00000    
      1441 IM1H     73       IM1H     C1       CD33F     2.48500       11.6110           0  -1.18100       1.10000    
      1442 IM1H     73       IM1H     DC1      DRUD     -2.66700      0.400000           0   0.00000       0.00000    
      1443 IM1H     73       IM1H     H1       HDA3A    0.135000       1.00800           0   0.00000       0.00000    
      1444 IM1H     73       IM1H     H2       HDA3A    0.135000       1.00800           0   0.00000       0.00000    
      1445 IM1H     73       IM1H     H3       HDA3A    0.135000       1.00800           0   0.00000       0.00000    
      1446 IM1H     73       IM1H     N1       ND2R5C    2.35720       13.6070           0 -0.803000       1.00000    
      1447 IM1H     73       IM1H     DN1      DRUD     -2.19920      0.400000           0   0.00000       0.00000    
      1448 IM1H     73       IM1H     C2       CD2R5D    2.44700       11.6110           0  -1.08300       1.10000    
      1449 IM1H     73       IM1H     DC2      DRUD     -2.55400      0.400000           0   0.00000       0.00000    
      1450 IM1H     73       IM1H     H4       HDR5D    0.195000       1.00800           0   0.00000       0.00000    
      1451 IM1H     73       IM1H     C3       CD2R5D    2.50700       11.6110           0  -1.08300       1.10000    
      1452 IM1H     73       IM1H     DC3      DRUD     -2.55400      0.400000           0   0.00000       0.00000    
      1453 IM1H     73       IM1H     H5       HDR5D    0.192000       1.00800           0   0.00000       0.00000    
      1454 IM1H     73       IM1H     C4       CD2R5E    2.72410       11.6110           0  -1.25300       1.20000    
      1455 IM1H     73       IM1H     DC4      DRUD     -2.74710      0.400000           0   0.00000       0.00000    
      1456 IM1H     73       IM1H     H6       HDR5E    0.203000       1.00800           0   0.00000       0.00000    
      1457 IM1H     73       IM1H     N2       ND2R5C    2.04220       13.6070           0 -0.803000       1.00000    
      1458 IM1H     73       IM1H     DN2      DRUD     -2.19920      0.400000           0   0.00000       0.00000    
      1459 IM1H     73       IM1H     H7       HDP1A    0.363000       1.00800           0   0.00000       0.00000    
      1460 IM1H     73       IM1H     LPN21    LPD       0.00000       0.00000          -1   0.00000       0.00000    
      1461 IM1H     74       IM1H     C1       CD33F     2.48500       11.6110           0  -1.18100       1.10000    
      1462 IM1H     74       IM1H     DC1      DRUD     -2.66700      0.400000           0   0.00000       0.00000    
      1463 IM1H     74       IM1H     H1       HDA3A    0.135000       1.00800           0   0.00000       0.00000    
      1464 IM1H     74       IM1H     H2       HDA3A    0.135000       1.00800           0   0.00000       0.00000    
      1465 IM1H     74       IM1H     H3       HDA3A    0.135000       1.00800           0   0.00000       0.00000    
      1466 IM1H     74       IM1H     N1       ND2R5C    2.35720       13.6070           0 -0.803000       1.00000    
      1467 IM1H     74       IM1H     DN1      DRUD     -2.19920      0.400000           0   0.00000       0.00000    
      1468 IM1H     74       IM1H     C2       CD2R5D    2.44700       11.6110           0  -1.08300       1.10000    
      1469 IM1H     74       IM1H     DC2      DRUD     -2.55400      0.400000           0   0.00000       0.00000    
      1470 IM1H     74       IM1H     H4       HDR5D    0.195000       1.00800           0   0.00000       0.00000    
      1471 IM1H     74       IM1H     C3       CD2R5D    2.50700       11.6110           0  -1.08300       1.10000    
      1472 IM1H     74       IM1H     DC3      DRUD     -2.55400      0.400000           0   0.00000       0.00000    
      1473 IM1H     74       IM1H     H5       HDR5D    0.192000       1.00800           0   0.00000       0.00000    
      1474 IM1H     74       IM1H     C4       CD2R5E    2.72410       11.6110           0  -1.25300       1.20000    
      1475 IM1H     74       IM1H     DC4      DRUD     -2.74710      0.400000           0   0.00000       0.00000    
      1476 IM1H     74       IM1H     H6       HDR5E    0.203000       1.00800           0   0.00000       0.00000    
      1477 IM1H     74       IM1H     N2       ND2R5C    2.04220       13.6070           0 -0.803000       1.00000    
      1478 IM1H     74       IM1H     DN2      DRUD     -2.19920      0.400000           0   0.00000       0.00000    
      1479 IM1H     74       IM1H     H7       HDP1A    0.363000       1.00800           0   0.00000       0.00000    
      1480 IM1H     74       IM1H     LPN21    LPD       0.00000       0.00000          -1   0.00000       0.00000    
      1481 IM1H     75       IM1H     C1       CD33F     2.48500       11.6110           0  -1.18100       1.10000    
      1482 IM1H     75       IM1H     DC1      DRUD     -2.66700      0.400000           0   0.00000       0.00000    
      1483 IM1H     75       IM1H     H1       HDA3A    0.135000       1.00800           0   0.00000       0.00000    
      1484 IM1H     75       IM1H     H2       HDA3A    0.135000       1.00800           0   0.00000       0.00000    
      1485 IM1H     75       IM1H     H3       HDA3A    0.135000       1.00800           0   0.00000       0.00000    
      1486 IM1H     75       IM1H     N1       ND2R5C    2.35720       13.6070           0 -0.803000       1.00000    
      1487 IM1H     75       IM1H     DN1      DRUD     -2.19920      0.400000           0   0.00000       0.00000    
      1488 IM1H     75       IM1H     C2       CD2R5D    2.44700       11.6110           0  -1.08300       1.10000    
      1489 IM1H     75       IM1H     DC2      DRUD     -2.55400      0.400000           0   0.00000       0.00000    
      1490 IM1H     75       IM1H     H4       HDR5D    0.195000       1.00800           0   0.00000       0.00000    
      1491 IM1H     75       IM1H     C3       CD2R5D    2.50700       11.6110           0  -1.08300       1.10000    
      1492 IM1H     75       IM1H     DC3      DRUD     -2.55400      0.400000           0   0.00000       0.00000    
      1493 IM1H     75       IM1H     H5       HDR5D    0.192000       1.00800           0   0.00000       0.00000    
      1494 IM1H     75       IM1H     C4       CD2R5E    2.72410       11.6110           0  -1.25300       1.20000    
      1495 IM1H     75       IM1H     DC4      DRUD     -2.74710      0.400000           0   0.00000       0.00000    
      1496 IM1H     75       IM1H     H6       HDR5E    0.203000       1.00800           0   0.00000       0.00000    
      1497 IM1H     75       IM1H     N2       ND2R5C    2.04220       13.6070           0 -0.803000       1.00000    
      1498 IM1H     75       IM1H     DN2      DRUD     -2.19920      0.400000           0   0.00000       0.00000    
      1499 IM1H     75       IM1H     H7       HDP1A    0.363000       1.00800           0   0.00000       0.00000    
      1500 IM1H     75       IM1H     LPN21    LPD       0.00000       0.00000          -1   0.00000       0.00000    
      1501 IM1H     76       IM1H     C1       CD33F     2.48500       11.6110           0  -1.18100       1.10000    
      1502 IM1H     76       IM1H     DC1      DRUD     -2.66700      0.400000           0   0.00000       0.00000    
      1503 IM1H     76       IM1H     H1       HDA3A    0.135000       1.00800           0   0.00000       0.00000    
      1504 IM1H     76       IM1H     H2       HDA3A    0.135000       1.00800           0   0.00000       0.00000    
      1505 IM1H     76       IM1H     H3       HDA3A    0.135000       1.00800           0   0.00000       0.00000    
      1506 IM1H     76       IM1H     N1       ND2R5C    2.35720       13.6070           0 -0.803000       1.00000    
      1507 IM1H     76       IM1H     DN1      DRUD     -2.19920      0.400000           0   0.00000       0.00000    
      1508 IM1H     76       IM1H     C2       CD2R5D    2.44700       11.6110           0  -1.08300       1.10000    
      1509 IM1H     76       IM1H     DC2      DRUD     -2.55400      0.400000           0   0.00000       0.00000    
      1510 IM1H     76       IM1H     H4       HDR5D    0.195000       1.00800           0   0.00000       0.00000    
      1511 IM1H     76       IM1H     C3       CD2R5D    2.50700       11.6110           0  -1.08300       1.10000    
      1512 IM1H     76       IM1H     DC3      DRUD     -2.55400      0.400000           0   0.00000       0.00000    
      1513 IM1H     76       IM1H     H5       HDR5D    0.192000       1.00800           0   0.00000       0.00000    
      1514 IM1H     76       IM1H     C4       CD2R5E    2.72410       11.6110           0  -1.25300       1.20000    
      1515 IM1H     76       IM1H     DC4      DRUD     -2.74710      0.400000           0   0.00000       0.00000    
      1516 IM1H     76       IM1H     H6       HDR5E    0.203000       1.00800           0   0.00000       0.00000    
      1517 IM1H     76       IM1H     N2       ND2R5C    2.04220       13.6070           0 -0.803000       1.00000    
      1518 IM1H     76       IM1H     DN2      DRUD     -2.19920      0.400000           0   0.00000       0.00000    
      1519 IM1H     76       IM1H     H7       HDP1A    0.363000       1.00800           0   0.00000       0.00000    
      1520 IM1H     76       IM1H     LPN21    LPD       0.00000       0.00000          -1   0.00000       0.00000    
      1521 IM1H     77       IM1H     C1       CD33F     2.48500       11.6110           0  -1.18100       1.10000    
      1522 IM1H     77       IM1H     DC1      DRUD     -2.66700      0.400000           0   0.00000       0.00000    
      1523 IM1H     77       IM1H     H1       HDA3A    0.135000       1.00800           0   0.00000       0.00000    
      1524 IM1H     77       IM1H     H2       HDA3A    0.135000       1.00800           0   0.00000       0.00000    
      1525 IM1H     77       IM1H     H3       HDA3A    0.135000       1.00800           0   0.00000       0.00000    
      1526 IM1H     77       IM1H     N1       ND2R5C    2.35720       13.6070           0 -0.803000       1.00000    
      1527 IM1H     77       IM1H     DN1      DRUD     -2.19920      0.400000           0   0.00000       0.00000    
      1528 IM1H     77       IM1H     C2       CD2R5D    2.44700       11.6110           0  -1.08300       1.10000    
      1529 IM1H     77       IM1H     DC2      DRUD     -2.55400      0.400000           0   0.00000       0.00000    
      1530 IM1H     77       IM1H     H4       HDR5D    0.195000       1.00800           0   0.00000       0.00000    
      1531 IM1H     77       IM1H     C3       CD2R5D    2.50700       11.6110           0  -1.08300       1.10000    
      1532 IM1H     77       IM1H     DC3      DRUD     -2.55400      0.400000           0   0.00000       0.00000    
      1533 IM1H     77       IM1H     H5       HDR5D    0.192000       1.00800           0   0.00000       0.00000    
      1534 IM1H     77       IM1H     C4       CD2R5E    2.72410       11.6110           0  -1.25300       1.20000    
      1535 IM1H     77       IM1H     DC4      DRUD     -2.74710      0.400000           0   0.00000       0.00000    
      1536 IM1H     77       IM1H     H6       HDR5E    0.203000       1.00800           0   0.00000       0.00000    
      1537 IM1H     77       IM1H     N2       ND2R5C    2.04220       13.6070           0 -0.803000       1.00000    
      1538 IM1H     77       IM1H     DN2      DRUD     -2.19920      0.400000           0   0.00000       0.00000    
      1539 IM1H     77       IM1H     H7       HDP1A    0.363000       1.00800           0   0.00000       0.00000    
      1540 IM1H     77       IM1H     LPN21    LPD       0.00000       0.00000          -1   0.00000       0.00000    
      1541 IM1H     78       IM1H     C1       CD33F     2.48500       11.6110           0  -1.18100       1.10000    
      1542 IM1H     78       IM1H     DC1      DRUD     -2.66700      0.400000           0   0.00000       0.00000    
      1543 IM1H     78       IM1H     H1       HDA3A    0.135000       1.00800           0   0.00000       0.00000    
      1544 IM1H     78       IM1H     H2       HDA3A    0.135000       1.00800           0   0.00000       0.00000    
      1545 IM1H     78       IM1H     H3       HDA3A    0.135000       1.00800           0   0.00000       0.00000    
      1546 IM1H     78       IM1H     N1       ND2R5C    2.35720       13.6070           0 -0.803000       1.00000    
      1547 IM1H     78       IM1H     DN1      DRUD     -2.19920      0.400000           0   0.00000       0.00000    
      1548 IM1H     78       IM1H     C2       CD2R5D    2.44700       11.6110           0  -1.08300       1.10000    
      1549 IM1H     78       IM1H     DC2      DRUD     -2.55400      0.400000           0   0.00000       0.00000    
      1550 IM1H     78       IM1H     H4       HDR5D    0.195000       1.00800           0   0.00000       0.00000    
      1551 IM1H     78       IM1H     C3       CD2R5D    2.50700       11.6110           0  -1.08300       1.10000    
      1552 IM1H     78       IM1H     DC3      DRUD     -2.55400      0.400000           0   0.00000       0.00000    
      1553 IM1H     78       IM1H     H5       HDR5D    0.192000       1.00800           0   0.00000       0.00000    
      1554 IM1H     78       IM1H     C4       CD2R5E    2.72410       11.6110           0  -1.25300       1.20000    
      1555 IM1H     78       IM1H     DC4      DRUD     -2.74710      0.400000           0   0.00000       0.00000    
      1556 IM1H     78       IM1H     H6       HDR5E    0.203000       1.00800           0   0.00000       0.00000    
      1557 IM1H     78       IM1H     N2       ND2R5C    2.04220       13.6070           0 -0.803000       1.00000    
      1558 IM1H     78       IM1H     DN2      DRUD     -2.19920      0.400000           0   0.00000       0.00000    
      1559 IM1H     78       IM1H     H7       HDP1A    0.363000       1.00800           0   0.00000       0.00000    
      1560 IM1H     78       IM1H     LPN21    LPD       0.00000       0.00000          -1   0.00000       0.00000    
      1561 IM1H     79       IM1H     C1       CD33F     2.48500       11.6110           0  -1.18100       1.10000    
      1562 IM1H     79       IM1H     DC1      DRUD     -2.66700      0.400000           0   0.00000       0.00000    
      1563 IM1H     79       IM1H     H1       HDA3A    0.135000       1.00800           0   0.00000       0.00000    
      1564 IM1H     79       IM1H     H2       HDA3A    0.135000       1.00800           0   0.00000       0.00000    
      1565 IM1H     79       IM1H     H3       HDA3A    0.135000       1.00800           0   0.00000       0.00000    
      1566 IM1H     79       IM1H     N1       ND2R5C    2.35720       13.6070           0 -0.803000       1.00000    
      1567 IM1H     79       IM1H     DN1      DRUD     -2.19920      0.400000           0   0.00000       0.00000    
      1568 IM1H     79       IM1H     C2       CD2R5D    2.44700       11.6110           0  -1.08300       1.10000    
      1569 IM1H     79       IM1H     DC2      DRUD     -2.55400      0.400000           0   0.00000       0.00000    
      1570 IM1H     79       IM1H     H4       HDR5D    0.195000       1.00800           0   0.00000       0.00000    
      1571 IM1H     79       IM1H     C3       CD2R5D    2.50700       11.6110           0  -1.08300       1.10000    
      1572 IM1H     79       IM1H     DC3      DRUD     -2.55400      0.400000           0   0.00000       0.00000    
      1573 IM1H     79       IM1H     H5       HDR5D    0.192000       1.00800           0   0.00000       0.00000    
      1574 IM1H     79       IM1H     C4       CD2R5E    2.72410       11.6110           0  -1.25300       1.20000    
      1575 IM1H     79       IM1H     DC4      DRUD     -2.74710      0.400000           0   0.00000       0.00000    
      1576 IM1H     79       IM1H     H6       HDR5E    0.203000       1.00800           0   0.00000       0.00000    
      1577 IM1H     79       IM1H     N2       ND2R5C    2.04220       13.6070           0 -0.803000       1.00000    
      1578 IM1H     79       IM1H     DN2      DRUD     -2.19920      0.400000           0   0.00000       0.00000    
      1579 IM1H     79       IM1H     H7       HDP1A    0.363000       1.00800           0   0.00000       0.00000    
      1580 IM1H     79       IM1H     LPN21    LPD       0.00000       0.00000          -1   0.00000       0.00000    
      1581 IM1H     80       IM1H     C1       CD33F     2.48500       11.6110           0  -1.18100       1.10000    
      1582 IM1H     80       IM1H     DC1      DRUD     -2.66700      0.400000           0   0.00000       0.00000    
      1583 IM1H     80       IM1H     H1       HDA3A    0.135000       1.00800           0   0.00000       0.00000    
      1584 IM1H     80       IM1H     H2       HDA3A    0.135000       1.00800           0   0.00000       0.00000    
      1585 IM1H     80       IM1H     H3       HDA3A    0.135000       1.00800           0   0.00000       0.00000    
      1586 IM1H     80       IM1H     N1       ND2R5C    2.35720       13.6070           0 -0.803000       1.00000    
      1587 IM1H     80       IM1H     DN1      DRUD     -2.19920      0.400000           0   0.00000       0.00000    
      1588 IM1H     80       IM1H     C2       CD2R5D    2.44700       11.6110           0  -1.08300       1.10000    
      1589 IM1H     80       IM1H     DC2      DRUD     -2.55400      0.400000           0   0.00000       0.00000    
      1590 IM1H     80       IM1H     H4       HDR5D    0.195000       1.00800           0   0.00000       0.00000    
      1591 IM1H     80       IM1H     C3       CD2R5D    2.50700       11.6110           0  -1.08300       1.10000    
      1592 IM1H     80       IM1H     DC3      DRUD     -2.55400      0.400000           0   0.00000       0.00000    
      1593 IM1H     80       IM1H     H5       HDR5D    0.192000       1.00800           0   0.00000       0.00000    
      1594 IM1H     80       IM1H     C4       CD2R5E    2.72410       11.6110           0  -1.25300       1.20000    
      1595 IM1H     80       IM1H     DC4      DRUD     -2.74710      0.400000           0   0.00000       0.00000    
      1596 IM1H     80       IM1H     H6       HDR5E    0.203000       1.00800           0   0.00000       0.00000    
      1597 IM1H     80       IM1H     N2       ND2R5C    2.04220       13.6070           0 -0.803000       1.00000    
      1598 IM1H     80       IM1H     DN2      DRUD     -2.19920      0.400000           0   0.00000       0.00000    
      1599 IM1H     80       IM1H     H7       HDP1A    0.363000       1.00800           0   0.00000       0.00000    
      1600 IM1H     80       IM1H     LPN21    LPD       0.00000       0.00000          -1   0.00000       0.00000    
      1601 IM1H     81       IM1H     C1       CD33F     2.48500       11.6110           0  -1.18100       1.10000    
      1602 IM1H     81       IM1H     DC1      DRUD     -2.66700      0.400000           0   0.00000       0.00000    
      1603 IM1H     81       IM1H     H1       HDA3A    0.135000       1.00800           0   0.00000       0.00000    
      1604 IM1H     81       IM1H     H2       HDA3A    0.135000       1.00800           0   0.00000       0.00000    
      1605 IM1H     81       IM1H     H3       HDA3A    0.135000       1.00800           0   0.00000       0.00000    
      1606 IM1H     81       IM1H     N1       ND2R5C    2.35720       13.6070           0 -0.803000       1.00000    
      1607 IM1H     81       IM1H     DN1      DRUD     -2.19920      0.400000           0   0.00000       0.00000    
      1608 IM1H     81       IM1H     C2       CD2R5D    2.44700       11.6110           0  -1.08300       1.10000    
      1609 IM1H     81       IM1H     DC2      DRUD     -2.55400      0.400000           0   0.00000       0.00000    
      1610 IM1H     81       IM1H     H4       HDR5D    0.195000       1.00800           0   0.00000       0.00000    
      1611 IM1H     81       IM1H     C3       CD2R5D    2.50700       11.6110           0  -1.08300       1.10000    
      1612 IM1H     81       IM1H     DC3      DRUD     -2.55400      0.400000           0   0.00000       0.00000    
      1613 IM1H     81       IM1H     H5       HDR5D    0.192000       1.00800           0   0.00000       0.00000    
      1614 IM1H     81       IM1H     C4       CD2R5E    2.72410       11.6110           0  -1.25300       1.20000    
      1615 IM1H     81       IM1H     DC4      DRUD     -2.74710      0.400000           0   0.00000       0.00000    
      1616 IM1H     81       IM1H     H6       HDR5E    0.203000       1.00800           0   0.00000       0.00000    
      1617 IM1H     81       IM1H     N2       ND2R5C    2.04220       13.6070           0 -0.803000       1.00000    
      1618 IM1H     81       IM1H     DN2      DRUD     -2.19920      0.400000           0   0.00000       0.00000    
      1619 IM1H     81       IM1H     H7       HDP1A    0.363000       1.00800           0   0.00000       0.00000    
      1620 IM1H     81       IM1H     LPN21    LPD       0.00000       0.00000          -1   0.00000       0.00000    
      1621 IM1H     82       IM1H     C1       CD33F     2.48500       11.6110           0  -1.18100       1.10000    
      1622 IM1H     82       IM1H     DC1      DRUD     -2.66700      0.400000           0   0.00000       0.00000    
      1623 IM1H     82       IM1H     H1       HDA3A    0.135000       1.00800           0   0.00000       0.00000    
      1624 IM1H     82       IM1H     H2       HDA3A    0.135000       1.00800           0   0.00000       0.00000    
      1625 IM1H     82       IM1H     H3       HDA3A    0.135000       1.00800           0   0.00000       0.00000    
      1626 IM1H     82       IM1H     N1       ND2R5C    2.35720       13.6070           0 -0.803000       1.00000    
      1627 IM1H     82       IM1H     DN1      DRUD     -2.19920      0.400000           0   0.00000       0.00000    
      1628 IM1H     82       IM1H     C2       CD2R5D    2.44700       11.6110           0  -1.08300       1.10000    
      1629 IM1H     82       IM1H     DC2      DRUD     -2.55400      0.400000           0   0.00000       0.00000    
      1630 IM1H     82       IM1H     H4       HDR5D    0.195000       1.00800           0   0.00000       0.00000    
      1631 IM1H     82       IM1H     C3       CD2R5D    2.50700       11.6110           0  -1.08300       1.10000    
      1632 IM1H     82       IM1H     DC3      DRUD     -2.55400      0.400000           0   0.00000       0.00000    
      1633 IM1H     82       IM1H     H5       HDR5D    0.192000       1.00800           0   0.00000       0.00000    
      1634 IM1H     82       IM1H     C4       CD2R5E    2.72410       11.6110           0  -1.25300       1.20000    
      1635 IM1H     82       IM1H     DC4      DRUD     -2.74710      0.400000           0   0.00000       0.00000    
      1636 IM1H     82       IM1H     H6       HDR5E    0.203000       1.00800           0   0.00000       0.00000    
      1637 IM1H     82       IM1H     N2       ND2R5C    2.04220       13.6070           0 -0.803000       1.00000    
      1638 IM1H     82       IM1H     DN2      DRUD     -2.19920      0.400000           0   0.00000       0.00000    
      1639 IM1H     82       IM1H     H7       HDP1A    0.363000       1.00800           0   0.00000       0.00000    
      1640 IM1H     82       IM1H     LPN21    LPD       0.00000       0.00000          -1   0.00000       0.00000    
      1641 IM1H     83       IM1H     C1       CD33F     2.48500       11.6110           0  -1.18100       1.10000    
      1642 IM1H     83       IM1H     DC1      DRUD     -2.66700      0.400000           0   0.00000       0.00000    
      1643 IM1H     83       IM1H     H1       HDA3A    0.135000       1.00800           0   0.00000       0.00000    
      1644 IM1H     83       IM1H     H2       HDA3A    0.135000       1.00800           0   0.00000       0.00000    
      1645 IM1H     83       IM1H     H3       HDA3A    0.135000       1.00800           0   0.00000       0.00000    
      1646 IM1H     83       IM1H     N1       ND2R5C    2.35720       13.6070           0 -0.803000       1.00000    
      1647 IM1H     83       IM1H     DN1      DRUD     -2.19920      0.400000           0   0.00000       0.00000    
      1648 IM1H     83       IM1H     C2       CD2R5D    2.44700       11.6110           0  -1.08300       1.10000    
      1649 IM1H     83       IM1H     DC2      DRUD     -2.55400      0.400000           0   0.00000       0.00000    
      1650 IM1H     83       IM1H     H4       HDR5D    0.195000       1.00800           0   0.00000       0.00000    
      1651 IM1H     83       IM1H     C3       CD2R5D    2.50700       11.6110           0  -1.08300       1.10000    
      1652 IM1H     83       IM1H     DC3      DRUD     -2.55400      0.400000           0   0.00000       0.00000    
      1653 IM1H     83       IM1H     H5       HDR5D    0.192000       1.00800           0   0.00000       0.00000    
      1654 IM1H     83       IM1H     C4       CD2R5E    2.72410       11.6110           0  -1.25300       1.20000    
      1655 IM1H     83       IM1H     DC4      DRUD     -2.74710      0.400000           0   0.00000       0.00000    
      1656 IM1H     83       IM1H     H6       HDR5E    0.203000       1.00800           0   0.00000       0.00000    
      1657 IM1H     83       IM1H     N2       ND2R5C    2.04220       13.6070           0 -0.803000       1.00000    
      1658 IM1H     83       IM1H     DN2      DRUD     -2.19920      0.400000           0   0.00000       0.00000    
      1659 IM1H     83       IM1H     H7       HDP1A    0.363000       1.00800           0   0.00000       0.00000    
      1660 IM1H     83       IM1H     LPN21    LPD       0.00000       0.00000          -1   0.00000       0.00000    
      1661 IM1H     84       IM1H     C1       CD33F     2.48500       11.6110           0  -1.18100       1.10000    
      1662 IM1H     84       IM1H     DC1      DRUD     -2.66700      0.400000           0   0.00000       0.00000    
      1663 IM1H     84       IM1H     H1       HDA3A    0.135000       1.00800           0   0.00000       0.00000    
      1664 IM1H     84       IM1H     H2       HDA3A    0.135000       1.00800           0   0.00000       0.00000    
      1665 IM1H     84       IM1H     H3       HDA3A    0.135000       1.00800           0   0.00000       0.00000    
      1666 IM1H     84       IM1H     N1       ND2R5C    2.35720       13.6070           0 -0.803000       1.00000    
      1667 IM1H     84       IM1H     DN1      DRUD     -2.19920      0.400000           0   0.00000       0.00000    
      1668 IM1H     84       IM1H     C2       CD2R5D    2.44700       11.6110           0  -1.08300       1.10000    
      1669 IM1H     84       IM1H     DC2      DRUD     -2.55400      0.400000           0   0.00000       0.00000    
      1670 IM1H     84       IM1H     H4       HDR5D    0.195000       1.00800           0   0.00000       0.00000    
      1671 IM1H     84       IM1H     C3       CD2R5D    2.50700       11.6110           0  -1.08300       1.10000    
      1672 IM1H     84       IM1H     DC3      DRUD     -2.55400      0.400000           0   0.00000       0.00000    
      1673 IM1H     84       IM1H     H5       HDR5D    0.192000       1.00800           0   0.00000       0.00000    
      1674 IM1H     84       IM1H     C4       CD2R5E    2.72410       11.6110           0  -1.25300       1.20000    
      1675 IM1H     84       IM1H     DC4      DRUD     -2.74710      0.400000           0   0.00000       0.00000    
      1676 IM1H     84       IM1H     H6       HDR5E    0.203000       1.00800           0   0.00000       0.00000    
      1677 IM1H     84       IM1H     N2       ND2R5C    2.04220       13.6070           0 -0.803000       1.00000    
      1678 IM1H     84       IM1H     DN2      DRUD     -2.19920      0.400000           0   0.00000       0.00000    
      1679 IM1H     84       IM1H     H7       HDP1A    0.363000       1.00800           0   0.00000       0.00000    
      1680 IM1H     84       IM1H     LPN21    LPD       0.00000       0.00000          -1   0.00000       0.00000    
      1681 IM1H     85       IM1H     C1       CD33F     2.48500       11.6110           0  -1.18100       1.10000    
      1682 IM1H     85       IM1H     DC1      DRUD     -2.66700      0.400000           0   0.00000       0.00000    
      1683 IM1H     85       IM1H     H1       HDA3A    0.135000       1.00800           0   0.00000       0.00000    
      1684 IM1H     85       IM1H     H2       HDA3A    0.135000       1.00800           0   0.00000       0.00000    
      1685 IM1H     85       IM1H     H3       HDA3A    0.135000       1.00800           0   0.00000       0.00000    
      1686 IM1H     85       IM1H     N1       ND2R5C    2.35720       13.6070           0 -0.803000       1.00000    
      1687 IM1H     85       IM1H     DN1      DRUD     -2.19920      0.400000           0   0.00000       0.00000    
      1688 IM1H     85       IM1H     C2       CD2R5D    2.44700       11.6110           0  -1.08300       1.10000    
      1689 IM1H     85       IM1H     DC2      DRUD     -2.55400      0.400000           0   0.00000       0.00000    
      1690 IM1H     85       IM1H     H4       HDR5D    0.195000       1.00800           0   0.00000       0.00000    
      1691 IM1H     85       IM1H     C3       CD2R5D    2.50700       11.6110           0  -1.08300       1.10000    
      1692 IM1H     85       IM1H     DC3      DRUD     -2.55400      0.400000           0   0.00000       0.00000    
      1693 IM1H     85       IM1H     H5       HDR5D    0.192000       1.00800           0   0.00000       0.00000    
      1694 IM1H     85       IM1H     C4       CD2R5E    2.72410       11.6110           0  -1.25300       1.20000    
      1695 IM1H     85       IM1H     DC4      DRUD     -2.74710      0.400000           0   0.00000       0.00000    
      1696 IM1H     85       IM1H     H6       HDR5E    0.203000       1.00800           0   0.00000       0.00000    
      1697 IM1H     85       IM1H     N2       ND2R5C    2.04220       13.6070           0 -0.803000       1.00000    
      1698 IM1H     85       IM1H     DN2      DRUD     -2.19920      0.400000           0   0.00000       0.00000    
      1699 IM1H     85       IM1H     H7       HDP1A    0.363000       1.00800           0   0.00000       0.00000    
      1700 IM1H     85       IM1H     LPN21    LPD       0.00000       0.00000          -1   0.00000       0.00000    
      1701 IM1H     86       IM1H     C1       CD33F     2.48500       11.6110           0  -1.18100       1.10000    
      1702 IM1H     86       IM1H     DC1      DRUD     -2.66700      0.400000           0   0.00000       0.00000    
      1703 IM1H     86       IM1H     H1       HDA3A    0.135000       1.00800           0   0.00000       0.00000    
      1704 IM1H     86       IM1H     H2       HDA3A    0.135000       1.00800           0   0.00000       0.00000    
      1705 IM1H     86       IM1H     H3       HDA3A    0.135000       1.00800           0   0.00000       0.00000    
      1706 IM1H     86       IM1H     N1       ND2R5C    2.35720       13.6070           0 -0.803000       1.00000    
      1707 IM1H     86       IM1H     DN1      DRUD     -2.19920      0.400000           0   0.00000       0.00000    
      1708 IM1H     86       IM1H     C2       CD2R5D    2.44700       11.6110           0  -1.08300       1.10000    
      1709 IM1H     86       IM1H     DC2      DRUD     -2.55400      0.400000           0   0.00000       0.00000    
      1710 IM1H     86       IM1H     H4       HDR5D    0.195000       1.00800           0   0.00000       0.00000    
      1711 IM1H     86       IM1H     C3       CD2R5D    2.50700       11.6110           0  -1.08300       1.10000    
      1712 IM1H     86       IM1H     DC3      DRUD     -2.55400      0.400000           0   0.00000       0.00000    
      1713 IM1H     86       IM1H     H5       HDR5D    0.192000       1.00800           0   0.00000       0.00000    
      1714 IM1H     86       IM1H     C4       CD2R5E    2.72410       11.6110           0  -1.25300       1.20000    
      1715 IM1H     86       IM1H     DC4      DRUD     -2.74710      0.400000           0   0.00000       0.00000    
      1716 IM1H     86       IM1H     H6       HDR5E    0.203000       1.00800           0   0.00000       0.00000    
      1717 IM1H     86       IM1H     N2       ND2R5C    2.04220       13.6070           0 -0.803000       1.00000    
      1718 IM1H     86       IM1H     DN2      DRUD     -2.19920      0.400000           0   0.00000       0.00000    
      1719 IM1H     86       IM1H     H7       HDP1A    0.363000       1.00800           0   0.00000       0.00000    
      1720 IM1H     86       IM1H     LPN21    LPD       0.00000       0.00000          -1   0.00000       0.00000    
      1721 IM1H     87       IM1H     C1       CD33F     2.48500       11.6110           0  -1.18100       1.10000    
      1722 IM1H     87       IM1H     DC1      DRUD     -2.66700      0.400000           0   0.00000       0.00000    
      1723 IM1H     87       IM1H     H1       HDA3A    0.135000       1.00800           0   0.00000       0.00000    
      1724 IM1H     87       IM1H     H2       HDA3A    0.135000       1.00800           0   0.00000       0.00000    
      1725 IM1H     87       IM1H     H3       HDA3A    0.135000       1.00800           0   0.00000       0.00000    
      1726 IM1H     87       IM1H     N1       ND2R5C    2.35720       13.6070           0 -0.803000       1.00000    
      1727 IM1H     87       IM1H     DN1      DRUD     -2.19920      0.400000           0   0.00000       0.00000    
      1728 IM1H     87       IM1H     C2       CD2R5D    2.44700       11.6110           0  -1.08300       1.10000    
      1729 IM1H     87       IM1H     DC2      DRUD     -2.55400      0.400000           0   0.00000       0.00000    
      1730 IM1H     87       IM1H     H4       HDR5D    0.195000       1.00800           0   0.00000       0.00000    
      1731 IM1H     87       IM1H     C3       CD2R5D    2.50700       11.6110           0  -1.08300       1.10000    
      1732 IM1H     87       IM1H     DC3      DRUD     -2.55400      0.400000           0   0.00000       0.00000    
      1733 IM1H     87       IM1H     H5       HDR5D    0.192000       1.00800           0   0.00000       0.00000    
      1734 IM1H     87       IM1H     C4       CD2R5E    2.72410       11.6110           0  -1.25300       1.20000    
      1735 IM1H     87       IM1H     DC4      DRUD     -2.74710      0.400000           0   0.00000       0.00000    
      1736 IM1H     87       IM1H     H6       HDR5E    0.203000       1.00800           0   0.00000       0.00000    
      1737 IM1H     87       IM1H     N2       ND2R5C    2.04220       13.6070           0 -0.803000       1.00000    
      1738 IM1H     87       IM1H     DN2      DRUD     -2.19920      0.400000           0   0.00000       0.00000    
      1739 IM1H     87       IM1H     H7       HDP1A    0.363000       1.00800           0   0.00000       0.00000    
      1740 IM1H     87       IM1H     LPN21    LPD       0.00000       0.00000          -1   0.00000       0.00000    
      1741 IM1H     88       IM1H     C1       CD33F     2.48500       11.6110           0  -1.18100       1.10000    
      1742 IM1H     88       IM1H     DC1      DRUD     -2.66700      0.400000           0   0.00000       0.00000    
      1743 IM1H     88       IM1H     H1       HDA3A    0.135000       1.00800           0   0.00000       0.00000    
      1744 IM1H     88       IM1H     H2       HDA3A    0.135000       1.00800           0   0.00000       0.00000    
      1745 IM1H     88       IM1H     H3       HDA3A    0.135000       1.00800           0   0.00000       0.00000    
      1746 IM1H     88       IM1H     N1       ND2R5C    2.35720       13.6070           0 -0.803000       1.00000    
      1747 IM1H     88       IM1H     DN1      DRUD     -2.19920      0.400000           0   0.00000       0.00000    
      1748 IM1H     88       IM1H     C2       CD2R5D    2.44700       11.6110           0  -1.08300       1.10000    
      1749 IM1H     88       IM1H     DC2      DRUD     -2.55400      0.400000           0   0.00000       0.00000    
      1750 IM1H     88       IM1H     H4       HDR5D    0.195000       1.00800           0   0.00000       0.00000    
      1751 IM1H     88       IM1H     C3       CD2R5D    2.50700       11.6110           0  -1.08300       1.10000    
      1752 IM1H     88       IM1H     DC3      DRUD     -2.55400      0.400000           0   0.00000       0.00000    
      1753 IM1H     88       IM1H     H5       HDR5D    0.192000       1.00800           0   0.00000       0.00000    
      1754 IM1H     88       IM1H     C4       CD2R5E    2.72410       11.6110           0  -1.25300       1.20000    
      1755 IM1H     88       IM1H     DC4      DRUD     -2.74710      0.400000           0   0.00000       0.00000    
      1756 IM1H     88       IM1H     H6       HDR5E    0.203000       1.00800           0   0.00000       0.00000    
      1757 IM1H     88       IM1H     N2       ND2R5C    2.04220       13.6070           0 -0.803000       1.00000    
      1758 IM1H     88       IM1H     DN2      DRUD     -2.19920      0.400000           0   0.00000       0.00000    
      1759 IM1H     88       IM1H     H7       HDP1A    0.363000       1.00800           0   0.00000       0.00000    
      1760 IM1H     88       IM1H     LPN21    LPD       0.00000       0.00000          -1   0.00000       0.00000    
      1761 IM1H     89       IM1H     C1       CD33F     2.48500       11.6110           0  -1.18100       1.10000    
      1762 IM1H     89       IM1H     DC1      DRUD     -2.66700      0.400000           0   0.00000       0.00000    
      1763 IM1H     89       IM1H     H1       HDA3A    0.135000       1.00800           0   0.00000       0.00000    
      1764 IM1H     89       IM1H     H2       HDA3A    0.135000       1.00800           0   0.00000       0.00000    
      1765 IM1H     89       IM1H     H3       HDA3A    0.135000       1.00800           0   0.00000       0.00000    
      1766 IM1H     89       IM1H     N1       ND2R5C    2.35720       13.6070           0 -0.803000       1.00000    
      1767 IM1H     89       IM1H     DN1      DRUD     -2.19920      0.400000           0   0.00000       0.00000    
      1768 IM1H     89       IM1H     C2       CD2R5D    2.44700       11.6110           0  -1.08300       1.10000    
      1769 IM1H     89       IM1H     DC2      DRUD     -2.55400      0.400000           0   0.00000       0.00000    
      1770 IM1H     89       IM1H     H4       HDR5D    0.195000       1.00800           0   0.00000       0.00000    
      1771 IM1H     89       IM1H     C3       CD2R5D    2.50700       11.6110           0  -1.08300       1.10000    
      1772 IM1H     89       IM1H     DC3      DRUD     -2.55400      0.400000           0   0.00000       0.00000    
      1773 IM1H     89       IM1H     H5       HDR5D    0.192000       1.00800           0   0.00000       0.00000    
      1774 IM1H     89       IM1H     C4       CD2R5E    2.72410       11.6110           0  -1.25300       1.20000    
      1775 IM1H     89       IM1H     DC4      DRUD     -2.74710      0.400000           0   0.00000       0.00000    
      1776 IM1H     89       IM1H     H6       HDR5E    0.203000       1.00800           0   0.00000       0.00000    
      1777 IM1H     89       IM1H     N2       ND2R5C    2.04220       13.6070           0 -0.803000       1.00000    
      1778 IM1H     89       IM1H     DN2      DRUD     -2.19920      0.400000           0   0.00000       0.00000    
      1779 IM1H     89       IM1H     H7       HDP1A    0.363000       1.00800           0   0.00000       0.00000    
      1780 IM1H     89       IM1H     LPN21    LPD       0.00000       0.00000          -1   0.00000       0.00000    
      1781 IM1H     90       IM1H     C1       CD33F     2.48500       11.6110           0  -1.18100       1.10000    
      1782 IM1H     90       IM1H     DC1      DRUD     -2.66700      0.400000           0   0.00000       0.00000    
      1783 IM1H     90       IM1H     H1       HDA3A    0.135000       1.00800           0   0.00000       0.00000    
      1784 IM1H     90       IM1H     H2       HDA3A    0.135000       1.00800           0   0.00000       0.00000    
      1785 IM1H     90       IM1H     H3       HDA3A    0.135000       1.00800           0   0.00000       0.00000    
      1786 IM1H     90       IM1H     N1       ND2R5C    2.35720       13.6070           0 -0.803000       1.00000    
      1787 IM1H     90       IM1H     DN1      DRUD     -2.19920      0.400000           0   0.00000       0.00000    
      1788 IM1H     90       IM1H     C2       CD2R5D    2.44700       11.6110           0  -1.08300       1.10000    
      1789 IM1H     90       IM1H     DC2      DRUD     -2.55400      0.400000           0   0.00000       0.00000    
      1790 IM1H     90       IM1H     H4       HDR5D    0.195000       1.00800           0   0.00000       0.00000    
      1791 IM1H     90       IM1H     C3       CD2R5D    2.50700       11.6110           0  -1.08300       1.10000    
      1792 IM1H     90       IM1H     DC3      DRUD     -2.55400      0.400000           0   0.00000       0.00000    
      1793 IM1H     90       IM1H     H5       HDR5D    0.192000       1.00800           0   0.00000       0.00000    
      1794 IM1H     90       IM1H     C4       CD2R5E    2.72410       11.6110           0  -1.25300       1.20000    
      1795 IM1H     90       IM1H     DC4      DRUD     -2.74710      0.400000           0   0.00000       0.00000    
      1796 IM1H     90       IM1H     H6       HDR5E    0.203000       1.00800           0   0.00000       0.00000    
      1797 IM1H     90       IM1H     N2       ND2R5C    2.04220       13.6070           0 -0.803000       1.00000    
      1798 IM1H     90       IM1H     DN2      DRUD     -2.19920      0.400000           0   0.00000       0.00000    
      1799 IM1H     90       IM1H     H7       HDP1A    0.363000       1.00800           0   0.00000       0.00000    
      1800 IM1H     90       IM1H     LPN21    LPD       0.00000       0.00000          -1   0.00000       0.00000    
      1801 IM1H     91       IM1H     C1       CD33F     2.48500       11.6110           0  -1.18100       1.10000    
      1802 IM1H     91       IM1H     DC1      DRUD     -2.66700      0.400000           0   0.00000       0.00000    
      1803 IM1H     91       IM1H     H1       HDA3A    0.135000       1.00800           0   0.00000       0.00000    
      1804 IM1H     91       IM1H     H2       HDA3A    0.135000       1.00800           0   0.00000       0.00000    
      1805 IM1H     91       IM1H     H3       HDA3A    0.135000       1.00800           0   0.00000       0.00000    
      1806 IM1H     91       IM1H     N1       ND2R5C    2.35720       13.6070           0 -0.803000       1.00000    
      1807 IM1H     91       IM1H     DN1      DRUD     -2.19920      0.400000           0   0.00000       0.00000    
      1808 IM1H     91       IM1H     C2       CD2R5D    2.44700       11.6110           0  -1.08300       1.10000    
      1809 IM1H     91       IM1H     DC2      DRUD     -2.55400      0.400000           0   0.00000       0.00000    
      1810 IM1H     91       IM1H     H4       HDR5D    0.195000       1.00800           0   0.00000       0.00000    
      1811 IM1H     91       IM1H     C3       CD2R5D    2.50700       11.6110           0  -1.08300       1.10000    
      1812 IM1H     91       IM1H     DC3      DRUD     -2.55400      0.400000           0   0.00000       0.00000    
      1813 IM1H     91       IM1H     H5       HDR5D    0.192000       1.00800           0   0.00000       0.00000    
      1814 IM1H     91       IM1H     C4       CD2R5E    2.72410       11.6110           0  -1.25300       1.20000    
      1815 IM1H     91       IM1H     DC4      DRUD     -2.74710      0.400000           0   0.00000       0.00000    
      1816 IM1H     91       IM1H     H6       HDR5E    0.203000       1.00800           0   0.00000       0.00000    
      1817 IM1H     91       IM1H     N2       ND2R5C    2.04220       13.6070           0 -0.803000       1.00000    
      1818 IM1H     91       IM1H     DN2      DRUD     -2.19920      0.400000           0   0.00000       0.00000    
      1819 IM1H     91       IM1H     H7       HDP1A    0.363000       1.00800           0   0.00000       0.00000    
      1820 IM1H     91       IM1H     LPN21    LPD       0.00000       0.00000          -1   0.00000       0.00000    
      1821 IM1H     92       IM1H     C1       CD33F     2.48500       11.6110           0  -1.18100       1.10000    
      1822 IM1H     92       IM1H     DC1      DRUD     -2.66700      0.400000           0   0.00000       0.00000    
      1823 IM1H     92       IM1H     H1       HDA3A    0.135000       1.00800           0   0.00000       0.00000    
      1824 IM1H     92       IM1H     H2       HDA3A    0.135000       1.00800           0   0.00000       0.00000    
      1825 IM1H     92       IM1H     H3       HDA3A    0.135000       1.00800           0   0.00000       0.00000    
      1826 IM1H     92       IM1H     N1       ND2R5C    2.35720       13.6070           0 -0.803000       1.00000    
      1827 IM1H     92       IM1H     DN1      DRUD     -2.19920      0.400000           0   0.00000       0.00000    
      1828 IM1H     92       IM1H     C2       CD2R5D    2.44700       11.6110           0  -1.08300       1.10000    
      1829 IM1H     92       IM1H     DC2      DRUD     -2.55400      0.400000           0   0.00000       0.00000    
      1830 IM1H     92       IM1H     H4       HDR5D    0.195000       1.00800           0   0.00000       0.00000    
      1831 IM1H     92       IM1H     C3       CD2R5D    2.50700       11.6110           0  -1.08300       1.10000    
      1832 IM1H     92       IM1H     DC3      DRUD     -2.55400      0.400000           0   0.00000       0.00000    
      1833 IM1H     92       IM1H     H5       HDR5D    0.192000       1.00800           0   0.00000       0.00000    
      1834 IM1H     92       IM1H     C4       CD2R5E    2.72410       11.6110           0  -1.25300       1.20000    
      1835 IM1H     92       IM1H     DC4      DRUD     -2.74710      0.400000           0   0.00000       0.00000    
      1836 IM1H     92       IM1H     H6       HDR5E    0.203000       1.00800           0   0.00000       0.00000    
      1837 IM1H     92       IM1H     N2       ND2R5C    2.04220       13.6070           0 -0.803000       1.00000    
      1838 IM1H     92       IM1H     DN2      DRUD     -2.19920      0.400000           0   0.00000       0.00000    
      1839 IM1H     92       IM1H     H7       HDP1A    0.363000       1.00800           0   0.00000       0.00000    
      1840 IM1H     92       IM1H     LPN21    LPD       0.00000       0.00000          -1   0.00000       0.00000    
      1841 IM1H     93       IM1H     C1       CD33F     2.48500       11.6110           0  -1.18100       1.10000    
      1842 IM1H     93       IM1H     DC1      DRUD     -2.66700      0.400000           0   0.00000       0.00000    
      1843 IM1H     93       IM1H     H1       HDA3A    0.135000       1.00800           0   0.00000       0.00000    
      1844 IM1H     93       IM1H     H2       HDA3A    0.135000       1.00800           0   0.00000       0.00000    
      1845 IM1H     93       IM1H     H3       HDA3A    0.135000       1.00800           0   0.00000       0.00000    
      1846 IM1H     93       IM1H     N1       ND2R5C    2.35720       13.6070           0 -0.803000       1.00000    
      1847 IM1H     93       IM1H     DN1      DRUD     -2.19920      0.400000           0   0.00000       0.00000    
      1848 IM1H     93       IM1H     C2       CD2R5D    2.44700       11.6110           0  -1.08300       1.10000    
      1849 IM1H     93       IM1H     DC2      DRUD     -2.55400      0.400000           0   0.00000       0.00000    
      1850 IM1H     93       IM1H     H4       HDR5D    0.195000       1.00800           0   0.00000       0.00000    
      1851 IM1H     93       IM1H     C3       CD2R5D    2.50700       11.6110           0  -1.08300       1.10000    
      1852 IM1H     93       IM1H     DC3      DRUD     -2.55400      0.400000           0   0.00000       0.00000    
      1853 IM1H     93       IM1H     H5       HDR5D    0.192000       1.00800           0   0.00000       0.00000    
      1854 IM1H     93       IM1H     C4       CD2R5E    2.72410       11.6110           0  -1.25300       1.20000    
      1855 IM1H     93       IM1H     DC4      DRUD     -2.74710      0.400000           0   0.00000       0.00000    
      1856 IM1H     93       IM1H     H6       HDR5E    0.203000       1.00800           0   0.00000       0.00000    
      1857 IM1H     93       IM1H     N2       ND2R5C    2.04220       13.6070           0 -0.803000       1.00000    
      1858 IM1H     93       IM1H     DN2      DRUD     -2.19920      0.400000           0   0.00000       0.00000    
      1859 IM1H     93       IM1H     H7       HDP1A    0.363000       1.00800           0   0.00000       0.00000    
      1860 IM1H     93       IM1H     LPN21    LPD       0.00000       0.00000          -1   0.00000       0.00000    
      1861 IM1H     94       IM1H     C1       CD33F     2.48500       11.6110           0  -1.18100       1.10000    
      1862 IM1H     94       IM1H     DC1      DRUD     -2.66700      0.400000           0   0.00000       0.00000    
      1863 IM1H     94       IM1H     H1       HDA3A    0.135000       1.00800           0   0.00000       0.00000    
      1864 IM1H     94       IM1H     H2       HDA3A    0.135000       1.00800           0   0.00000       0.00000    
      1865 IM1H     94       IM1H     H3       HDA3A    0.135000       1.00800           0   0.00000       0.00000    
      1866 IM1H     94       IM1H     N1       ND2R5C    2.35720       13.6070           0 -0.803000       1.00000    
      1867 IM1H     94       IM1H     DN1      DRUD     -2.19920      0.400000           0   0.00000       0.00000    
      1868 IM1H     94       IM1H     C2       CD2R5D    2.44700       11.6110           0  -1.08300       1.10000    
      1869 IM1H     94       IM1H     DC2      DRUD     -2.55400      0.400000           0   0.00000       0.00000    
      1870 IM1H     94       IM1H     H4       HDR5D    0.195000       1.00800           0   0.00000       0.00000    
      1871 IM1H     94       IM1H     C3       CD2R5D    2.50700       11.6110           0  -1.08300       1.10000    
      1872 IM1H     94       IM1H     DC3      DRUD     -2.55400      0.400000           0   0.00000       0.00000    
      1873 IM1H     94       IM1H     H5       HDR5D    0.192000       1.00800           0   0.00000       0.00000    
      1874 IM1H     94       IM1H     C4       CD2R5E    2.72410       11.6110           0  -1.25300       1.20000    
      1875 IM1H     94       IM1H     DC4      DRUD     -2.74710      0.400000           0   0.00000       0.00000    
      1876 IM1H     94       IM1H     H6       HDR5E    0.203000       1.00800           0   0.00000       0.00000    
      1877 IM1H     94       IM1H     N2       ND2R5C    2.04220       13.6070           0 -0.803000       1.00000    
      1878 IM1H     94       IM1H     DN2      DRUD     -2.19920      0.400000           0   0.00000       0.00000    
      1879 IM1H     94       IM1H     H7       HDP1A    0.363000       1.00800           0   0.00000       0.00000    
      1880 IM1H     94       IM1H     LPN21    LPD       0.00000       0.00000          -1   0.00000       0.00000    
      1881 IM1H     95       IM1H     C1       CD33F     2.48500       11.6110           0  -1.18100       1.10000    
      1882 IM1H     95       IM1H     DC1      DRUD     -2.66700      0.400000           0   0.00000       0.00000    
      1883 IM1H     95       IM1H     H1       HDA3A    0.135000       1.00800           0   0.00000       0.00000    
      1884 IM1H     95       IM1H     H2       HDA3A    0.135000       1.00800           0   0.00000       0.00000    
      1885 IM1H     95       IM1H     H3       HDA3A    0.135000       1.00800           0   0.00000       0.00000    
      1886 IM1H     95       IM1H     N1       ND2R5C    2.35720       13.6070           0 -0.803000       1.00000    
      1887 IM1H     95       IM1H     DN1      DRUD     -2.19920      0.400000           0   0.00000       0.00000    
      1888 IM1H     95       IM1H     C2       CD2R5D    2.44700       11.6110           0  -1.08300       1.10000    
      1889 IM1H     95       IM1H     DC2      DRUD     -2.55400      0.400000           0   0.00000       0.00000    
      1890 IM1H     95       IM1H     H4       HDR5D    0.195000       1.00800           0   0.00000       0.00000    
      1891 IM1H     95       IM1H     C3       CD2R5D    2.50700       11.6110           0  -1.08300       1.10000    
      1892 IM1H     95       IM1H     DC3      DRUD     -2.55400      0.400000           0   0.00000       0.00000    
      1893 IM1H     95       IM1H     H5       HDR5D    0.192000       1.00800           0   0.00000       0.00000    
      1894 IM1H     95       IM1H     C4       CD2R5E    2.72410       11.6110           0  -1.25300       1.20000    
      1895 IM1H     95       IM1H     DC4      DRUD     -2.74710      0.400000           0   0.00000       0.00000    
      1896 IM1H     95       IM1H     H6       HDR5E    0.203000       1.00800           0   0.00000       0.00000    
      1897 IM1H     95       IM1H     N2       ND2R5C    2.04220       13.6070           0 -0.803000       1.00000    
      1898 IM1H     95       IM1H     DN2      DRUD     -2.19920      0.400000           0   0.00000       0.00000    
      1899 IM1H     95       IM1H     H7       HDP1A    0.363000       1.00800           0   0.00000       0.00000    
      1900 IM1H     95       IM1H     LPN21    LPD       0.00000       0.00000          -1   0.00000       0.00000    
      1901 IM1H     96       IM1H     C1       CD33F     2.48500       11.6110           0  -1.18100       1.10000    
      1902 IM1H     96       IM1H     DC1      DRUD     -2.66700      0.400000           0   0.00000       0.00000    
      1903 IM1H     96       IM1H     H1       HDA3A    0.135000       1.00800           0   0.00000       0.00000    
      1904 IM1H     96       IM1H     H2       HDA3A    0.135000       1.00800           0   0.00000       0.00000    
      1905 IM1H     96       IM1H     H3       HDA3A    0.135000       1.00800           0   0.00000       0.00000    
      1906 IM1H     96       IM1H     N1       ND2R5C    2.35720       13.6070           0 -0.803000       1.00000    
      1907 IM1H     96       IM1H     DN1      DRUD     -2.19920      0.400000           0   0.00000       0.00000    
      1908 IM1H     96       IM1H     C2       CD2R5D    2.44700       11.6110           0  -1.08300       1.10000    
      1909 IM1H     96       IM1H     DC2      DRUD     -2.55400      0.400000           0   0.00000       0.00000    
      1910 IM1H     96       IM1H     H4       HDR5D    0.195000       1.00800           0   0.00000       0.00000    
      1911 IM1H     96       IM1H     C3       CD2R5D    2.50700       11.6110           0  -1.08300       1.10000    
      1912 IM1H     96       IM1H     DC3      DRUD     -2.55400      0.400000           0   0.00000       0.00000    
      1913 IM1H     96       IM1H     H5       HDR5D    0.192000       1.00800           0   0.00000       0.00000    
      1914 IM1H     96       IM1H     C4       CD2R5E    2.72410       11.6110           0  -1.25300       1.20000    
      1915 IM1H     96       IM1H     DC4      DRUD     -2.74710      0.400000           0   0.00000       0.00000    
      1916 IM1H     96       IM1H     H6       HDR5E    0.203000       1.00800           0   0.00000       0.00000    
      1917 IM1H     96       IM1H     N2       ND2R5C    2.04220       13.6070           0 -0.803000       1.00000    
      1918 IM1H     96       IM1H     DN2      DRUD     -2.19920      0.400000           0   0.00000       0.00000    
      1919 IM1H     96       IM1H     H7       HDP1A    0.363000       1.00800           0   0.00000       0.00000    
      1920 IM1H     96       IM1H     LPN21    LPD       0.00000       0.00000          -1   0.00000       0.00000    
      1921 IM1H     97       IM1H     C1       CD33F     2.48500       11.6110           0  -1.18100       1.10000    
      1922 IM1H     97       IM1H     DC1      DRUD     -2.66700      0.400000           0   0.00000       0.00000    
      1923 IM1H     97       IM1H     H1       HDA3A    0.135000       1.00800           0   0.00000       0.00000    
      1924 IM1H     97       IM1H     H2       HDA3A    0.135000       1.00800           0   0.00000       0.00000    
      1925 IM1H     97       IM1H     H3       HDA3A    0.135000       1.00800           0   0.00000       0.00000    
      1926 IM1H     97       IM1H     N1       ND2R5C    2.35720       13.6070           0 -0.803000       1.00000    
      1927 IM1H     97       IM1H     DN1      DRUD     -2.19920      0.400000           0   0.00000       0.00000    
      1928 IM1H     97       IM1H     C2       CD2R5D    2.44700       11.6110           0  -1.08300       1.10000    
      1929 IM1H     97       IM1H     DC2      DRUD     -2.55400      0.400000           0   0.00000       0.00000    
      1930 IM1H     97       IM1H     H4       HDR5D    0.195000       1.00800           0   0.00000       0.00000    
      1931 IM1H     97       IM1H     C3       CD2R5D    2.50700       11.6110           0  -1.08300       1.10000    
      1932 IM1H     97       IM1H     DC3      DRUD     -2.55400      0.400000           0   0.00000       0.00000    
      1933 IM1H     97       IM1H     H5       HDR5D    0.192000       1.00800           0   0.00000       0.00000    
      1934 IM1H     97       IM1H     C4       CD2R5E    2.72410       11.6110           0  -1.25300       1.20000    
      1935 IM1H     97       IM1H     DC4      DRUD     -2.74710      0.400000           0   0.00000       0.00000    
      1936 IM1H     97       IM1H     H6       HDR5E    0.203000       1.00800           0   0.00000       0.00000    
      1937 IM1H     97       IM1H     N2       ND2R5C    2.04220       13.6070           0 -0.803000       1.00000    
      1938 IM1H     97       IM1H     DN2      DRUD     -2.19920      0.400000           0   0.00000       0.00000    
      1939 IM1H     97       IM1H     H7       HDP1A    0.363000       1.00800           0   0.00000       0.00000    
      1940 IM1H     97       IM1H     LPN21    LPD       0.00000       0.00000          -1   0.00000       0.00000    
      1941 IM1H     98       IM1H     C1       CD33F     2.48500       11.6110           0  -1.18100       1.10000    
      1942 IM1H     98       IM1H     DC1      DRUD     -2.66700      0.400000           0   0.00000       0.00000    
      1943 IM1H     98       IM1H     H1       HDA3A    0.135000       1.00800           0   0.00000       0.00000    
      1944 IM1H     98       IM1H     H2       HDA3A    0.135000       1.00800           0   0.00000       0.00000    
      1945 IM1H     98       IM1H     H3       HDA3A    0.135000       1.00800           0   0.00000       0.00000    
      1946 IM1H     98       IM1H     N1       ND2R5C    2.35720       13.6070           0 -0.803000       1.00000    
      1947 IM1H     98       IM1H     DN1      DRUD     -2.19920      0.400000           0   0.00000       0.00000    
      1948 IM1H     98       IM1H     C2       CD2R5D    2.44700       11.6110           0  -1.08300       1.10000    
      1949 IM1H     98       IM1H     DC2      DRUD     -2.55400      0.400000           0   0.00000       0.00000    
      1950 IM1H     98       IM1H     H4       HDR5D    0.195000       1.00800           0   0.00000       0.00000    
      1951 IM1H     98       IM1H     C3       CD2R5D    2.50700       11.6110           0  -1.08300       1.10000    
      1952 IM1H     98       IM1H     DC3      DRUD     -2.55400      0.400000           0   0.00000       0.00000    
      1953 IM1H     98       IM1H     H5       HDR5D    0.192000       1.00800           0   0.00000       0.00000    
      1954 IM1H     98       IM1H     C4       CD2R5E    2.72410       11.6110           0  -1.25300       1.20000    
      1955 IM1H     98       IM1H     DC4      DRUD     -2.74710      0.400000           0   0.00000       0.00000    
      1956 IM1H     98       IM1H     H6       HDR5E    0.203000       1.00800           0   0.00000       0.00000    
      1957 IM1H     98       IM1H     N2       ND2R5C    2.04220       13.6070           0 -0.803000       1.00000    
      1958 IM1H     98       IM1H     DN2      DRUD     -2.19920      0.400000           0   0.00000       0.00000    
      1959 IM1H     98       IM1H     H7       HDP1A    0.363000       1.00800           0   0.00000       0.00000    
      1960 IM1H     98       IM1H     LPN21    LPD       0.00000       0.00000          -1   0.00000       0.00000    
      1961 IM1H     99       IM1H     C1       CD33F     2.48500       11.6110           0  -1.18100       1.10000    
      1962 IM1H     99       IM1H     DC1      DRUD     -2.66700      0.400000           0   0.00000       0.00000    
      1963 IM1H     99       IM1H     H1       HDA3A    0.135000       1.00800           0   0.00000       0.00000    
      1964 IM1H     99       IM1H     H2       HDA3A    0.135000       1.00800           0   0.00000       0.00000    
      1965 IM1H     99       IM1H     H3       HDA3A    0.135000       1.00800           0   0.00000       0.00000    
      1966 IM1H     99       IM1H     N1       ND2R5C    2.35720       13.6070           0 -0.803000       1.00000    
      1967 IM1H     99       IM1H     DN1      DRUD     -2.19920      0.400000           0   0.00000       0.00000    
      1968 IM1H     99       IM1H     C2       CD2R5D    2.44700       11.6110           0  -1.08300       1.10000    
      1969 IM1H     99       IM1H     DC2      DRUD     -2.55400      0.400000           0   0.00000       0.00000    
      1970 IM1H     99       IM1H     H4       HDR5D    0.195000       1.00800           0   0.00000       0.00000    
      1971 IM1H     99       IM1H     C3       CD2R5D    2.50700       11.6110           0  -1.08300       1.10000    
      1972 IM1H     99       IM1H     DC3      DRUD     -2.55400      0.400000           0   0.00000       0.00000    
      1973 IM1H     99       IM1H     H5       HDR5D    0.192000       1.00800           0   0.00000       0.00000    
      1974 IM1H     99       IM1H     C4       CD2R5E    2.72410       11.6110           0  -1.25300       1.20000    
      1975 IM1H     99       IM1H     DC4      DRUD     -2.74710      0.400000           0   0.00000       0.00000    
      1976 IM1H     99       IM1H     H6       HDR5E    0.203000       1.00800           0   0.00000       0.00000    
      1977 IM1H     99       IM1H     N2       ND2R5C    2.04220       13.6070           0 -0.803000       1.00000    
      1978 IM1H     99       IM1H     DN2      DRUD     -2.19920      0.400000           0   0.00000       0.00000    
      1979 IM1H     99       IM1H     H7       HDP1A    0.363000       1.00800           0   0.00000       0.00000    
      1980 IM1H     99       IM1H     LPN21    LPD       0.00000       0.00000          -1   0.00000       0.00000    
      1981 IM1H     100      IM1H     C1       CD33F     2.48500       11.6110           0  -1.18100       1.10000    
      1982 IM1H     100      IM1H     DC1      DRUD     -2.66700      0.400000           0   0.00000       0.00000    
      1983 IM1H     100      IM1H     H1       HDA3A    0.135000       1.00800           0   0.00000       0.00000    
      1984 IM1H     100      IM1H     H2       HDA3A    0.135000       1.00800           0   0.00000       0.00000    
      1985 IM1H     100      IM1H     H3       HDA3A    0.135000       1.00800           0   0.00000       0.00000    
      1986 IM1H     100      IM1H     N1       ND2R5C    2.35720       13.6070           0 -0.803000       1.00000    
      1987 IM1H     100      IM1H     DN1      DRUD     -2.19920      0.400000           0   0.00000       0.00000    
      1988 IM1H     100      IM1H     C2       CD2R5D    2.44700       11.6110           0  -1.08300       1.10000    
      1989 IM1H     100      IM1H     DC2      DRUD     -2.55400      0.400000           0   0.00000       0.00000    
      1990 IM1H     100      IM1H     H4       HDR5D    0.195000       1.00800           0   0.00000       0.00000    
      1991 IM1H     100      IM1H     C3       CD2R5D    2.50700       11.6110           0  -1.08300       1.10000    
      1992 IM1H     100      IM1H     DC3      DRUD     -2.55400      0.400000           0   0.00000       0.00000    
      1993 IM1H     100      IM1H     H5       HDR5D    0.192000       1.00800           0   0.00000       0.00000    
      1994 IM1H     100      IM1H     C4       CD2R5E    2.72410       11.6110           0  -1.25300       1.20000    
      1995 IM1H     100      IM1H     DC4      DRUD     -2.74710      0.400000           0   0.00000       0.00000    
      1996 IM1H     100      IM1H     H6       HDR5E    0.203000       1.00800           0   0.00000       0.00000    
      1997 IM1H     100      IM1H     N2       ND2R5C    2.04220       13.6070           0 -0.803000       1.00000    
      1998 IM1H     100      IM1H     DN2      DRUD     -2.19920      0.400000           0   0.00000       0.00000    
      1999 IM1H     100      IM1H     H7       HDP1A    0.363000       1.00800           0   0.00000       0.00000    
      2000 IM1H     100      IM1H     LPN21    LPD       0.00000       0.00000          -1   0.00000       0.00000    
      2001 IM1H     101      IM1H     C1       CD33F     2.48500       11.6110           0  -1.18100       1.10000    
      2002 IM1H     101      IM1H     DC1      DRUD     -2.66700      0.400000           0   0.00000       0.00000    
      2003 IM1H     101      IM1H     H1       HDA3A    0.135000       1.00800           0   0.00000       0.00000    
      2004 IM1H     101      IM1H     H2       HDA3A    0.135000       1.00800           0   0.00000       0.00000    
      2005 IM1H     101      IM1H     H3       HDA3A    0.135000       1.00800           0   0.00000       0.00000    
      2006 IM1H     101      IM1H     N1       ND2R5C    2.35720       13.6070           0 -0.803000       1.00000    
      2007 IM1H     101      IM1H     DN1      DRUD     -2.19920      0.400000           0   0.00000       0.00000    
      2008 IM1H     101      IM1H     C2       CD2R5D    2.44700       11.6110           0  -1.08300       1.10000    
      2009 IM1H     101      IM1H     DC2      DRUD     -2.55400      0.400000           0   0.00000       0.00000    
      2010 IM1H     101      IM1H     H4       HDR5D    0.195000       1.00800           0   0.00000       0.00000    
      2011 IM1H     101      IM1H     C3       CD2R5D    2.50700       11.6110           0  -1.08300       1.10000    
      2012 IM1H     101      IM1H     DC3      DRUD     -2.55400      0.400000           0   0.00000       0.00000    
      2013 IM1H     101      IM1H     H5       HDR5D    0.192000       1.00800           0   0.00000       0.00000    
      2014 IM1H     101      IM1H     C4       CD2R5E    2.72410       11.6110           0  -1.25300       1.20000    
      2015 IM1H     101      IM1H     DC4      DRUD     -2.74710      0.400000           0   0.00000       0.00000    
      2016 IM1H     101      IM1H     H6       HDR5E    0.203000       1.00800           0   0.00000       0.00000    
      2017 IM1H     101      IM1H     N2       ND2R5C    2.04220       13.6070           0 -0.803000       1.00000    
      2018 IM1H     101      IM1H     DN2      DRUD     -2.19920      0.400000           0   0.00000       0.00000    
      2019 IM1H     101      IM1H     H7       HDP1A    0.363000       1.00800           0   0.00000       0.00000    
      2020 IM1H     101      IM1H     LPN21    LPD       0.00000       0.00000          -1   0.00000       0.00000    
      2021 IM1H     102      IM1H     C1       CD33F     2.48500       11.6110           0  -1.18100       1.10000    
      2022 IM1H     102      IM1H     DC1      DRUD     -2.66700      0.400000           0   0.00000       0.00000    
      2023 IM1H     102      IM1H     H1       HDA3A    0.135000       1.00800           0   0.00000       0.00000    
      2024 IM1H     102      IM1H     H2       HDA3A    0.135000       1.00800           0   0.00000       0.00000    
      2025 IM1H     102      IM1H     H3       HDA3A    0.135000       1.00800           0   0.00000       0.00000    
      2026 IM1H     102      IM1H     N1       ND2R5C    2.35720       13.6070           0 -0.803000       1.00000    
      2027 IM1H     102      IM1H     DN1      DRUD     -2.19920      0.400000           0   0.00000       0.00000    
      2028 IM1H     102      IM1H     C2       CD2R5D    2.44700       11.6110           0  -1.08300       1.10000    
      2029 IM1H     102      IM1H     DC2      DRUD     -2.55400      0.400000           0   0.00000       0.00000    
      2030 IM1H     102      IM1H     H4       HDR5D    0.195000       1.00800           0   0.00000       0.00000    
      2031 IM1H     102      IM1H     C3       CD2R5D    2.50700       11.6110           0  -1.08300       1.10000    
      2032 IM1H     102      IM1H     DC3      DRUD     -2.55400      0.400000           0   0.00000       0.00000    
      2033 IM1H     102      IM1H     H5       HDR5D    0.192000       1.00800           0   0.00000       0.00000    
      2034 IM1H     102      IM1H     C4       CD2R5E    2.72410       11.6110           0  -1.25300       1.20000    
      2035 IM1H     102      IM1H     DC4      DRUD     -2.74710      0.400000           0   0.00000       0.00000    
      2036 IM1H     102      IM1H     H6       HDR5E    0.203000       1.00800           0   0.00000       0.00000    
      2037 IM1H     102      IM1H     N2       ND2R5C    2.04220       13.6070           0 -0.803000       1.00000    
      2038 IM1H     102      IM1H     DN2      DRUD     -2.19920      0.400000           0   0.00000       0.00000    
      2039 IM1H     102      IM1H     H7       HDP1A    0.363000       1.00800           0   0.00000       0.00000    
      2040 IM1H     102      IM1H     LPN21    LPD       0.00000       0.00000          -1   0.00000       0.00000    
      2041 IM1H     103      IM1H     C1       CD33F     2.48500       11.6110           0  -1.18100       1.10000    
      2042 IM1H     103      IM1H     DC1      DRUD     -2.66700      0.400000           0   0.00000       0.00000    
      2043 IM1H     103      IM1H     H1       HDA3A    0.135000       1.00800           0   0.00000       0.00000    
      2044 IM1H     103      IM1H     H2       HDA3A    0.135000       1.00800           0   0.00000       0.00000    
      2045 IM1H     103      IM1H     H3       HDA3A    0.135000       1.00800           0   0.00000       0.00000    
      2046 IM1H     103      IM1H     N1       ND2R5C    2.35720       13.6070           0 -0.803000       1.00000    
      2047 IM1H     103      IM1H     DN1      DRUD     -2.19920      0.400000           0   0.00000       0.00000    
      2048 IM1H     103      IM1H     C2       CD2R5D    2.44700       11.6110           0  -1.08300       1.10000    
      2049 IM1H     103      IM1H     DC2      DRUD     -2.55400      0.400000           0   0.00000       0.00000    
      2050 IM1H     103      IM1H     H4       HDR5D    0.195000       1.00800           0   0.00000       0.00000    
      2051 IM1H     103      IM1H     C3       CD2R5D    2.50700       11.6110           0  -1.08300       1.10000    
      2052 IM1H     103      IM1H     DC3      DRUD     -2.55400      0.400000           0   0.00000       0.00000    
      2053 IM1H     103      IM1H     H5       HDR5D    0.192000       1.00800           0   0.00000       0.00000    
      2054 IM1H     103      IM1H     C4       CD2R5E    2.72410       11.6110           0  -1.25300       1.20000    
      2055 IM1H     103      IM1H     DC4      DRUD     -2.74710      0.400000           0   0.00000       0.00000    
      2056 IM1H     103      IM1H     H6       HDR5E    0.203000       1.00800           0   0.00000       0.00000    
      2057 IM1H     103      IM1H     N2       ND2R5C    2.04220       13.6070           0 -0.803000       1.00000    
      2058 IM1H     103      IM1H     DN2      DRUD     -2.19920      0.400000           0   0.00000       0.00000    
      2059 IM1H     103      IM1H     H7       HDP1A    0.363000       1.00800           0   0.00000       0.00000    
      2060 IM1H     103      IM1H     LPN21    LPD       0.00000       0.00000          -1   0.00000       0.00000    
      2061 IM1H     104      IM1H     C1       CD33F     2.48500       11.6110           0  -1.18100       1.10000    
      2062 IM1H     104      IM1H     DC1      DRUD     -2.66700      0.400000           0   0.00000       0.00000    
      2063 IM1H     104      IM1H     H1       HDA3A    0.135000       1.00800           0   0.00000       0.00000    
      2064 IM1H     104      IM1H     H2       HDA3A    0.135000       1.00800           0   0.00000       0.00000    
      2065 IM1H     104      IM1H     H3       HDA3A    0.135000       1.00800           0   0.00000       0.00000    
      2066 IM1H     104      IM1H     N1       ND2R5C    2.35720       13.6070           0 -0.803000       1.00000    
      2067 IM1H     104      IM1H     DN1      DRUD     -2.19920      0.400000           0   0.00000       0.00000    
      2068 IM1H     104      IM1H     C2       CD2R5D    2.44700       11.6110           0  -1.08300       1.10000    
      2069 IM1H     104      IM1H     DC2      DRUD     -2.55400      0.400000           0   0.00000       0.00000    
      2070 IM1H     104      IM1H     H4       HDR5D    0.195000       1.00800           0   0.00000       0.00000    
      2071 IM1H     104      IM1H     C3       CD2R5D    2.50700       11.6110           0  -1.08300       1.10000    
      2072 IM1H     104      IM1H     DC3      DRUD     -2.55400      0.400000           0   0.00000       0.00000    
      2073 IM1H     104      IM1H     H5       HDR5D    0.192000       1.00800           0   0.00000       0.00000    
      2074 IM1H     104      IM1H     C4       CD2R5E    2.72410       11.6110           0  -1.25300       1.20000    
      2075 IM1H     104      IM1H     DC4      DRUD     -2.74710      0.400000           0   0.00000       0.00000    
      2076 IM1H     104      IM1H     H6       HDR5E    0.203000       1.00800           0   0.00000       0.00000    
      2077 IM1H     104      IM1H     N2       ND2R5C    2.04220       13.6070           0 -0.803000       1.00000    
      2078 IM1H     104      IM1H     DN2      DRUD     -2.19920      0.400000           0   0.00000       0.00000    
      2079 IM1H     104      IM1H     H7       HDP1A    0.363000       1.00800           0   0.00000       0.00000    
      2080 IM1H     104      IM1H     LPN21    LPD       0.00000       0.00000          -1   0.00000       0.00000    
      2081 IM1H     105      IM1H     C1       CD33F     2.48500       11.6110           0  -1.18100       1.10000    
      2082 IM1H     105      IM1H     DC1      DRUD     -2.66700      0.400000           0   0.00000       0.00000    
      2083 IM1H     105      IM1H     H1       HDA3A    0.135000       1.00800           0   0.00000       0.00000    
      2084 IM1H     105      IM1H     H2       HDA3A    0.135000       1.00800           0   0.00000       0.00000    
      2085 IM1H     105      IM1H     H3       HDA3A    0.135000       1.00800           0   0.00000       0.00000    
      2086 IM1H     105      IM1H     N1       ND2R5C    2.35720       13.6070           0 -0.803000       1.00000    
      2087 IM1H     105      IM1H     DN1      DRUD     -2.19920      0.400000           0   0.00000       0.00000    
      2088 IM1H     105      IM1H     C2       CD2R5D    2.44700       11.6110           0  -1.08300       1.10000    
      2089 IM1H     105      IM1H     DC2      DRUD     -2.55400      0.400000           0   0.00000       0.00000    
      2090 IM1H     105      IM1H     H4       HDR5D    0.195000       1.00800           0   0.00000       0.00000    
      2091 IM1H     105      IM1H     C3       CD2R5D    2.50700       11.6110           0  -1.08300       1.10000    
      2092 IM1H     105      IM1H     DC3      DRUD     -2.55400      0.400000           0   0.00000       0.00000    
      2093 IM1H     105      IM1H     H5       HDR5D    0.192000       1.00800           0   0.00000       0.00000    
      2094 IM1H     105      IM1H     C4       CD2R5E    2.72410       11.6110           0  -1.25300       1.20000    
      2095 IM1H     105      IM1H     DC4      DRUD     -2.74710      0.400000           0   0.00000       0.00000    
      2096 IM1H     105      IM1H     H6       HDR5E    0.203000       1.00800           0   0.00000       0.00000    
      2097 IM1H     105      IM1H     N2       ND2R5C    2.04220       13.6070           0 -0.803000       1.00000    
      2098 IM1H     105      IM1H     DN2      DRUD     -2.19920      0.400000           0   0.00000       0.00000    
      2099 IM1H     105      IM1H     H7       HDP1A    0.363000       1.00800           0   0.00000       0.00000    
      2100 IM1H     105      IM1H     LPN21    LPD       0.00000       0.00000          -1   0.00000       0.00000    
      2101 IM1H     106      IM1H     C1       CD33F     2.48500       11.6110           0  -1.18100       1.10000    
      2102 IM1H     106      IM1H     DC1      DRUD     -2.66700      0.400000           0   0.00000       0.00000    
      2103 IM1H     106      IM1H     H1       HDA3A    0.135000       1.00800           0   0.00000       0.00000    
      2104 IM1H     106      IM1H     H2       HDA3A    0.135000       1.00800           0   0.00000       0.00000    
      2105 IM1H     106      IM1H     H3       HDA3A    0.135000       1.00800           0   0.00000       0.00000    
      2106 IM1H     106      IM1H     N1       ND2R5C    2.35720       13.6070           0 -0.803000       1.00000    
      2107 IM1H     106      IM1H     DN1      DRUD     -2.19920      0.400000           0   0.00000       0.00000    
      2108 IM1H     106      IM1H     C2       CD2R5D    2.44700       11.6110           0  -1.08300       1.10000    
      2109 IM1H     106      IM1H     DC2      DRUD     -2.55400      0.400000           0   0.00000       0.00000    
      2110 IM1H     106      IM1H     H4       HDR5D    0.195000       1.00800           0   0.00000       0.00000    
      2111 IM1H     106      IM1H     C3       CD2R5D    2.50700       11.6110           0  -1.08300       1.10000    
      2112 IM1H     106      IM1H     DC3      DRUD     -2.55400      0.400000           0   0.00000       0.00000    
      2113 IM1H     106      IM1H     H5       HDR5D    0.192000       1.00800           0   0.00000       0.00000    
      2114 IM1H     106      IM1H     C4       CD2R5E    2.72410       11.6110           0  -1.25300       1.20000    
      2115 IM1H     106      IM1H     DC4      DRUD     -2.74710      0.400000           0   0.00000       0.00000    
      2116 IM1H     106      IM1H     H6       HDR5E    0.203000       1.00800           0   0.00000       0.00000    
      2117 IM1H     106      IM1H     N2       ND2R5C    2.04220       13.6070           0 -0.803000       1.00000    
      2118 IM1H     106      IM1H     DN2      DRUD     -2.19920      0.400000           0   0.00000       0.00000    
      2119 IM1H     106      IM1H     H7       HDP1A    0.363000       1.00800           0   0.00000       0.00000    
      2120 IM1H     106      IM1H     LPN21    LPD       0.00000       0.00000          -1   0.00000       0.00000    
      2121 IM1H     107      IM1H     C1       CD33F     2.48500       11.6110           0  -1.18100       1.10000    
      2122 IM1H     107      IM1H     DC1      DRUD     -2.66700      0.400000           0   0.00000       0.00000    
      2123 IM1H     107      IM1H     H1       HDA3A    0.135000       1.00800           0   0.00000       0.00000    
      2124 IM1H     107      IM1H     H2       HDA3A    0.135000       1.00800           0   0.00000       0.00000    
      2125 IM1H     107      IM1H     H3       HDA3A    0.135000       1.00800           0   0.00000       0.00000    
      2126 IM1H     107      IM1H     N1       ND2R5C    2.35720       13.6070           0 -0.803000       1.00000    
      2127 IM1H     107      IM1H     DN1      DRUD     -2.19920      0.400000           0   0.00000       0.00000    
      2128 IM1H     107      IM1H     C2       CD2R5D    2.44700       11.6110           0  -1.08300       1.10000    
      2129 IM1H     107      IM1H     DC2      DRUD     -2.55400      0.400000           0   0.00000       0.00000    
      2130 IM1H     107      IM1H     H4       HDR5D    0.195000       1.00800           0   0.00000       0.00000    
      2131 IM1H     107      IM1H     C3       CD2R5D    2.50700       11.6110           0  -1.08300       1.10000    
      2132 IM1H     107      IM1H     DC3      DRUD     -2.55400      0.400000           0   0.00000       0.00000    
      2133 IM1H     107      IM1H     H5       HDR5D    0.192000       1.00800           0   0.00000       0.00000    
      2134 IM1H     107      IM1H     C4       CD2R5E    2.72410       11.6110           0  -1.25300       1.20000    
      2135 IM1H     107      IM1H     DC4      DRUD     -2.74710      0.400000           0   0.00000       0.00000    
      2136 IM1H     107      IM1H     H6       HDR5E    0.203000       1.00800           0   0.00000       0.00000    
      2137 IM1H     107      IM1H     N2       ND2R5C    2.04220       13.6070           0 -0.803000       1.00000    
      2138 IM1H     107      IM1H     DN2      DRUD     -2.19920      0.400000           0   0.00000       0.00000    
      2139 IM1H     107      IM1H     H7       HDP1A    0.363000       1.00800           0   0.00000       0.00000    
      2140 IM1H     107      IM1H     LPN21    LPD       0.00000       0.00000          -1   0.00000       0.00000    
      2141 IM1H     108      IM1H     C1       CD33F     2.48500       11.6110           0  -1.18100       1.10000    
      2142 IM1H     108      IM1H     DC1      DRUD     -2.66700      0.400000           0   0.00000       0.00000    
      2143 IM1H     108      IM1H     H1       HDA3A    0.135000       1.00800           0   0.00000       0.00000    
      2144 IM1H     108      IM1H     H2       HDA3A    0.135000       1.00800           0   0.00000       0.00000    
      2145 IM1H     108      IM1H     H3       HDA3A    0.135000       1.00800           0   0.00000       0.00000    
      2146 IM1H     108      IM1H     N1       ND2R5C    2.35720       13.6070           0 -0.803000       1.00000    
      2147 IM1H     108      IM1H     DN1      DRUD     -2.19920      0.400000           0   0.00000       0.00000    
      2148 IM1H     108      IM1H     C2       CD2R5D    2.44700       11.6110           0  -1.08300       1.10000    
      2149 IM1H     108      IM1H     DC2      DRUD     -2.55400      0.400000           0   0.00000       0.00000    
      2150 IM1H     108      IM1H     H4       HDR5D    0.195000       1.00800           0   0.00000       0.00000    
      2151 IM1H     108      IM1H     C3       CD2R5D    2.50700       11.6110           0  -1.08300       1.10000    
      2152 IM1H     108      IM1H     DC3      DRUD     -2.55400      0.400000           0   0.00000       0.00000    
      2153 IM1H     108      IM1H     H5       HDR5D    0.192000       1.00800           0   0.00000       0.00000    
      2154 IM1H     108      IM1H     C4       CD2R5E    2.72410       11.6110           0  -1.25300       1.20000    
      2155 IM1H     108      IM1H     DC4      DRUD     -2.74710      0.400000           0   0.00000       0.00000    
      2156 IM1H     108      IM1H     H6       HDR5E    0.203000       1.00800           0   0.00000       0.00000    
      2157 IM1H     108      IM1H     N2       ND2R5C    2.04220       13.6070           0 -0.803000       1.00000    
      2158 IM1H     108      IM1H     DN2      DRUD     -2.19920      0.400000           0   0.00000       0.00000    
      2159 IM1H     108      IM1H     H7       HDP1A    0.363000       1.00800           0   0.00000       0.00000    
      2160 IM1H     108      IM1H     LPN21    LPD       0.00000       0.00000          -1   0.00000       0.00000    
      2161 IM1H     109      IM1H     C1       CD33F     2.48500       11.6110           0  -1.18100       1.10000    
      2162 IM1H     109      IM1H     DC1      DRUD     -2.66700      0.400000           0   0.00000       0.00000    
      2163 IM1H     109      IM1H     H1       HDA3A    0.135000       1.00800           0   0.00000       0.00000    
      2164 IM1H     109      IM1H     H2       HDA3A    0.135000       1.00800           0   0.00000       0.00000    
      2165 IM1H     109      IM1H     H3       HDA3A    0.135000       1.00800           0   0.00000       0.00000    
      2166 IM1H     109      IM1H     N1       ND2R5C    2.35720       13.6070           0 -0.803000       1.00000    
      2167 IM1H     109      IM1H     DN1      DRUD     -2.19920      0.400000           0   0.00000       0.00000    
      2168 IM1H     109      IM1H     C2       CD2R5D    2.44700       11.6110           0  -1.08300       1.10000    
      2169 IM1H     109      IM1H     DC2      DRUD     -2.55400      0.400000           0   0.00000       0.00000    
      2170 IM1H     109      IM1H     H4       HDR5D    0.195000       1.00800           0   0.00000       0.00000    
      2171 IM1H     109      IM1H     C3       CD2R5D    2.50700       11.6110           0  -1.08300       1.10000    
      2172 IM1H     109      IM1H     DC3      DRUD     -2.55400      0.400000           0   0.00000       0.00000    
      2173 IM1H     109      IM1H     H5       HDR5D    0.192000       1.00800           0   0.00000       0.00000    
      2174 IM1H     109      IM1H     C4       CD2R5E    2.72410       11.6110           0  -1.25300       1.20000    
      2175 IM1H     109      IM1H     DC4      DRUD     -2.74710      0.400000           0   0.00000       0.00000    
      2176 IM1H     109      IM1H     H6       HDR5E    0.203000       1.00800           0   0.00000       0.00000    
      2177 IM1H     109      IM1H     N2       ND2R5C    2.04220       13.6070           0 -0.803000       1.00000    
      2178 IM1H     109      IM1H     DN2      DRUD     -2.19920      0.400000           0   0.00000       0.00000    
      2179 IM1H     109      IM1H     H7       HDP1A    0.363000       1.00800           0   0.00000       0.00000    
      2180 IM1H     109      IM1H     LPN21    LPD       0.00000       0.00000          -1   0.00000       0.00000    
      2181 IM1H     110      IM1H     C1       CD33F     2.48500       11.6110           0  -1.18100       1.10000    
      2182 IM1H     110      IM1H     DC1      DRUD     -2.66700      0.400000           0   0.00000       0.00000    
      2183 IM1H     110      IM1H     H1       HDA3A    0.135000       1.00800           0   0.00000       0.00000    
      2184 IM1H     110      IM1H     H2       HDA3A    0.135000       1.00800           0   0.00000       0.00000    
      2185 IM1H     110      IM1H     H3       HDA3A    0.135000       1.00800           0   0.00000       0.00000    
      2186 IM1H     110      IM1H     N1       ND2R5C    2.35720       13.6070           0 -0.803000       1.00000    
      2187 IM1H     110      IM1H     DN1      DRUD     -2.19920      0.400000           0   0.00000       0.00000    
      2188 IM1H     110      IM1H     C2       CD2R5D    2.44700       11.6110           0  -1.08300       1.10000    
      2189 IM1H     110      IM1H     DC2      DRUD     -2.55400      0.400000           0   0.00000       0.00000    
      2190 IM1H     110      IM1H     H4       HDR5D    0.195000       1.00800           0   0.00000       0.00000    
      2191 IM1H     110      IM1H     C3       CD2R5D    2.50700       11.6110           0  -1.08300       1.10000    
      2192 IM1H     110      IM1H     DC3      DRUD     -2.55400      0.400000           0   0.00000       0.00000    
      2193 IM1H     110      IM1H     H5       HDR5D    0.192000       1.00800           0   0.00000       0.00000    
      2194 IM1H     110      IM1H     C4       CD2R5E    2.72410       11.6110           0  -1.25300       1.20000    
      2195 IM1H     110      IM1H     DC4      DRUD     -2.74710      0.400000           0   0.00000       0.00000    
      2196 IM1H     110      IM1H     H6       HDR5E    0.203000       1.00800           0   0.00000       0.00000    
      2197 IM1H     110      IM1H     N2       ND2R5C    2.04220       13.6070           0 -0.803000       1.00000    
      2198 IM1H     110      IM1H     DN2      DRUD     -2.19920      0.400000           0   0.00000       0.00000    
      2199 IM1H     110      IM1H     H7       HDP1A    0.363000       1.00800           0   0.00000       0.00000    
      2200 IM1H     110      IM1H     LPN21    LPD       0.00000       0.00000          -1   0.00000       0.00000    
      2201 IM1H     111      IM1H     C1       CD33F     2.48500       11.6110           0  -1.18100       1.10000    
      2202 IM1H     111      IM1H     DC1      DRUD     -2.66700      0.400000           0   0.00000       0.00000    
      2203 IM1H     111      IM1H     H1       HDA3A    0.135000       1.00800           0   0.00000       0.00000    
      2204 IM1H     111      IM1H     H2       HDA3A    0.135000       1.00800           0   0.00000       0.00000    
      2205 IM1H     111      IM1H     H3       HDA3A    0.135000       1.00800           0   0.00000       0.00000    
      2206 IM1H     111      IM1H     N1       ND2R5C    2.35720       13.6070           0 -0.803000       1.00000    
      2207 IM1H     111      IM1H     DN1      DRUD     -2.19920      0.400000           0   0.00000       0.00000    
      2208 IM1H     111      IM1H     C2       CD2R5D    2.44700       11.6110           0  -1.08300       1.10000    
      2209 IM1H     111      IM1H     DC2      DRUD     -2.55400      0.400000           0   0.00000       0.00000    
      2210 IM1H     111      IM1H     H4       HDR5D    0.195000       1.00800           0   0.00000       0.00000    
      2211 IM1H     111      IM1H     C3       CD2R5D    2.50700       11.6110           0  -1.08300       1.10000    
      2212 IM1H     111      IM1H     DC3      DRUD     -2.55400      0.400000           0   0.00000       0.00000    
      2213 IM1H     111      IM1H     H5       HDR5D    0.192000       1.00800           0   0.00000       0.00000    
      2214 IM1H     111      IM1H     C4       CD2R5E    2.72410       11.6110           0  -1.25300       1.20000    
      2215 IM1H     111      IM1H     DC4      DRUD     -2.74710      0.400000           0   0.00000       0.00000    
      2216 IM1H     111      IM1H     H6       HDR5E    0.203000       1.00800           0   0.00000       0.00000    
      2217 IM1H     111      IM1H     N2       ND2R5C    2.04220       13.6070           0 -0.803000       1.00000    
      2218 IM1H     111      IM1H     DN2      DRUD     -2.19920      0.400000           0   0.00000       0.00000    
      2219 IM1H     111      IM1H     H7       HDP1A    0.363000       1.00800           0   0.00000       0.00000    
      2220 IM1H     111      IM1H     LPN21    LPD       0.00000       0.00000          -1   0.00000       0.00000    
      2221 IM1H     112      IM1H     C1       CD33F     2.48500       11.6110           0  -1.18100       1.10000    
      2222 IM1H     112      IM1H     DC1      DRUD     -2.66700      0.400000           0   0.00000       0.00000    
      2223 IM1H     112      IM1H     H1       HDA3A    0.135000       1.00800           0   0.00000       0.00000    
      2224 IM1H     112      IM1H     H2       HDA3A    0.135000       1.00800           0   0.00000       0.00000    
      2225 IM1H     112      IM1H     H3       HDA3A    0.135000       1.00800           0   0.00000       0.00000    
      2226 IM1H     112      IM1H     N1       ND2R5C    2.35720       13.6070           0 -0.803000       1.00000    
      2227 IM1H     112      IM1H     DN1      DRUD     -2.19920      0.400000           0   0.00000       0.00000    
      2228 IM1H     112      IM1H     C2       CD2R5D    2.44700       11.6110           0  -1.08300       1.10000    
      2229 IM1H     112      IM1H     DC2      DRUD     -2.55400      0.400000           0   0.00000       0.00000    
      2230 IM1H     112      IM1H     H4       HDR5D    0.195000       1.00800           0   0.00000       0.00000    
      2231 IM1H     112      IM1H     C3       CD2R5D    2.50700       11.6110           0  -1.08300       1.10000    
      2232 IM1H     112      IM1H     DC3      DRUD     -2.55400      0.400000           0   0.00000       0.00000    
      2233 IM1H     112      IM1H     H5       HDR5D    0.192000       1.00800           0   0.00000       0.00000    
      2234 IM1H     112      IM1H     C4       CD2R5E    2.72410       11.6110           0  -1.25300       1.20000    
      2235 IM1H     112      IM1H     DC4      DRUD     -2.74710      0.400000           0   0.00000       0.00000    
      2236 IM1H     112      IM1H     H6       HDR5E    0.203000       1.00800           0   0.00000       0.00000    
      2237 IM1H     112      IM1H     N2       ND2R5C    2.04220       13.6070           0 -0.803000       1.00000    
      2238 IM1H     112      IM1H     DN2      DRUD     -2.19920      0.400000           0   0.00000       0.00000    
      2239 IM1H     112      IM1H     H7       HDP1A    0.363000       1.00800           0   0.00000       0.00000    
      2240 IM1H     112      IM1H     LPN21    LPD       0.00000       0.00000          -1   0.00000       0.00000    
      2241 IM1H     113      IM1H     C1       CD33F     2.48500       11.6110           0  -1.18100       1.10000    
      2242 IM1H     113      IM1H     DC1      DRUD     -2.66700      0.400000           0   0.00000       0.00000    
      2243 IM1H     113      IM1H     H1       HDA3A    0.135000       1.00800           0   0.00000       0.00000    
      2244 IM1H     113      IM1H     H2       HDA3A    0.135000       1.00800           0   0.00000       0.00000    
      2245 IM1H     113      IM1H     H3       HDA3A    0.135000       1.00800           0   0.00000       0.00000    
      2246 IM1H     113      IM1H     N1       ND2R5C    2.35720       13.6070           0 -0.803000       1.00000    
      2247 IM1H     113      IM1H     DN1      DRUD     -2.19920      0.400000           0   0.00000       0.00000    
      2248 IM1H     113      IM1H     C2       CD2R5D    2.44700       11.6110           0  -1.08300       1.10000    
      2249 IM1H     113      IM1H     DC2      DRUD     -2.55400      0.400000           0   0.00000       0.00000    
      2250 IM1H     113      IM1H     H4       HDR5D    0.195000       1.00800           0   0.00000       0.00000    
      2251 IM1H     113      IM1H     C3       CD2R5D    2.50700       11.6110           0  -1.08300       1.10000    
      2252 IM1H     113      IM1H     DC3      DRUD     -2.55400      0.400000           0   0.00000       0.00000    
      2253 IM1H     113      IM1H     H5       HDR5D    0.192000       1.00800           0   0.00000       0.00000    
      2254 IM1H     113      IM1H     C4       CD2R5E    2.72410       11.6110           0  -1.25300       1.20000    
      2255 IM1H     113      IM1H     DC4      DRUD     -2.74710      0.400000           0   0.00000       0.00000    
      2256 IM1H     113      IM1H     H6       HDR5E    0.203000       1.00800           0   0.00000       0.00000    
      2257 IM1H     113      IM1H     N2       ND2R5C    2.04220       13.6070           0 -0.803000       1.00000    
      2258 IM1H     113      IM1H     DN2      DRUD     -2.19920      0.400000           0   0.00000       0.00000    
      2259 IM1H     113      IM1H     H7       HDP1A    0.363000       1.00800           0   0.00000       0.00000    
      2260 IM1H     113      IM1H     LPN21    LPD       0.00000       0.00000          -1   0.00000       0.00000    
      2261 IM1H     114      IM1H     C1       CD33F     2.48500       11.6110           0  -1.18100       1.10000    
      2262 IM1H     114      IM1H     DC1      DRUD     -2.66700      0.400000           0   0.00000       0.00000    
      2263 IM1H     114      IM1H     H1       HDA3A    0.135000       1.00800           0   0.00000       0.00000    
      2264 IM1H     114      IM1H     H2       HDA3A    0.135000       1.00800           0   0.00000       0.00000    
      2265 IM1H     114      IM1H     H3       HDA3A    0.135000       1.00800           0   0.00000       0.00000    
      2266 IM1H     114      IM1H     N1       ND2R5C    2.35720       13.6070           0 -0.803000       1.00000    
      2267 IM1H     114      IM1H     DN1      DRUD     -2.19920      0.400000           0   0.00000       0.00000    
      2268 IM1H     114      IM1H     C2       CD2R5D    2.44700       11.6110           0  -1.08300       1.10000    
      2269 IM1H     114      IM1H     DC2      DRUD     -2.55400      0.400000           0   0.00000       0.00000    
      2270 IM1H     114      IM1H     H4       HDR5D    0.195000       1.00800           0   0.00000       0.00000    
      2271 IM1H     114      IM1H     C3       CD2R5D    2.50700       11.6110           0  -1.08300       1.10000    
      2272 IM1H     114      IM1H     DC3      DRUD     -2.55400      0.400000           0   0.00000       0.00000    
      2273 IM1H     114      IM1H     H5       HDR5D    0.192000       1.00800           0   0.00000       0.00000    
      2274 IM1H     114      IM1H     C4       CD2R5E    2.72410       11.6110           0  -1.25300       1.20000    
      2275 IM1H     114      IM1H     DC4      DRUD     -2.74710      0.400000           0   0.00000       0.00000    
      2276 IM1H     114      IM1H     H6       HDR5E    0.203000       1.00800           0   0.00000       0.00000    
      2277 IM1H     114      IM1H     N2       ND2R5C    2.04220       13.6070           0 -0.803000       1.00000    
      2278 IM1H     114      IM1H     DN2      DRUD     -2.19920      0.400000           0   0.00000       0.00000    
      2279 IM1H     114      IM1H     H7       HDP1A    0.363000       1.00800           0   0.00000       0.00000    
      2280 IM1H     114      IM1H     LPN21    LPD       0.00000       0.00000          -1   0.00000       0.00000    
      2281 IM1H     115      IM1H     C1       CD33F     2.48500       11.6110           0  -1.18100       1.10000    
      2282 IM1H     115      IM1H     DC1      DRUD     -2.66700      0.400000           0   0.00000       0.00000    
      2283 IM1H     115      IM1H     H1       HDA3A    0.135000       1.00800           0   0.00000       0.00000    
      2284 IM1H     115      IM1H     H2       HDA3A    0.135000       1.00800           0   0.00000       0.00000    
      2285 IM1H     115      IM1H     H3       HDA3A    0.135000       1.00800           0   0.00000       0.00000    
      2286 IM1H     115      IM1H     N1       ND2R5C    2.35720       13.6070           0 -0.803000       1.00000    
      2287 IM1H     115      IM1H     DN1      DRUD     -2.19920      0.400000           0   0.00000       0.00000    
      2288 IM1H     115      IM1H     C2       CD2R5D    2.44700       11.6110           0  -1.08300       1.10000    
      2289 IM1H     115      IM1H     DC2      DRUD     -2.55400      0.400000           0   0.00000       0.00000    
      2290 IM1H     115      IM1H     H4       HDR5D    0.195000       1.00800           0   0.00000       0.00000    
      2291 IM1H     115      IM1H     C3       CD2R5D    2.50700       11.6110           0  -1.08300       1.10000    
      2292 IM1H     115      IM1H     DC3      DRUD     -2.55400      0.400000           0   0.00000       0.00000    
      2293 IM1H     115      IM1H     H5       HDR5D    0.192000       1.00800           0   0.00000       0.00000    
      2294 IM1H     115      IM1H     C4       CD2R5E    2.72410       11.6110           0  -1.25300       1.20000    
      2295 IM1H     115      IM1H     DC4      DRUD     -2.74710      0.400000           0   0.00000       0.00000    
      2296 IM1H     115      IM1H     H6       HDR5E    0.203000       1.00800           0   0.00000       0.00000    
      2297 IM1H     115      IM1H     N2       ND2R5C    2.04220       13.6070           0 -0.803000       1.00000    
      2298 IM1H     115      IM1H     DN2      DRUD     -2.19920      0.400000           0   0.00000       0.00000    
      2299 IM1H     115      IM1H     H7       HDP1A    0.363000       1.00800           0   0.00000       0.00000    
      2300 IM1H     115      IM1H     LPN21    LPD       0.00000       0.00000          -1   0.00000       0.00000    
      2301 IM1H     116      IM1H     C1       CD33F     2.48500       11.6110           0  -1.18100       1.10000    
      2302 IM1H     116      IM1H     DC1      DRUD     -2.66700      0.400000           0   0.00000       0.00000    
      2303 IM1H     116      IM1H     H1       HDA3A    0.135000       1.00800           0   0.00000       0.00000    
      2304 IM1H     116      IM1H     H2       HDA3A    0.135000       1.00800           0   0.00000       0.00000    
      2305 IM1H     116      IM1H     H3       HDA3A    0.135000       1.00800           0   0.00000       0.00000    
      2306 IM1H     116      IM1H     N1       ND2R5C    2.35720       13.6070           0 -0.803000       1.00000    
      2307 IM1H     116      IM1H     DN1      DRUD     -2.19920      0.400000           0   0.00000       0.00000    
      2308 IM1H     116      IM1H     C2       CD2R5D    2.44700       11.6110           0  -1.08300       1.10000    
      2309 IM1H     116      IM1H     DC2      DRUD     -2.55400      0.400000           0   0.00000       0.00000    
      2310 IM1H     116      IM1H     H4       HDR5D    0.195000       1.00800           0   0.00000       0.00000    
      2311 IM1H     116      IM1H     C3       CD2R5D    2.50700       11.6110           0  -1.08300       1.10000    
      2312 IM1H     116      IM1H     DC3      DRUD     -2.55400      0.400000           0   0.00000       0.00000    
      2313 IM1H     116      IM1H     H5       HDR5D    0.192000       1.00800           0   0.00000       0.00000    
      2314 IM1H     116      IM1H     C4       CD2R5E    2.72410       11.6110           0  -1.25300       1.20000    
      2315 IM1H     116      IM1H     DC4      DRUD     -2.74710      0.400000           0   0.00000       0.00000    
      2316 IM1H     116      IM1H     H6       HDR5E    0.203000       1.00800           0   0.00000       0.00000    
      2317 IM1H     116      IM1H     N2       ND2R5C    2.04220       13.6070           0 -0.803000       1.00000    
      2318 IM1H     116      IM1H     DN2      DRUD     -2.19920      0.400000           0   0.00000       0.00000    
      2319 IM1H     116      IM1H     H7       HDP1A    0.363000       1.00800           0   0.00000       0.00000    
      2320 IM1H     116      IM1H     LPN21    LPD       0.00000       0.00000          -1   0.00000       0.00000    
      2321 IM1H     117      IM1H     C1       CD33F     2.48500       11.6110           0  -1.18100       1.10000    
      2322 IM1H     117      IM1H     DC1      DRUD     -2.66700      0.400000           0   0.00000       0.00000    
      2323 IM1H     117      IM1H     H1       HDA3A    0.135000       1.00800           0   0.00000       0.00000    
      2324 IM1H     117      IM1H     H2       HDA3A    0.135000       1.00800           0   0.00000       0.00000    
      2325 IM1H     117      IM1H     H3       HDA3A    0.135000       1.00800           0   0.00000       0.00000    
      2326 IM1H     117      IM1H     N1       ND2R5C    2.35720       13.6070           0 -0.803000       1.00000    
      2327 IM1H     117      IM1H     DN1      DRUD     -2.19920      0.400000           0   0.00000       0.00000    
      2328 IM1H     117      IM1H     C2       CD2R5D    2.44700       11.6110           0  -1.08300       1.10000    
      2329 IM1H     117      IM1H     DC2      DRUD     -2.55400      0.400000           0   0.00000       0.00000    
      2330 IM1H     117      IM1H     H4       HDR5D    0.195000       1.00800           0   0.00000       0.00000    
      2331 IM1H     117      IM1H     C3       CD2R5D    2.50700       11.6110           0  -1.08300       1.10000    
      2332 IM1H     117      IM1H     DC3      DRUD     -2.55400      0.400000           0   0.00000       0.00000    
      2333 IM1H     117      IM1H     H5       HDR5D    0.192000       1.00800           0   0.00000       0.00000    
      2334 IM1H     117      IM1H     C4       CD2R5E    2.72410       11.6110           0  -1.25300       1.20000    
      2335 IM1H     117      IM1H     DC4      DRUD     -2.74710      0.400000           0   0.00000       0.00000    
      2336 IM1H     117      IM1H     H6       HDR5E    0.203000       1.00800           0   0.00000       0.00000    
      2337 IM1H     117      IM1H     N2       ND2R5C    2.04220       13.6070           0 -0.803000       1.00000    
      2338 IM1H     117      IM1H     DN2      DRUD     -2.19920      0.400000           0   0.00000       0.00000    
      2339 IM1H     117      IM1H     H7       HDP1A    0.363000       1.00800           0   0.00000       0.00000    
      2340 IM1H     117      IM1H     LPN21    LPD       0.00000       0.00000          -1   0.00000       0.00000    
      2341 IM1H     118      IM1H     C1       CD33F     2.48500       11.6110           0  -1.18100       1.10000    
      2342 IM1H     118      IM1H     DC1      DRUD     -2.66700      0.400000           0   0.00000       0.00000    
      2343 IM1H     118      IM1H     H1       HDA3A    0.135000       1.00800           0   0.00000       0.00000    
      2344 IM1H     118      IM1H     H2       HDA3A    0.135000       1.00800           0   0.00000       0.00000    
      2345 IM1H     118      IM1H     H3       HDA3A    0.135000       1.00800           0   0.00000       0.00000    
      2346 IM1H     118      IM1H     N1       ND2R5C    2.35720       13.6070           0 -0.803000       1.00000    
      2347 IM1H     118      IM1H     DN1      DRUD     -2.19920      0.400000           0   0.00000       0.00000    
      2348 IM1H     118      IM1H     C2       CD2R5D    2.44700       11.6110           0  -1.08300       1.10000    
      2349 IM1H     118      IM1H     DC2      DRUD     -2.55400      0.400000           0   0.00000       0.00000    
      2350 IM1H     118      IM1H     H4       HDR5D    0.195000       1.00800           0   0.00000       0.00000    
      2351 IM1H     118      IM1H     C3       CD2R5D    2.50700       11.6110           0  -1.08300       1.10000    
      2352 IM1H     118      IM1H     DC3      DRUD     -2.55400      0.400000           0   0.00000       0.00000    
      2353 IM1H     118      IM1H     H5       HDR5D    0.192000       1.00800           0   0.00000       0.00000    
      2354 IM1H     118      IM1H     C4       CD2R5E    2.72410       11.6110           0  -1.25300       1.20000    
      2355 IM1H     118      IM1H     DC4      DRUD     -2.74710      0.400000           0   0.00000       0.00000    
      2356 IM1H     118      IM1H     H6       HDR5E    0.203000       1.00800           0   0.00000       0.00000    
      2357 IM1H     118      IM1H     N2       ND2R5C    2.04220       13.6070           0 -0.803000       1.00000    
      2358 IM1H     118      IM1H     DN2      DRUD     -2.19920      0.400000           0   0.00000       0.00000    
      2359 IM1H     118      IM1H     H7       HDP1A    0.363000       1.00800           0   0.00000       0.00000    
      2360 IM1H     118      IM1H     LPN21    LPD       0.00000       0.00000          -1   0.00000       0.00000    
      2361 IM1H     119      IM1H     C1       CD33F     2.48500       11.6110           0  -1.18100       1.10000    
      2362 IM1H     119      IM1H     DC1      DRUD     -2.66700      0.400000           0   0.00000       0.00000    
      2363 IM1H     119      IM1H     H1       HDA3A    0.135000       1.00800           0   0.00000       0.00000    
      2364 IM1H     119      IM1H     H2       HDA3A    0.135000       1.00800           0   0.00000       0.00000    
      2365 IM1H     119      IM1H     H3       HDA3A    0.135000       1.00800           0   0.00000       0.00000    
      2366 IM1H     119      IM1H     N1       ND2R5C    2.35720       13.6070           0 -0.803000       1.00000    
      2367 IM1H     119      IM1H     DN1      DRUD     -2.19920      0.400000           0   0.00000       0.00000    
      2368 IM1H     119      IM1H     C2       CD2R5D    2.44700       11.6110           0  -1.08300       1.10000    
      2369 IM1H     119      IM1H     DC2      DRUD     -2.55400      0.400000           0   0.00000       0.00000    
      2370 IM1H     119      IM1H     H4       HDR5D    0.195000       1.00800           0   0.00000       0.00000    
      2371 IM1H     119      IM1H     C3       CD2R5D    2.50700       11.6110           0  -1.08300       1.10000    
      2372 IM1H     119      IM1H     DC3      DRUD     -2.55400      0.400000           0   0.00000       0.00000    
      2373 IM1H     119      IM1H     H5       HDR5D    0.192000       1.00800           0   0.00000       0.00000    
      2374 IM1H     119      IM1H     C4       CD2R5E    2.72410       11.6110           0  -1.25300       1.20000    
      2375 IM1H     119      IM1H     DC4      DRUD     -2.74710      0.400000           0   0.00000       0.00000    
      2376 IM1H     119      IM1H     H6       HDR5E    0.203000       1.00800           0   0.00000       0.00000    
      2377 IM1H     119      IM1H     N2       ND2R5C    2.04220       13.6070           0 -0.803000       1.00000    
      2378 IM1H     119      IM1H     DN2      DRUD     -2.19920      0.400000           0   0.00000       0.00000    
      2379 IM1H     119      IM1H     H7       HDP1A    0.363000       1.00800           0   0.00000       0.00000    
      2380 IM1H     119      IM1H     LPN21    LPD       0.00000       0.00000          -1   0.00000       0.00000    
      2381 IM1H     120      IM1H     C1       CD33F     2.48500       11.6110           0  -1.18100       1.10000    
      2382 IM1H     120      IM1H     DC1      DRUD     -2.66700      0.400000           0   0.00000       0.00000    
      2383 IM1H     120      IM1H     H1       HDA3A    0.135000       1.00800           0   0.00000       0.00000    
      2384 IM1H     120      IM1H     H2       HDA3A    0.135000       1.00800           0   0.00000       0.00000    
      2385 IM1H     120      IM1H     H3       HDA3A    0.135000       1.00800           0   0.00000       0.00000    
      2386 IM1H     120      IM1H     N1       ND2R5C    2.35720       13.6070           0 -0.803000       1.00000    
      2387 IM1H     120      IM1H     DN1      DRUD     -2.19920      0.400000           0   0.00000       0.00000    
      2388 IM1H     120      IM1H     C2       CD2R5D    2.44700       11.6110           0  -1.08300       1.10000    
      2389 IM1H     120      IM1H     DC2      DRUD     -2.55400      0.400000           0   0.00000       0.00000    
      2390 IM1H     120      IM1H     H4       HDR5D    0.195000       1.00800           0   0.00000       0.00000    
      2391 IM1H     120      IM1H     C3       CD2R5D    2.50700       11.6110           0  -1.08300       1.10000    
      2392 IM1H     120      IM1H     DC3      DRUD     -2.55400      0.400000           0   0.00000       0.00000    
      2393 IM1H     120      IM1H     H5       HDR5D    0.192000       1.00800           0   0.00000       0.00000    
      2394 IM1H     120      IM1H     C4       CD2R5E    2.72410       11.6110           0  -1.25300       1.20000    
      2395 IM1H     120      IM1H     DC4      DRUD     -2.74710      0.400000           0   0.00000       0.00000    
      2396 IM1H     120      IM1H     H6       HDR5E    0.203000       1.00800           0   0.00000       0.00000    
      2397 IM1H     120      IM1H     N2       ND2R5C    2.04220       13.6070           0 -0.803000       1.00000    
      2398 IM1H     120      IM1H     DN2      DRUD     -2.19920      0.400000           0   0.00000       0.00000    
      2399 IM1H     120      IM1H     H7       HDP1A    0.363000       1.00800           0   0.00000       0.00000    
      2400 IM1H     120      IM1H     LPN21    LPD       0.00000       0.00000          -1   0.00000       0.00000    
      2401 IM1H     121      IM1H     C1       CD33F     2.48500       11.6110           0  -1.18100       1.10000    
      2402 IM1H     121      IM1H     DC1      DRUD     -2.66700      0.400000           0   0.00000       0.00000    
      2403 IM1H     121      IM1H     H1       HDA3A    0.135000       1.00800           0   0.00000       0.00000    
      2404 IM1H     121      IM1H     H2       HDA3A    0.135000       1.00800           0   0.00000       0.00000    
      2405 IM1H     121      IM1H     H3       HDA3A    0.135000       1.00800           0   0.00000       0.00000    
      2406 IM1H     121      IM1H     N1       ND2R5C    2.35720       13.6070           0 -0.803000       1.00000    
      2407 IM1H     121      IM1H     DN1      DRUD     -2.19920      0.400000           0   0.00000       0.00000    
      2408 IM1H     121      IM1H     C2       CD2R5D    2.44700       11.6110           0  -1.08300       1.10000    
      2409 IM1H     121      IM1H     DC2      DRUD     -2.55400      0.400000           0   0.00000       0.00000    
      2410 IM1H     121      IM1H     H4       HDR5D    0.195000       1.00800           0   0.00000       0.00000    
      2411 IM1H     121      IM1H     C3       CD2R5D    2.50700       11.6110           0  -1.08300       1.10000    
      2412 IM1H     121      IM1H     DC3      DRUD     -2.55400      0.400000           0   0.00000       0.00000    
      2413 IM1H     121      IM1H     H5       HDR5D    0.192000       1.00800           0   0.00000       0.00000    
      2414 IM1H     121      IM1H     C4       CD2R5E    2.72410       11.6110           0  -1.25300       1.20000    
      2415 IM1H     121      IM1H     DC4      DRUD     -2.74710      0.400000           0   0.00000       0.00000    
      2416 IM1H     121      IM1H     H6       HDR5E    0.203000       1.00800           0   0.00000       0.00000    
      2417 IM1H     121      IM1H     N2       ND2R5C    2.04220       13.6070           0 -0.803000       1.00000    
      2418 IM1H     121      IM1H     DN2      DRUD     -2.19920      0.400000           0   0.00000       0.00000    
      2419 IM1H     121      IM1H     H7       HDP1A    0.363000       1.00800           0   0.00000       0.00000    
      2420 IM1H     121      IM1H     LPN21    LPD       0.00000       0.00000          -1   0.00000       0.00000    
      2421 IM1H     122      IM1H     C1       CD33F     2.48500       11.6110           0  -1.18100       1.10000    
      2422 IM1H     122      IM1H     DC1      DRUD     -2.66700      0.400000           0   0.00000       0.00000    
      2423 IM1H     122      IM1H     H1       HDA3A    0.135000       1.00800           0   0.00000       0.00000    
      2424 IM1H     122      IM1H     H2       HDA3A    0.135000       1.00800           0   0.00000       0.00000    
      2425 IM1H     122      IM1H     H3       HDA3A    0.135000       1.00800           0   0.00000       0.00000    
      2426 IM1H     122      IM1H     N1       ND2R5C    2.35720       13.6070           0 -0.803000       1.00000    
      2427 IM1H     122      IM1H     DN1      DRUD     -2.19920      0.400000           0   0.00000       0.00000    
      2428 IM1H     122      IM1H     C2       CD2R5D    2.44700       11.6110           0  -1.08300       1.10000    
      2429 IM1H     122      IM1H     DC2      DRUD     -2.55400      0.400000           0   0.00000       0.00000    
      2430 IM1H     122      IM1H     H4       HDR5D    0.195000       1.00800           0   0.00000       0.00000    
      2431 IM1H     122      IM1H     C3       CD2R5D    2.50700       11.6110           0  -1.08300       1.10000    
      2432 IM1H     122      IM1H     DC3      DRUD     -2.55400      0.400000           0   0.00000       0.00000    
      2433 IM1H     122      IM1H     H5       HDR5D    0.192000       1.00800           0   0.00000       0.00000    
      2434 IM1H     122      IM1H     C4       CD2R5E    2.72410       11.6110           0  -1.25300       1.20000    
      2435 IM1H     122      IM1H     DC4      DRUD     -2.74710      0.400000           0   0.00000       0.00000    
      2436 IM1H     122      IM1H     H6       HDR5E    0.203000       1.00800           0   0.00000       0.00000    
      2437 IM1H     122      IM1H     N2       ND2R5C    2.04220       13.6070           0 -0.803000       1.00000    
      2438 IM1H     122      IM1H     DN2      DRUD     -2.19920      0.400000           0   0.00000       0.00000    
      2439 IM1H     122      IM1H     H7       HDP1A    0.363000       1.00800           0   0.00000       0.00000    
      2440 IM1H     122      IM1H     LPN21    LPD       0.00000       0.00000          -1   0.00000       0.00000    
      2441 IM1H     123      IM1H     C1       CD33F     2.48500       11.6110           0  -1.18100       1.10000    
      2442 IM1H     123      IM1H     DC1      DRUD     -2.66700      0.400000           0   0.00000       0.00000    
      2443 IM1H     123      IM1H     H1       HDA3A    0.135000       1.00800           0   0.00000       0.00000    
      2444 IM1H     123      IM1H     H2       HDA3A    0.135000       1.00800           0   0.00000       0.00000    
      2445 IM1H     123      IM1H     H3       HDA3A    0.135000       1.00800           0   0.00000       0.00000    
      2446 IM1H     123      IM1H     N1       ND2R5C    2.35720       13.6070           0 -0.803000       1.00000    
      2447 IM1H     123      IM1H     DN1      DRUD     -2.19920      0.400000           0   0.00000       0.00000    
      2448 IM1H     123      IM1H     C2       CD2R5D    2.44700       11.6110           0  -1.08300       1.10000    
      2449 IM1H     123      IM1H     DC2      DRUD     -2.55400      0.400000           0   0.00000       0.00000    
      2450 IM1H     123      IM1H     H4       HDR5D    0.195000       1.00800           0   0.00000       0.00000    
      2451 IM1H     123      IM1H     C3       CD2R5D    2.50700       11.6110           0  -1.08300       1.10000    
      2452 IM1H     123      IM1H     DC3      DRUD     -2.55400      0.400000           0   0.00000       0.00000    
      2453 IM1H     123      IM1H     H5       HDR5D    0.192000       1.00800           0   0.00000       0.00000    
      2454 IM1H     123      IM1H     C4       CD2R5E    2.72410       11.6110           0  -1.25300       1.20000    
      2455 IM1H     123      IM1H     DC4      DRUD     -2.74710      0.400000           0   0.00000       0.00000    
      2456 IM1H     123      IM1H     H6       HDR5E    0.203000       1.00800           0   0.00000       0.00000    
      2457 IM1H     123      IM1H     N2       ND2R5C    2.04220       13.6070           0 -0.803000       1.00000    
      2458 IM1H     123      IM1H     DN2      DRUD     -2.19920      0.400000           0   0.00000       0.00000    
      2459 IM1H     123      IM1H     H7       HDP1A    0.363000       1.00800           0   0.00000       0.00000    
      2460 IM1H     123      IM1H     LPN21    LPD       0.00000       0.00000          -1   0.00000       0.00000    
      2461 IM1H     124      IM1H     C1       CD33F     2.48500       11.6110           0  -1.18100       1.10000    
      2462 IM1H     124      IM1H     DC1      DRUD     -2.66700      0.400000           0   0.00000       0.00000    
      2463 IM1H     124      IM1H     H1       HDA3A    0.135000       1.00800           0   0.00000       0.00000    
      2464 IM1H     124      IM1H     H2       HDA3A    0.135000       1.00800           0   0.00000       0.00000    
      2465 IM1H     124      IM1H     H3       HDA3A    0.135000       1.00800           0   0.00000       0.00000    
      2466 IM1H     124      IM1H     N1       ND2R5C    2.35720       13.6070           0 -0.803000       1.00000    
      2467 IM1H     124      IM1H     DN1      DRUD     -2.19920      0.400000           0   0.00000       0.00000    
      2468 IM1H     124      IM1H     C2       CD2R5D    2.44700       11.6110           0  -1.08300       1.10000    
      2469 IM1H     124      IM1H     DC2      DRUD     -2.55400      0.400000           0   0.00000       0.00000    
      2470 IM1H     124      IM1H     H4       HDR5D    0.195000       1.00800           0   0.00000       0.00000    
      2471 IM1H     124      IM1H     C3       CD2R5D    2.50700       11.6110           0  -1.08300       1.10000    
      2472 IM1H     124      IM1H     DC3      DRUD     -2.55400      0.400000           0   0.00000       0.00000    
      2473 IM1H     124      IM1H     H5       HDR5D    0.192000       1.00800           0   0.00000       0.00000    
      2474 IM1H     124      IM1H     C4       CD2R5E    2.72410       11.6110           0  -1.25300       1.20000    
      2475 IM1H     124      IM1H     DC4      DRUD     -2.74710      0.400000           0   0.00000       0.00000    
      2476 IM1H     124      IM1H     H6       HDR5E    0.203000       1.00800           0   0.00000       0.00000    
      2477 IM1H     124      IM1H     N2       ND2R5C    2.04220       13.6070           0 -0.803000       1.00000    
      2478 IM1H     124      IM1H     DN2      DRUD     -2.19920      0.400000           0   0.00000       0.00000    
      2479 IM1H     124      IM1H     H7       HDP1A    0.363000       1.00800           0   0.00000       0.00000    
      2480 IM1H     124      IM1H     LPN21    LPD       0.00000       0.00000          -1   0.00000       0.00000    
      2481 IM1H     125      IM1H     C1       CD33F     2.48500       11.6110           0  -1.18100       1.10000    
      2482 IM1H     125      IM1H     DC1      DRUD     -2.66700      0.400000           0   0.00000       0.00000    
      2483 IM1H     125      IM1H     H1       HDA3A    0.135000       1.00800           0   0.00000       0.00000    
      2484 IM1H     125      IM1H     H2       HDA3A    0.135000       1.00800           0   0.00000       0.00000    
      2485 IM1H     125      IM1H     H3       HDA3A    0.135000       1.00800           0   0.00000       0.00000    
      2486 IM1H     125      IM1H     N1       ND2R5C    2.35720       13.6070           0 -0.803000       1.00000    
      2487 IM1H     125      IM1H     DN1      DRUD     -2.19920      0.400000           0   0.00000       0.00000    
      2488 IM1H     125      IM1H     C2       CD2R5D    2.44700       11.6110           0  -1.08300       1.10000    
      2489 IM1H     125      IM1H     DC2      DRUD     -2.55400      0.400000           0   0.00000       0.00000    
      2490 IM1H     125      IM1H     H4       HDR5D    0.195000       1.00800           0   0.00000       0.00000    
      2491 IM1H     125      IM1H     C3       CD2R5D    2.50700       11.6110           0  -1.08300       1.10000    
      2492 IM1H     125      IM1H     DC3      DRUD     -2.55400      0.400000           0   0.00000       0.00000    
      2493 IM1H     125      IM1H     H5       HDR5D    0.192000       1.00800           0   0.00000       0.00000    
      2494 IM1H     125      IM1H     C4       CD2R5E    2.72410       11.6110           0  -1.25300       1.20000    
      2495 IM1H     125      IM1H     DC4      DRUD     -2.74710      0.400000           0   0.00000       0.00000    
      2496 IM1H     125      IM1H     H6       HDR5E    0.203000       1.00800           0   0.00000       0.00000    
      2497 IM1H     125      IM1H     N2       ND2R5C    2.04220       13.6070           0 -0.803000       1.00000    
      2498 IM1H     125      IM1H     DN2      DRUD     -2.19920      0.400000           0   0.00000       0.00000    
      2499 IM1H     125      IM1H     H7       HDP1A    0.363000       1.00800           0   0.00000       0.00000    
      2500 IM1H     125      IM1H     LPN21    LPD       0.00000       0.00000          -1   0.00000       0.00000    
      2501 IM1H     126      IM1H     C1       CD33F     2.48500       11.6110           0  -1.18100       1.10000    
      2502 IM1H     126      IM1H     DC1      DRUD     -2.66700      0.400000           0   0.00000       0.00000    
      2503 IM1H     126      IM1H     H1       HDA3A    0.135000       1.00800           0   0.00000       0.00000    
      2504 IM1H     126      IM1H     H2       HDA3A    0.135000       1.00800           0   0.00000       0.00000    
      2505 IM1H     126      IM1H     H3       HDA3A    0.135000       1.00800           0   0.00000       0.00000    
      2506 IM1H     126      IM1H     N1       ND2R5C    2.35720       13.6070           0 -0.803000       1.00000    
      2507 IM1H     126      IM1H     DN1      DRUD     -2.19920      0.400000           0   0.00000       0.00000    
      2508 IM1H     126      IM1H     C2       CD2R5D    2.44700       11.6110           0  -1.08300       1.10000    
      2509 IM1H     126      IM1H     DC2      DRUD     -2.55400      0.400000           0   0.00000       0.00000    
      2510 IM1H     126      IM1H     H4       HDR5D    0.195000       1.00800           0   0.00000       0.00000    
      2511 IM1H     126      IM1H     C3       CD2R5D    2.50700       11.6110           0  -1.08300       1.10000    
      2512 IM1H     126      IM1H     DC3      DRUD     -2.55400      0.400000           0   0.00000       0.00000    
      2513 IM1H     126      IM1H     H5       HDR5D    0.192000       1.00800           0   0.00000       0.00000    
      2514 IM1H     126      IM1H     C4       CD2R5E    2.72410       11.6110           0  -1.25300       1.20000    
      2515 IM1H     126      IM1H     DC4      DRUD     -2.74710      0.400000           0   0.00000       0.00000    
      2516 IM1H     126      IM1H     H6       HDR5E    0.203000       1.00800           0   0.00000       0.00000    
      2517 IM1H     126      IM1H     N2       ND2R5C    2.04220       13.6070           0 -0.803000       1.00000    
      2518 IM1H     126      IM1H     DN2      DRUD     -2.19920      0.400000           0   0.00000       0.00000    
      2519 IM1H     126      IM1H     H7       HDP1A    0.363000       1.00800           0   0.00000       0.00000    
      2520 IM1H     126      IM1H     LPN21    LPD       0.00000       0.00000          -1   0.00000       0.00000    
      2521 IM1H     127      IM1H     C1       CD33F     2.48500       11.6110           0  -1.18100       1.10000    
      2522 IM1H     127      IM1H     DC1      DRUD     -2.66700      0.400000           0   0.00000       0.00000    
      2523 IM1H     127      IM1H     H1       HDA3A    0.135000       1.00800           0   0.00000       0.00000    
      2524 IM1H     127      IM1H     H2       HDA3A    0.135000       1.00800           0   0.00000       0.00000    
      2525 IM1H     127      IM1H     H3       HDA3A    0.135000       1.00800           0   0.00000       0.00000    
      2526 IM1H     127      IM1H     N1       ND2R5C    2.35720       13.6070           0 -0.803000       1.00000    
      2527 IM1H     127      IM1H     DN1      DRUD     -2.19920      0.400000           0   0.00000       0.00000    
      2528 IM1H     127      IM1H     C2       CD2R5D    2.44700       11.6110           0  -1.08300       1.10000    
      2529 IM1H     127      IM1H     DC2      DRUD     -2.55400      0.400000           0   0.00000       0.00000    
      2530 IM1H     127      IM1H     H4       HDR5D    0.195000       1.00800           0   0.00000       0.00000    
      2531 IM1H     127      IM1H     C3       CD2R5D    2.50700       11.6110           0  -1.08300       1.10000    
      2532 IM1H     127      IM1H     DC3      DRUD     -2.55400      0.400000           0   0.00000       0.00000    
      2533 IM1H     127      IM1H     H5       HDR5D    0.192000       1.00800           0   0.00000       0.00000    
      2534 IM1H     127      IM1H     C4       CD2R5E    2.72410       11.6110           0  -1.25300       1.20000    
      2535 IM1H     127      IM1H     DC4      DRUD     -2.74710      0.400000           0   0.00000       0.00000    
      2536 IM1H     127      IM1H     H6       HDR5E    0.203000       1.00800           0   0.00000       0.00000    
      2537 IM1H     127      IM1H     N2       ND2R5C    2.04220       13.6070           0 -0.803000       1.00000    
      2538 IM1H     127      IM1H     DN2      DRUD     -2.19920      0.400000           0   0.00000       0.00000    
      2539 IM1H     127      IM1H     H7       HDP1A    0.363000       1.00800           0   0.00000       0.00000    
      2540 IM1H     127      IM1H     LPN21    LPD       0.00000       0.00000          -1   0.00000       0.00000    
      2541 IM1H     128      IM1H     C1       CD33F     2.48500       11.6110           0  -1.18100       1.10000    
      2542 IM1H     128      IM1H     DC1      DRUD     -2.66700      0.400000           0   0.00000       0.00000    
      2543 IM1H     128      IM1H     H1       HDA3A    0.135000       1.00800           0   0.00000       0.00000    
      2544 IM1H     128      IM1H     H2       HDA3A    0.135000       1.00800           0   0.00000       0.00000    
      2545 IM1H     128      IM1H     H3       HDA3A    0.135000       1.00800           0   0.00000       0.00000    
      2546 IM1H     128      IM1H     N1       ND2R5C    2.35720       13.6070           0 -0.803000       1.00000    
      2547 IM1H     128      IM1H     DN1      DRUD     -2.19920      0.400000           0   0.00000       0.00000    
      2548 IM1H     128      IM1H     C2       CD2R5D    2.44700       11.6110           0  -1.08300       1.10000    
      2549 IM1H     128      IM1H     DC2      DRUD     -2.55400      0.400000           0   0.00000       0.00000    
      2550 IM1H     128      IM1H     H4       HDR5D    0.195000       1.00800           0   0.00000       0.00000    
      2551 IM1H     128      IM1H     C3       CD2R5D    2.50700       11.6110           0  -1.08300       1.10000    
      2552 IM1H     128      IM1H     DC3      DRUD     -2.55400      0.400000           0   0.00000       0.00000    
      2553 IM1H     128      IM1H     H5       HDR5D    0.192000       1.00800           0   0.00000       0.00000    
      2554 IM1H     128      IM1H     C4       CD2R5E    2.72410       11.6110           0  -1.25300       1.20000    
      2555 IM1H     128      IM1H     DC4      DRUD     -2.74710      0.400000           0   0.00000       0.00000    
      2556 IM1H     128      IM1H     H6       HDR5E    0.203000       1.00800           0   0.00000       0.00000    
      2557 IM1H     128      IM1H     N2       ND2R5C    2.04220       13.6070           0 -0.803000       1.00000    
      2558 IM1H     128      IM1H     DN2      DRUD     -2.19920      0.400000           0   0.00000       0.00000    
      2559 IM1H     128      IM1H     H7       HDP1A    0.363000       1.00800           0   0.00000       0.00000    
      2560 IM1H     128      IM1H     LPN21    LPD       0.00000       0.00000          -1   0.00000       0.00000    
      2561 IM1H     129      IM1H     C1       CD33F     2.48500       11.6110           0  -1.18100       1.10000    
      2562 IM1H     129      IM1H     DC1      DRUD     -2.66700      0.400000           0   0.00000       0.00000    
      2563 IM1H     129      IM1H     H1       HDA3A    0.135000       1.00800           0   0.00000       0.00000    
      2564 IM1H     129      IM1H     H2       HDA3A    0.135000       1.00800           0   0.00000       0.00000    
      2565 IM1H     129      IM1H     H3       HDA3A    0.135000       1.00800           0   0.00000       0.00000    
      2566 IM1H     129      IM1H     N1       ND2R5C    2.35720       13.6070           0 -0.803000       1.00000    
      2567 IM1H     129      IM1H     DN1      DRUD     -2.19920      0.400000           0   0.00000       0.00000    
      2568 IM1H     129      IM1H     C2       CD2R5D    2.44700       11.6110           0  -1.08300       1.10000    
      2569 IM1H     129      IM1H     DC2      DRUD     -2.55400      0.400000           0   0.00000       0.00000    
      2570 IM1H     129      IM1H     H4       HDR5D    0.195000       1.00800           0   0.00000       0.00000    
      2571 IM1H     129      IM1H     C3       CD2R5D    2.50700       11.6110           0  -1.08300       1.10000    
      2572 IM1H     129      IM1H     DC3      DRUD     -2.55400      0.400000           0   0.00000       0.00000    
      2573 IM1H     129      IM1H     H5       HDR5D    0.192000       1.00800           0   0.00000       0.00000    
      2574 IM1H     129      IM1H     C4       CD2R5E    2.72410       11.6110           0  -1.25300       1.20000    
      2575 IM1H     129      IM1H     DC4      DRUD     -2.74710      0.400000           0   0.00000       0.00000    
      2576 IM1H     129      IM1H     H6       HDR5E    0.203000       1.00800           0   0.00000       0.00000    
      2577 IM1H     129      IM1H     N2       ND2R5C    2.04220       13.6070           0 -0.803000       1.00000    
      2578 IM1H     129      IM1H     DN2      DRUD     -2.19920      0.400000           0   0.00000       0.00000    
      2579 IM1H     129      IM1H     H7       HDP1A    0.363000       1.00800           0   0.00000       0.00000    
      2580 IM1H     129      IM1H     LPN21    LPD       0.00000       0.00000          -1   0.00000       0.00000    
      2581 IM1H     130      IM1H     C1       CD33F     2.48500       11.6110           0  -1.18100       1.10000    
      2582 IM1H     130      IM1H     DC1      DRUD     -2.66700      0.400000           0   0.00000       0.00000    
      2583 IM1H     130      IM1H     H1       HDA3A    0.135000       1.00800           0   0.00000       0.00000    
      2584 IM1H     130      IM1H     H2       HDA3A    0.135000       1.00800           0   0.00000       0.00000    
      2585 IM1H     130      IM1H     H3       HDA3A    0.135000       1.00800           0   0.00000       0.00000    
      2586 IM1H     130      IM1H     N1       ND2R5C    2.35720       13.6070           0 -0.803000       1.00000    
      2587 IM1H     130      IM1H     DN1      DRUD     -2.19920      0.400000           0   0.00000       0.00000    
      2588 IM1H     130      IM1H     C2       CD2R5D    2.44700       11.6110           0  -1.08300       1.10000    
      2589 IM1H     130      IM1H     DC2      DRUD     -2.55400      0.400000           0   0.00000       0.00000    
      2590 IM1H     130      IM1H     H4       HDR5D    0.195000       1.00800           0   0.00000       0.00000    
      2591 IM1H     130      IM1H     C3       CD2R5D    2.50700       11.6110           0  -1.08300       1.10000    
      2592 IM1H     130      IM1H     DC3      DRUD     -2.55400      0.400000           0   0.00000       0.00000    
      2593 IM1H     130      IM1H     H5       HDR5D    0.192000       1.00800           0   0.00000       0.00000    
      2594 IM1H     130      IM1H     C4       CD2R5E    2.72410       11.6110           0  -1.25300       1.20000    
      2595 IM1H     130      IM1H     DC4      DRUD     -2.74710      0.400000           0   0.00000       0.00000    
      2596 IM1H     130      IM1H     H6       HDR5E    0.203000       1.00800           0   0.00000       0.00000    
      2597 IM1H     130      IM1H     N2       ND2R5C    2.04220       13.6070           0 -0.803000       1.00000    
      2598 IM1H     130      IM1H     DN2      DRUD     -2.19920      0.400000           0   0.00000       0.00000    
      2599 IM1H     130      IM1H     H7       HDP1A    0.363000       1.00800           0   0.00000       0.00000    
      2600 IM1H     130      IM1H     LPN21    LPD       0.00000       0.00000          -1   0.00000       0.00000    
      2601 IM1H     131      IM1H     C1       CD33F     2.48500       11.6110           0  -1.18100       1.10000    
      2602 IM1H     131      IM1H     DC1      DRUD     -2.66700      0.400000           0   0.00000       0.00000    
      2603 IM1H     131      IM1H     H1       HDA3A    0.135000       1.00800           0   0.00000       0.00000    
      2604 IM1H     131      IM1H     H2       HDA3A    0.135000       1.00800           0   0.00000       0.00000    
      2605 IM1H     131      IM1H     H3       HDA3A    0.135000       1.00800           0   0.00000       0.00000    
      2606 IM1H     131      IM1H     N1       ND2R5C    2.35720       13.6070           0 -0.803000       1.00000    
      2607 IM1H     131      IM1H     DN1      DRUD     -2.19920      0.400000           0   0.00000       0.00000    
      2608 IM1H     131      IM1H     C2       CD2R5D    2.44700       11.6110           0  -1.08300       1.10000    
      2609 IM1H     131      IM1H     DC2      DRUD     -2.55400      0.400000           0   0.00000       0.00000    
      2610 IM1H     131      IM1H     H4       HDR5D    0.195000       1.00800           0   0.00000       0.00000    
      2611 IM1H     131      IM1H     C3       CD2R5D    2.50700       11.6110           0  -1.08300       1.10000    
      2612 IM1H     131      IM1H     DC3      DRUD     -2.55400      0.400000           0   0.00000       0.00000    
      2613 IM1H     131      IM1H     H5       HDR5D    0.192000       1.00800           0   0.00000       0.00000    
      2614 IM1H     131      IM1H     C4       CD2R5E    2.72410       11.6110           0  -1.25300       1.20000    
      2615 IM1H     131      IM1H     DC4      DRUD     -2.74710      0.400000           0   0.00000       0.00000    
      2616 IM1H     131      IM1H     H6       HDR5E    0.203000       1.00800           0   0.00000       0.00000    
      2617 IM1H     131      IM1H     N2       ND2R5C    2.04220       13.6070           0 -0.803000       1.00000    
      2618 IM1H     131      IM1H     DN2      DRUD     -2.19920      0.400000           0   0.00000       0.00000    
      2619 IM1H     131      IM1H     H7       HDP1A    0.363000       1.00800           0   0.00000       0.00000    
      2620 IM1H     131      IM1H     LPN21    LPD       0.00000       0.00000          -1   0.00000       0.00000    
      2621 IM1H     132      IM1H     C1       CD33F     2.48500       11.6110           0  -1.18100       1.10000    
      2622 IM1H     132      IM1H     DC1      DRUD     -2.66700      0.400000           0   0.00000       0.00000    
      2623 IM1H     132      IM1H     H1       HDA3A    0.135000       1.00800           0   0.00000       0.00000    
      2624 IM1H     132      IM1H     H2       HDA3A    0.135000       1.00800           0   0.00000       0.00000    
      2625 IM1H     132      IM1H     H3       HDA3A    0.135000       1.00800           0   0.00000       0.00000    
      2626 IM1H     132      IM1H     N1       ND2R5C    2.35720       13.6070           0 -0.803000       1.00000    
      2627 IM1H     132      IM1H     DN1      DRUD     -2.19920      0.400000           0   0.00000       0.00000    
      2628 IM1H     132      IM1H     C2       CD2R5D    2.44700       11.6110           0  -1.08300       1.10000    
      2629 IM1H     132      IM1H     DC2      DRUD     -2.55400      0.400000           0   0.00000       0.00000    
      2630 IM1H     132      IM1H     H4       HDR5D    0.195000       1.00800           0   0.00000       0.00000    
      2631 IM1H     132      IM1H     C3       CD2R5D    2.50700       11.6110           0  -1.08300       1.10000    
      2632 IM1H     132      IM1H     DC3      DRUD     -2.55400      0.400000           0   0.00000       0.00000    
      2633 IM1H     132      IM1H     H5       HDR5D    0.192000       1.00800           0   0.00000       0.00000    
      2634 IM1H     132      IM1H     C4       CD2R5E    2.72410       11.6110           0  -1.25300       1.20000    
      2635 IM1H     132      IM1H     DC4      DRUD     -2.74710      0.400000           0   0.00000       0.00000    
      2636 IM1H     132      IM1H     H6       HDR5E    0.203000       1.00800           0   0.00000       0.00000    
      2637 IM1H     132      IM1H     N2       ND2R5C    2.04220       13.6070           0 -0.803000       1.00000    
      2638 IM1H     132      IM1H     DN2      DRUD     -2.19920      0.400000           0   0.00000       0.00000    
      2639 IM1H     132      IM1H     H7       HDP1A    0.363000       1.00800           0   0.00000       0.00000    
      2640 IM1H     132      IM1H     LPN21    LPD       0.00000       0.00000          -1   0.00000       0.00000    
      2641 IM1H     133      IM1H     C1       CD33F     2.48500       11.6110           0  -1.18100       1.10000    
      2642 IM1H     133      IM1H     DC1      DRUD     -2.66700      0.400000           0   0.00000       0.00000    
      2643 IM1H     133      IM1H     H1       HDA3A    0.135000       1.00800           0   0.00000       0.00000    
      2644 IM1H     133      IM1H     H2       HDA3A    0.135000       1.00800           0   0.00000       0.00000    
      2645 IM1H     133      IM1H     H3       HDA3A    0.135000       1.00800           0   0.00000       0.00000    
      2646 IM1H     133      IM1H     N1       ND2R5C    2.35720       13.6070           0 -0.803000       1.00000    
      2647 IM1H     133      IM1H     DN1      DRUD     -2.19920      0.400000           0   0.00000       0.00000    
      2648 IM1H     133      IM1H     C2       CD2R5D    2.44700       11.6110           0  -1.08300       1.10000    
      2649 IM1H     133      IM1H     DC2      DRUD     -2.55400      0.400000           0   0.00000       0.00000    
      2650 IM1H     133      IM1H     H4       HDR5D    0.195000       1.00800           0   0.00000       0.00000    
      2651 IM1H     133      IM1H     C3       CD2R5D    2.50700       11.6110           0  -1.08300       1.10000    
      2652 IM1H     133      IM1H     DC3      DRUD     -2.55400      0.400000           0   0.00000       0.00000    
      2653 IM1H     133      IM1H     H5       HDR5D    0.192000       1.00800           0   0.00000       0.00000    
      2654 IM1H     133      IM1H     C4       CD2R5E    2.72410       11.6110           0  -1.25300       1.20000    
      2655 IM1H     133      IM1H     DC4      DRUD     -2.74710      0.400000           0   0.00000       0.00000    
      2656 IM1H     133      IM1H     H6       HDR5E    0.203000       1.00800           0   0.00000       0.00000    
      2657 IM1H     133      IM1H     N2       ND2R5C    2.04220       13.6070           0 -0.803000       1.00000    
      2658 IM1H     133      IM1H     DN2      DRUD     -2.19920      0.400000           0   0.00000       0.00000    
      2659 IM1H     133      IM1H     H7       HDP1A    0.363000       1.00800           0   0.00000       0.00000    
      2660 IM1H     133      IM1H     LPN21    LPD       0.00000       0.00000          -1   0.00000       0.00000    
      2661 IM1H     134      IM1H     C1       CD33F     2.48500       11.6110           0  -1.18100       1.10000    
      2662 IM1H     134      IM1H     DC1      DRUD     -2.66700      0.400000           0   0.00000       0.00000    
      2663 IM1H     134      IM1H     H1       HDA3A    0.135000       1.00800           0   0.00000       0.00000    
      2664 IM1H     134      IM1H     H2       HDA3A    0.135000       1.00800           0   0.00000       0.00000    
      2665 IM1H     134      IM1H     H3       HDA3A    0.135000       1.00800           0   0.00000       0.00000    
      2666 IM1H     134      IM1H     N1       ND2R5C    2.35720       13.6070           0 -0.803000       1.00000    
      2667 IM1H     134      IM1H     DN1      DRUD     -2.19920      0.400000           0   0.00000       0.00000    
      2668 IM1H     134      IM1H     C2       CD2R5D    2.44700       11.6110           0  -1.08300       1.10000    
      2669 IM1H     134      IM1H     DC2      DRUD     -2.55400      0.400000           0   0.00000       0.00000    
      2670 IM1H     134      IM1H     H4       HDR5D    0.195000       1.00800           0   0.00000       0.00000    
      2671 IM1H     134      IM1H     C3       CD2R5D    2.50700       11.6110           0  -1.08300       1.10000    
      2672 IM1H     134      IM1H     DC3      DRUD     -2.55400      0.400000           0   0.00000       0.00000    
      2673 IM1H     134      IM1H     H5       HDR5D    0.192000       1.00800           0   0.00000       0.00000    
      2674 IM1H     134      IM1H     C4       CD2R5E    2.72410       11.6110           0  -1.25300       1.20000    
      2675 IM1H     134      IM1H     DC4      DRUD     -2.74710      0.400000           0   0.00000       0.00000    
      2676 IM1H     134      IM1H     H6       HDR5E    0.203000       1.00800           0   0.00000       0.00000    
      2677 IM1H     134      IM1H     N2       ND2R5C    2.04220       13.6070           0 -0.803000       1.00000    
      2678 IM1H     134      IM1H     DN2      DRUD     -2.19920      0.400000           0   0.00000       0.00000    
      2679 IM1H     134      IM1H     H7       HDP1A    0.363000       1.00800           0   0.00000       0.00000    
      2680 IM1H     134      IM1H     LPN21    LPD       0.00000       0.00000          -1   0.00000       0.00000    
      2681 IM1H     135      IM1H     C1       CD33F     2.48500       11.6110           0  -1.18100       1.10000    
      2682 IM1H     135      IM1H     DC1      DRUD     -2.66700      0.400000           0   0.00000       0.00000    
      2683 IM1H     135      IM1H     H1       HDA3A    0.135000       1.00800           0   0.00000       0.00000    
      2684 IM1H     135      IM1H     H2       HDA3A    0.135000       1.00800           0   0.00000       0.00000    
      2685 IM1H     135      IM1H     H3       HDA3A    0.135000       1.00800           0   0.00000       0.00000    
      2686 IM1H     135      IM1H     N1       ND2R5C    2.35720       13.6070           0 -0.803000       1.00000    
      2687 IM1H     135      IM1H     DN1      DRUD     -2.19920      0.400000           0   0.00000       0.00000    
      2688 IM1H     135      IM1H     C2       CD2R5D    2.44700       11.6110           0  -1.08300       1.10000    
      2689 IM1H     135      IM1H     DC2      DRUD     -2.55400      0.400000           0   0.00000       0.00000    
      2690 IM1H     135      IM1H     H4       HDR5D    0.195000       1.00800           0   0.00000       0.00000    
      2691 IM1H     135      IM1H     C3       CD2R5D    2.50700       11.6110           0  -1.08300       1.10000    
      2692 IM1H     135      IM1H     DC3      DRUD     -2.55400      0.400000           0   0.00000       0.00000    
      2693 IM1H     135      IM1H     H5       HDR5D    0.192000       1.00800           0   0.00000       0.00000    
      2694 IM1H     135      IM1H     C4       CD2R5E    2.72410       11.6110           0  -1.25300       1.20000    
      2695 IM1H     135      IM1H     DC4      DRUD     -2.74710      0.400000           0   0.00000       0.00000    
      2696 IM1H     135      IM1H     H6       HDR5E    0.203000       1.00800           0   0.00000       0.00000    
      2697 IM1H     135      IM1H     N2       ND2R5C    2.04220       13.6070           0 -0.803000       1.00000    
      2698 IM1H     135      IM1H     DN2      DRUD     -2.19920      0.400000           0   0.00000       0.00000    
      2699 IM1H     135      IM1H     H7       HDP1A    0.363000       1.00800           0   0.00000       0.00000    
      2700 IM1H     135      IM1H     LPN21    LPD       0.00000       0.00000          -1   0.00000       0.00000    
      2701 IM1H     136      IM1H     C1       CD33F     2.48500       11.6110           0  -1.18100       1.10000    
      2702 IM1H     136      IM1H     DC1      DRUD     -2.66700      0.400000           0   0.00000       0.00000    
      2703 IM1H     136      IM1H     H1       HDA3A    0.135000       1.00800           0   0.00000       0.00000    
      2704 IM1H     136      IM1H     H2       HDA3A    0.135000       1.00800           0   0.00000       0.00000    
      2705 IM1H     136      IM1H     H3       HDA3A    0.135000       1.00800           0   0.00000       0.00000    
      2706 IM1H     136      IM1H     N1       ND2R5C    2.35720       13.6070           0 -0.803000       1.00000    
      2707 IM1H     136      IM1H     DN1      DRUD     -2.19920      0.400000           0   0.00000       0.00000    
      2708 IM1H     136      IM1H     C2       CD2R5D    2.44700       11.6110           0  -1.08300       1.10000    
      2709 IM1H     136      IM1H     DC2      DRUD     -2.55400      0.400000           0   0.00000       0.00000    
      2710 IM1H     136      IM1H     H4       HDR5D    0.195000       1.00800           0   0.00000       0.00000    
      2711 IM1H     136      IM1H     C3       CD2R5D    2.50700       11.6110           0  -1.08300       1.10000    
      2712 IM1H     136      IM1H     DC3      DRUD     -2.55400      0.400000           0   0.00000       0.00000    
      2713 IM1H     136      IM1H     H5       HDR5D    0.192000       1.00800           0   0.00000       0.00000    
      2714 IM1H     136      IM1H     C4       CD2R5E    2.72410       11.6110           0  -1.25300       1.20000    
      2715 IM1H     136      IM1H     DC4      DRUD     -2.74710      0.400000           0   0.00000       0.00000    
      2716 IM1H     136      IM1H     H6       HDR5E    0.203000       1.00800           0   0.00000       0.00000    
      2717 IM1H     136      IM1H     N2       ND2R5C    2.04220       13.6070           0 -0.803000       1.00000    
      2718 IM1H     136      IM1H     DN2      DRUD     -2.19920      0.400000           0   0.00000       0.00000    
      2719 IM1H     136      IM1H     H7       HDP1A    0.363000       1.00800           0   0.00000       0.00000    
      2720 IM1H     136      IM1H     LPN21    LPD       0.00000       0.00000          -1   0.00000       0.00000    
      2721 IM1H     137      IM1H     C1       CD33F     2.48500       11.6110           0  -1.18100       1.10000    
      2722 IM1H     137      IM1H     DC1      DRUD     -2.66700      0.400000           0   0.00000       0.00000    
      2723 IM1H     137      IM1H     H1       HDA3A    0.135000       1.00800           0   0.00000       0.00000    
      2724 IM1H     137      IM1H     H2       HDA3A    0.135000       1.00800           0   0.00000       0.00000    
      2725 IM1H     137      IM1H     H3       HDA3A    0.135000       1.00800           0   0.00000       0.00000    
      2726 IM1H     137      IM1H     N1       ND2R5C    2.35720       13.6070           0 -0.803000       1.00000    
      2727 IM1H     137      IM1H     DN1      DRUD     -2.19920      0.400000           0   0.00000       0.00000    
      2728 IM1H     137      IM1H     C2       CD2R5D    2.44700       11.6110           0  -1.08300       1.10000    
      2729 IM1H     137      IM1H     DC2      DRUD     -2.55400      0.400000           0   0.00000       0.00000    
      2730 IM1H     137      IM1H     H4       HDR5D    0.195000       1.00800           0   0.00000       0.00000    
      2731 IM1H     137      IM1H     C3       CD2R5D    2.50700       11.6110           0  -1.08300       1.10000    
      2732 IM1H     137      IM1H     DC3      DRUD     -2.55400      0.400000           0   0.00000       0.00000    
      2733 IM1H     137      IM1H     H5       HDR5D    0.192000       1.00800           0   0.00000       0.00000    
      2734 IM1H     137      IM1H     C4       CD2R5E    2.72410       11.6110           0  -1.25300       1.20000    
      2735 IM1H     137      IM1H     DC4      DRUD     -2.74710      0.400000           0   0.00000       0.00000    
      2736 IM1H     137      IM1H     H6       HDR5E    0.203000       1.00800           0   0.00000       0.00000    
      2737 IM1H     137      IM1H     N2       ND2R5C    2.04220       13.6070           0 -0.803000       1.00000    
      2738 IM1H     137      IM1H     DN2      DRUD     -2.19920      0.400000           0   0.00000       0.00000    
      2739 IM1H     137      IM1H     H7       HDP1A    0.363000       1.00800           0   0.00000       0.00000    
      2740 IM1H     137      IM1H     LPN21    LPD       0.00000       0.00000          -1   0.00000       0.00000    
      2741 IM1H     138      IM1H     C1       CD33F     2.48500       11.6110           0  -1.18100       1.10000    
      2742 IM1H     138      IM1H     DC1      DRUD     -2.66700      0.400000           0   0.00000       0.00000    
      2743 IM1H     138      IM1H     H1       HDA3A    0.135000       1.00800           0   0.00000       0.00000    
      2744 IM1H     138      IM1H     H2       HDA3A    0.135000       1.00800           0   0.00000       0.00000    
      2745 IM1H     138      IM1H     H3       HDA3A    0.135000       1.00800           0   0.00000       0.00000    
      2746 IM1H     138      IM1H     N1       ND2R5C    2.35720       13.6070           0 -0.803000       1.00000    
      2747 IM1H     138      IM1H     DN1      DRUD     -2.19920      0.400000           0   0.00000       0.00000    
      2748 IM1H     138      IM1H     C2       CD2R5D    2.44700       11.6110           0  -1.08300       1.10000    
      2749 IM1H     138      IM1H     DC2      DRUD     -2.55400      0.400000           0   0.00000       0.00000    
      2750 IM1H     138      IM1H     H4       HDR5D    0.195000       1.00800           0   0.00000       0.00000    
      2751 IM1H     138      IM1H     C3       CD2R5D    2.50700       11.6110           0  -1.08300       1.10000    
      2752 IM1H     138      IM1H     DC3      DRUD     -2.55400      0.400000           0   0.00000       0.00000    
      2753 IM1H     138      IM1H     H5       HDR5D    0.192000       1.00800           0   0.00000       0.00000    
      2754 IM1H     138      IM1H     C4       CD2R5E    2.72410       11.6110           0  -1.25300       1.20000    
      2755 IM1H     138      IM1H     DC4      DRUD     -2.74710      0.400000           0   0.00000       0.00000    
      2756 IM1H     138      IM1H     H6       HDR5E    0.203000       1.00800           0   0.00000       0.00000    
      2757 IM1H     138      IM1H     N2       ND2R5C    2.04220       13.6070           0 -0.803000       1.00000    
      2758 IM1H     138      IM1H     DN2      DRUD     -2.19920      0.400000           0   0.00000       0.00000    
      2759 IM1H     138      IM1H     H7       HDP1A    0.363000       1.00800           0   0.00000       0.00000    
      2760 IM1H     138      IM1H     LPN21    LPD       0.00000       0.00000          -1   0.00000       0.00000    
      2761 IM1H     139      IM1H     C1       CD33F     2.48500       11.6110           0  -1.18100       1.10000    
      2762 IM1H     139      IM1H     DC1      DRUD     -2.66700      0.400000           0   0.00000       0.00000    
      2763 IM1H     139      IM1H     H1       HDA3A    0.135000       1.00800           0   0.00000       0.00000    
      2764 IM1H     139      IM1H     H2       HDA3A    0.135000       1.00800           0   0.00000       0.00000    
      2765 IM1H     139      IM1H     H3       HDA3A    0.135000       1.00800           0   0.00000       0.00000    
      2766 IM1H     139      IM1H     N1       ND2R5C    2.35720       13.6070           0 -0.803000       1.00000    
      2767 IM1H     139      IM1H     DN1      DRUD     -2.19920      0.400000           0   0.00000       0.00000    
      2768 IM1H     139      IM1H     C2       CD2R5D    2.44700       11.6110           0  -1.08300       1.10000    
      2769 IM1H     139      IM1H     DC2      DRUD     -2.55400      0.400000           0   0.00000       0.00000    
      2770 IM1H     139      IM1H     H4       HDR5D    0.195000       1.00800           0   0.00000       0.00000    
      2771 IM1H     139      IM1H     C3       CD2R5D    2.50700       11.6110           0  -1.08300       1.10000    
      2772 IM1H     139      IM1H     DC3      DRUD     -2.55400      0.400000           0   0.00000       0.00000    
      2773 IM1H     139      IM1H     H5       HDR5D    0.192000       1.00800           0   0.00000       0.00000    
      2774 IM1H     139      IM1H     C4       CD2R5E    2.72410       11.6110           0  -1.25300       1.20000    
      2775 IM1H     139      IM1H     DC4      DRUD     -2.74710      0.400000           0   0.00000       0.00000    
      2776 IM1H     139      IM1H     H6       HDR5E    0.203000       1.00800           0   0.00000       0.00000    
      2777 IM1H     139      IM1H     N2       ND2R5C    2.04220       13.6070           0 -0.803000       1.00000    
      2778 IM1H     139      IM1H     DN2      DRUD     -2.19920      0.400000           0   0.00000       0.00000    
      2779 IM1H     139      IM1H     H7       HDP1A    0.363000       1.00800           0   0.00000       0.00000    
      2780 IM1H     139      IM1H     LPN21    LPD       0.00000       0.00000          -1   0.00000       0.00000    
      2781 IM1H     140      IM1H     C1       CD33F     2.48500       11.6110           0  -1.18100       1.10000    
      2782 IM1H     140      IM1H     DC1      DRUD     -2.66700      0.400000           0   0.00000       0.00000    
      2783 IM1H     140      IM1H     H1       HDA3A    0.135000       1.00800           0   0.00000       0.00000    
      2784 IM1H     140      IM1H     H2       HDA3A    0.135000       1.00800           0   0.00000       0.00000    
      2785 IM1H     140      IM1H     H3       HDA3A    0.135000       1.00800           0   0.00000       0.00000    
      2786 IM1H     140      IM1H     N1       ND2R5C    2.35720       13.6070           0 -0.803000       1.00000    
      2787 IM1H     140      IM1H     DN1      DRUD     -2.19920      0.400000           0   0.00000       0.00000    
      2788 IM1H     140      IM1H     C2       CD2R5D    2.44700       11.6110           0  -1.08300       1.10000    
      2789 IM1H     140      IM1H     DC2      DRUD     -2.55400      0.400000           0   0.00000       0.00000    
      2790 IM1H     140      IM1H     H4       HDR5D    0.195000       1.00800           0   0.00000       0.00000    
      2791 IM1H     140      IM1H     C3       CD2R5D    2.50700       11.6110           0  -1.08300       1.10000    
      2792 IM1H     140      IM1H     DC3      DRUD     -2.55400      0.400000           0   0.00000       0.00000    
      2793 IM1H     140      IM1H     H5       HDR5D    0.192000       1.00800           0   0.00000       0.00000    
      2794 IM1H     140      IM1H     C4       CD2R5E    2.72410       11.6110           0  -1.25300       1.20000    
      2795 IM1H     140      IM1H     DC4      DRUD     -2.74710      0.400000           0   0.00000       0.00000    
      2796 IM1H     140      IM1H     H6       HDR5E    0.203000       1.00800           0   0.00000       0.00000    
      2797 IM1H     140      IM1H     N2       ND2R5C    2.04220       13.6070           0 -0.803000       1.00000    
      2798 IM1H     140      IM1H     DN2      DRUD     -2.19920      0.400000           0   0.00000       0.00000    
      2799 IM1H     140      IM1H     H7       HDP1A    0.363000       1.00800           0   0.00000       0.00000    
      2800 IM1H     140      IM1H     LPN21    LPD       0.00000       0.00000          -1   0.00000       0.00000    
      2801 IM1H     141      IM1H     C1       CD33F     2.48500       11.6110           0  -1.18100       1.10000    
      2802 IM1H     141      IM1H     DC1      DRUD     -2.66700      0.400000           0   0.00000       0.00000    
      2803 IM1H     141      IM1H     H1       HDA3A    0.135000       1.00800           0   0.00000       0.00000    
      2804 IM1H     141      IM1H     H2       HDA3A    0.135000       1.00800           0   0.00000       0.00000    
      2805 IM1H     141      IM1H     H3       HDA3A    0.135000       1.00800           0   0.00000       0.00000    
      2806 IM1H     141      IM1H     N1       ND2R5C    2.35720       13.6070           0 -0.803000       1.00000    
      2807 IM1H     141      IM1H     DN1      DRUD     -2.19920      0.400000           0   0.00000       0.00000    
      2808 IM1H     141      IM1H     C2       CD2R5D    2.44700       11.6110           0  -1.08300       1.10000    
      2809 IM1H     141      IM1H     DC2      DRUD     -2.55400      0.400000           0   0.00000       0.00000    
      2810 IM1H     141      IM1H     H4       HDR5D    0.195000       1.00800           0   0.00000       0.00000    
      2811 IM1H     141      IM1H     C3       CD2R5D    2.50700       11.6110           0  -1.08300       1.10000    
      2812 IM1H     141      IM1H     DC3      DRUD     -2.55400      0.400000           0   0.00000       0.00000    
      2813 IM1H     141      IM1H     H5       HDR5D    0.192000       1.00800           0   0.00000       0.00000    
      2814 IM1H     141      IM1H     C4       CD2R5E    2.72410       11.6110           0  -1.25300       1.20000    
      2815 IM1H     141      IM1H     DC4      DRUD     -2.74710      0.400000           0   0.00000       0.00000    
      2816 IM1H     141      IM1H     H6       HDR5E    0.203000       1.00800           0   0.00000       0.00000    
      2817 IM1H     141      IM1H     N2       ND2R5C    2.04220       13.6070           0 -0.803000       1.00000    
      2818 IM1H     141      IM1H     DN2      DRUD     -2.19920      0.400000           0   0.00000       0.00000    
      2819 IM1H     141      IM1H     H7       HDP1A    0.363000       1.00800           0   0.00000       0.00000    
      2820 IM1H     141      IM1H     LPN21    LPD       0.00000       0.00000          -1   0.00000       0.00000    
      2821 IM1H     142      IM1H     C1       CD33F     2.48500       11.6110           0  -1.18100       1.10000    
      2822 IM1H     142      IM1H     DC1      DRUD     -2.66700      0.400000           0   0.00000       0.00000    
      2823 IM1H     142      IM1H     H1       HDA3A    0.135000       1.00800           0   0.00000       0.00000    
      2824 IM1H     142      IM1H     H2       HDA3A    0.135000       1.00800           0   0.00000       0.00000    
      2825 IM1H     142      IM1H     H3       HDA3A    0.135000       1.00800           0   0.00000       0.00000    
      2826 IM1H     142      IM1H     N1       ND2R5C    2.35720       13.6070           0 -0.803000       1.00000    
      2827 IM1H     142      IM1H     DN1      DRUD     -2.19920      0.400000           0   0.00000       0.00000    
      2828 IM1H     142      IM1H     C2       CD2R5D    2.44700       11.6110           0  -1.08300       1.10000    
      2829 IM1H     142      IM1H     DC2      DRUD     -2.55400      0.400000           0   0.00000       0.00000    
      2830 IM1H     142      IM1H     H4       HDR5D    0.195000       1.00800           0   0.00000       0.00000    
      2831 IM1H     142      IM1H     C3       CD2R5D    2.50700       11.6110           0  -1.08300       1.10000    
      2832 IM1H     142      IM1H     DC3      DRUD     -2.55400      0.400000           0   0.00000       0.00000    
      2833 IM1H     142      IM1H     H5       HDR5D    0.192000       1.00800           0   0.00000       0.00000    
      2834 IM1H     142      IM1H     C4       CD2R5E    2.72410       11.6110           0  -1.25300       1.20000    
      2835 IM1H     142      IM1H     DC4      DRUD     -2.74710      0.400000           0   0.00000       0.00000    
      2836 IM1H     142      IM1H     H6       HDR5E    0.203000       1.00800           0   0.00000       0.00000    
      2837 IM1H     142      IM1H     N2       ND2R5C    2.04220       13.6070           0 -0.803000       1.00000    
      2838 IM1H     142      IM1H     DN2      DRUD     -2.19920      0.400000           0   0.00000       0.00000    
      2839 IM1H     142      IM1H     H7       HDP1A    0.363000       1.00800           0   0.00000       0.00000    
      2840 IM1H     142      IM1H     LPN21    LPD       0.00000       0.00000          -1   0.00000       0.00000    
      2841 IM1H     143      IM1H     C1       CD33F     2.48500       11.6110           0  -1.18100       1.10000    
      2842 IM1H     143      IM1H     DC1      DRUD     -2.66700      0.400000           0   0.00000       0.00000    
      2843 IM1H     143      IM1H     H1       HDA3A    0.135000       1.00800           0   0.00000       0.00000    
      2844 IM1H     143      IM1H     H2       HDA3A    0.135000       1.00800           0   0.00000       0.00000    
      2845 IM1H     143      IM1H     H3       HDA3A    0.135000       1.00800           0   0.00000       0.00000    
      2846 IM1H     143      IM1H     N1       ND2R5C    2.35720       13.6070           0 -0.803000       1.00000    
      2847 IM1H     143      IM1H     DN1      DRUD     -2.19920      0.400000           0   0.00000       0.00000    
      2848 IM1H     143      IM1H     C2       CD2R5D    2.44700       11.6110           0  -1.08300       1.10000    
      2849 IM1H     143      IM1H     DC2      DRUD     -2.55400      0.400000           0   0.00000       0.00000    
      2850 IM1H     143      IM1H     H4       HDR5D    0.195000       1.00800           0   0.00000       0.00000    
      2851 IM1H     143      IM1H     C3       CD2R5D    2.50700       11.6110           0  -1.08300       1.10000    
      2852 IM1H     143      IM1H     DC3      DRUD     -2.55400      0.400000           0   0.00000       0.00000    
      2853 IM1H     143      IM1H     H5       HDR5D    0.192000       1.00800           0   0.00000       0.00000    
      2854 IM1H     143      IM1H     C4       CD2R5E    2.72410       11.6110           0  -1.25300       1.20000    
      2855 IM1H     143      IM1H     DC4      DRUD     -2.74710      0.400000           0   0.00000       0.00000    
      2856 IM1H     143      IM1H     H6       HDR5E    0.203000       1.00800           0   0.00000       0.00000    
      2857 IM1H     143      IM1H     N2       ND2R5C    2.04220       13.6070           0 -0.803000       1.00000    
      2858 IM1H     143      IM1H     DN2      DRUD     -2.19920      0.400000           0   0.00000       0.00000    
      2859 IM1H     143      IM1H     H7       HDP1A    0.363000       1.00800           0   0.00000       0.00000    
      2860 IM1H     143      IM1H     LPN21    LPD       0.00000       0.00000          -1   0.00000       0.00000    
      2861 IM1H     144      IM1H     C1       CD33F     2.48500       11.6110           0  -1.18100       1.10000    
      2862 IM1H     144      IM1H     DC1      DRUD     -2.66700      0.400000           0   0.00000       0.00000    
      2863 IM1H     144      IM1H     H1       HDA3A    0.135000       1.00800           0   0.00000       0.00000    
      2864 IM1H     144      IM1H     H2       HDA3A    0.135000       1.00800           0   0.00000       0.00000    
      2865 IM1H     144      IM1H     H3       HDA3A    0.135000       1.00800           0   0.00000       0.00000    
      2866 IM1H     144      IM1H     N1       ND2R5C    2.35720       13.6070           0 -0.803000       1.00000    
      2867 IM1H     144      IM1H     DN1      DRUD     -2.19920      0.400000           0   0.00000       0.00000    
      2868 IM1H     144      IM1H     C2       CD2R5D    2.44700       11.6110           0  -1.08300       1.10000    
      2869 IM1H     144      IM1H     DC2      DRUD     -2.55400      0.400000           0   0.00000       0.00000    
      2870 IM1H     144      IM1H     H4       HDR5D    0.195000       1.00800           0   0.00000       0.00000    
      2871 IM1H     144      IM1H     C3       CD2R5D    2.50700       11.6110           0  -1.08300       1.10000    
      2872 IM1H     144      IM1H     DC3      DRUD     -2.55400      0.400000           0   0.00000       0.00000    
      2873 IM1H     144      IM1H     H5       HDR5D    0.192000       1.00800           0   0.00000       0.00000    
      2874 IM1H     144      IM1H     C4       CD2R5E    2.72410       11.6110           0  -1.25300       1.20000    
      2875 IM1H     144      IM1H     DC4      DRUD     -2.74710      0.400000           0   0.00000       0.00000    
      2876 IM1H     144      IM1H     H6       HDR5E    0.203000       1.00800           0   0.00000       0.00000    
      2877 IM1H     144      IM1H     N2       ND2R5C    2.04220       13.6070           0 -0.803000       1.00000    
      2878 IM1H     144      IM1H     DN2      DRUD     -2.19920      0.400000           0   0.00000       0.00000    
      2879 IM1H     144      IM1H     H7       HDP1A    0.363000       1.00800           0   0.00000       0.00000    
      2880 IM1H     144      IM1H     LPN21    LPD       0.00000       0.00000          -1   0.00000       0.00000    
      2881 IM1H     145      IM1H     C1       CD33F     2.48500       11.6110           0  -1.18100       1.10000    
      2882 IM1H     145      IM1H     DC1      DRUD     -2.66700      0.400000           0   0.00000       0.00000    
      2883 IM1H     145      IM1H     H1       HDA3A    0.135000       1.00800           0   0.00000       0.00000    
      2884 IM1H     145      IM1H     H2       HDA3A    0.135000       1.00800           0   0.00000       0.00000    
      2885 IM1H     145      IM1H     H3       HDA3A    0.135000       1.00800           0   0.00000       0.00000    
      2886 IM1H     145      IM1H     N1       ND2R5C    2.35720       13.6070           0 -0.803000       1.00000    
      2887 IM1H     145      IM1H     DN1      DRUD     -2.19920      0.400000           0   0.00000       0.00000    
      2888 IM1H     145      IM1H     C2       CD2R5D    2.44700       11.6110           0  -1.08300       1.10000    
      2889 IM1H     145      IM1H     DC2      DRUD     -2.55400      0.400000           0   0.00000       0.00000    
      2890 IM1H     145      IM1H     H4       HDR5D    0.195000       1.00800           0   0.00000       0.00000    
      2891 IM1H     145      IM1H     C3       CD2R5D    2.50700       11.6110           0  -1.08300       1.10000    
      2892 IM1H     145      IM1H     DC3      DRUD     -2.55400      0.400000           0   0.00000       0.00000    
      2893 IM1H     145      IM1H     H5       HDR5D    0.192000       1.00800           0   0.00000       0.00000    
      2894 IM1H     145      IM1H     C4       CD2R5E    2.72410       11.6110           0  -1.25300       1.20000    
      2895 IM1H     145      IM1H     DC4      DRUD     -2.74710      0.400000           0   0.00000       0.00000    
      2896 IM1H     145      IM1H     H6       HDR5E    0.203000       1.00800           0   0.00000       0.00000    
      2897 IM1H     145      IM1H     N2       ND2R5C    2.04220       13.6070           0 -0.803000       1.00000    
      2898 IM1H     145      IM1H     DN2      DRUD     -2.19920      0.400000           0   0.00000       0.00000    
      2899 IM1H     145      IM1H     H7       HDP1A    0.363000       1.00800           0   0.00000       0.00000    
      2900 IM1H     145      IM1H     LPN21    LPD       0.00000       0.00000          -1   0.00000       0.00000    
      2901 IM1H     146      IM1H     C1       CD33F     2.48500       11.6110           0  -1.18100       1.10000    
      2902 IM1H     146      IM1H     DC1      DRUD     -2.66700      0.400000           0   0.00000       0.00000    
      2903 IM1H     146      IM1H     H1       HDA3A    0.135000       1.00800           0   0.00000       0.00000    
      2904 IM1H     146      IM1H     H2       HDA3A    0.135000       1.00800           0   0.00000       0.00000    
      2905 IM1H     146      IM1H     H3       HDA3A    0.135000       1.00800           0   0.00000       0.00000    
      2906 IM1H     146      IM1H     N1       ND2R5C    2.35720       13.6070           0 -0.803000       1.00000    
      2907 IM1H     146      IM1H     DN1      DRUD     -2.19920      0.400000           0   0.00000       0.00000    
      2908 IM1H     146      IM1H     C2       CD2R5D    2.44700       11.6110           0  -1.08300       1.10000    
      2909 IM1H     146      IM1H     DC2      DRUD     -2.55400      0.400000           0   0.00000       0.00000    
      2910 IM1H     146      IM1H     H4       HDR5D    0.195000       1.00800           0   0.00000       0.00000    
      2911 IM1H     146      IM1H     C3       CD2R5D    2.50700       11.6110           0  -1.08300       1.10000    
      2912 IM1H     146      IM1H     DC3      DRUD     -2.55400      0.400000           0   0.00000       0.00000    
      2913 IM1H     146      IM1H     H5       HDR5D    0.192000       1.00800           0   0.00000       0.00000    
      2914 IM1H     146      IM1H     C4       CD2R5E    2.72410       11.6110           0  -1.25300       1.20000    
      2915 IM1H     146      IM1H     DC4      DRUD     -2.74710      0.400000           0   0.00000       0.00000    
      2916 IM1H     146      IM1H     H6       HDR5E    0.203000       1.00800           0   0.00000       0.00000    
      2917 IM1H     146      IM1H     N2       ND2R5C    2.04220       13.6070           0 -0.803000       1.00000    
      2918 IM1H     146      IM1H     DN2      DRUD     -2.19920      0.400000           0   0.00000       0.00000    
      2919 IM1H     146      IM1H     H7       HDP1A    0.363000       1.00800           0   0.00000       0.00000    
      2920 IM1H     146      IM1H     LPN21    LPD       0.00000       0.00000          -1   0.00000       0.00000    
      2921 IM1H     147      IM1H     C1       CD33F     2.48500       11.6110           0  -1.18100       1.10000    
      2922 IM1H     147      IM1H     DC1      DRUD     -2.66700      0.400000           0   0.00000       0.00000    
      2923 IM1H     147      IM1H     H1       HDA3A    0.135000       1.00800           0   0.00000       0.00000    
      2924 IM1H     147      IM1H     H2       HDA3A    0.135000       1.00800           0   0.00000       0.00000    
      2925 IM1H     147      IM1H     H3       HDA3A    0.135000       1.00800           0   0.00000       0.00000    
      2926 IM1H     147      IM1H     N1       ND2R5C    2.35720       13.6070           0 -0.803000       1.00000    
      2927 IM1H     147      IM1H     DN1      DRUD     -2.19920      0.400000           0   0.00000       0.00000    
      2928 IM1H     147      IM1H     C2       CD2R5D    2.44700       11.6110           0  -1.08300       1.10000    
      2929 IM1H     147      IM1H     DC2      DRUD     -2.55400      0.400000           0   0.00000       0.00000    
      2930 IM1H     147      IM1H     H4       HDR5D    0.195000       1.00800           0   0.00000       0.00000    
      2931 IM1H     147      IM1H     C3       CD2R5D    2.50700       11.6110           0  -1.08300       1.10000    
      2932 IM1H     147      IM1H     DC3      DRUD     -2.55400      0.400000           0   0.00000       0.00000    
      2933 IM1H     147      IM1H     H5       HDR5D    0.192000       1.00800           0   0.00000       0.00000    
      2934 IM1H     147      IM1H     C4       CD2R5E    2.72410       11.6110           0  -1.25300       1.20000    
      2935 IM1H     147      IM1H     DC4      DRUD     -2.74710      0.400000           0   0.00000       0.00000    
      2936 IM1H     147      IM1H     H6       HDR5E    0.203000       1.00800           0   0.00000       0.00000    
      2937 IM1H     147      IM1H     N2       ND2R5C    2.04220       13.6070           0 -0.803000       1.00000    
      2938 IM1H     147      IM1H     DN2      DRUD     -2.19920      0.400000           0   0.00000       0.00000    
      2939 IM1H     147      IM1H     H7       HDP1A    0.363000       1.00800           0   0.00000       0.00000    
      2940 IM1H     147      IM1H     LPN21    LPD       0.00000       0.00000          -1   0.00000       0.00000    
      2941 IM1H     148      IM1H     C1       CD33F     2.48500       11.6110           0  -1.18100       1.10000    
      2942 IM1H     148      IM1H     DC1      DRUD     -2.66700      0.400000           0   0.00000       0.00000    
      2943 IM1H     148      IM1H     H1       HDA3A    0.135000       1.00800           0   0.00000       0.00000    
      2944 IM1H     148      IM1H     H2       HDA3A    0.135000       1.00800           0   0.00000       0.00000    
      2945 IM1H     148      IM1H     H3       HDA3A    0.135000       1.00800           0   0.00000       0.00000    
      2946 IM1H     148      IM1H     N1       ND2R5C    2.35720       13.6070           0 -0.803000       1.00000    
      2947 IM1H     148      IM1H     DN1      DRUD     -2.19920      0.400000           0   0.00000       0.00000    
      2948 IM1H     148      IM1H     C2       CD2R5D    2.44700       11.6110           0  -1.08300       1.10000    
      2949 IM1H     148      IM1H     DC2      DRUD     -2.55400      0.400000           0   0.00000       0.00000    
      2950 IM1H     148      IM1H     H4       HDR5D    0.195000       1.00800           0   0.00000       0.00000    
      2951 IM1H     148      IM1H     C3       CD2R5D    2.50700       11.6110           0  -1.08300       1.10000    
      2952 IM1H     148      IM1H     DC3      DRUD     -2.55400      0.400000           0   0.00000       0.00000    
      2953 IM1H     148      IM1H     H5       HDR5D    0.192000       1.00800           0   0.00000       0.00000    
      2954 IM1H     148      IM1H     C4       CD2R5E    2.72410       11.6110           0  -1.25300       1.20000    
      2955 IM1H     148      IM1H     DC4      DRUD     -2.74710      0.400000           0   0.00000       0.00000    
      2956 IM1H     148      IM1H     H6       HDR5E    0.203000       1.00800           0   0.00000       0.00000    
      2957 IM1H     148      IM1H     N2       ND2R5C    2.04220       13.6070           0 -0.803000       1.00000    
      2958 IM1H     148      IM1H     DN2      DRUD     -2.19920      0.400000           0   0.00000       0.00000    
      2959 IM1H     148      IM1H     H7       HDP1A    0.363000       1.00800           0   0.00000       0.00000    
      2960 IM1H     148      IM1H     LPN21    LPD       0.00000       0.00000          -1   0.00000       0.00000    
      2961 IM1H     149      IM1H     C1       CD33F     2.48500       11.6110           0  -1.18100       1.10000    
      2962 IM1H     149      IM1H     DC1      DRUD     -2.66700      0.400000           0   0.00000       0.00000    
      2963 IM1H     149      IM1H     H1       HDA3A    0.135000       1.00800           0   0.00000       0.00000    
      2964 IM1H     149      IM1H     H2       HDA3A    0.135000       1.00800           0   0.00000       0.00000    
      2965 IM1H     149      IM1H     H3       HDA3A    0.135000       1.00800           0   0.00000       0.00000    
      2966 IM1H     149      IM1H     N1       ND2R5C    2.35720       13.6070           0 -0.803000       1.00000    
      2967 IM1H     149      IM1H     DN1      DRUD     -2.19920      0.400000           0   0.00000       0.00000    
      2968 IM1H     149      IM1H     C2       CD2R5D    2.44700       11.6110           0  -1.08300       1.10000    
      2969 IM1H     149      IM1H     DC2      DRUD     -2.55400      0.400000           0   0.00000       0.00000    
      2970 IM1H     149      IM1H     H4       HDR5D    0.195000       1.00800           0   0.00000       0.00000    
      2971 IM1H     149      IM1H     C3       CD2R5D    2.50700       11.6110           0  -1.08300       1.10000    
      2972 IM1H     149      IM1H     DC3      DRUD     -2.55400      0.400000           0   0.00000       0.00000    
      2973 IM1H     149      IM1H     H5       HDR5D    0.192000       1.00800           0   0.00000       0.00000    
      2974 IM1H     149      IM1H     C4       CD2R5E    2.72410       11.6110           0  -1.25300       1.20000    
      2975 IM1H     149      IM1H     DC4      DRUD     -2.74710      0.400000           0   0.00000       0.00000    
      2976 IM1H     149      IM1H     H6       HDR5E    0.203000       1.00800           0   0.00000       0.00000    
      2977 IM1H     149      IM1H     N2       ND2R5C    2.04220       13.6070           0 -0.803000       1.00000    
      2978 IM1H     149      IM1H     DN2      DRUD     -2.19920      0.400000           0   0.00000       0.00000    
      2979 IM1H     149      IM1H     H7       HDP1A    0.363000       1.00800           0   0.00000       0.00000    
      2980 IM1H     149      IM1H     LPN21    LPD       0.00000       0.00000          -1   0.00000       0.00000    
      2981 IM1H     150      IM1H     C1       CD33F     2.48500       11.6110           0  -1.18100       1.10000    
      2982 IM1H     150      IM1H     DC1      DRUD     -2.66700      0.400000           0   0.00000       0.00000    
      2983 IM1H     150      IM1H     H1       HDA3A    0.135000       1.00800           0   0.00000       0.00000    
      2984 IM1H     150      IM1H     H2       HDA3A    0.135000       1.00800           0   0.00000       0.00000    
      2985 IM1H     150      IM1H     H3       HDA3A    0.135000       1.00800           0   0.00000       0.00000    
      2986 IM1H     150      IM1H     N1       ND2R5C    2.35720       13.6070           0 -0.803000       1.00000    
      2987 IM1H     150      IM1H     DN1      DRUD     -2.19920      0.400000           0   0.00000       0.00000    
      2988 IM1H     150      IM1H     C2       CD2R5D    2.44700       11.6110           0  -1.08300       1.10000    
      2989 IM1H     150      IM1H     DC2      DRUD     -2.55400      0.400000           0   0.00000       0.00000    
      2990 IM1H     150      IM1H     H4       HDR5D    0.195000       1.00800           0   0.00000       0.00000    
      2991 IM1H     150      IM1H     C3       CD2R5D    2.50700       11.6110           0  -1.08300       1.10000    
      2992 IM1H     150      IM1H     DC3      DRUD     -2.55400      0.400000           0   0.00000       0.00000    
      2993 IM1H     150      IM1H     H5       HDR5D    0.192000       1.00800           0   0.00000       0.00000    
      2994 IM1H     150      IM1H     C4       CD2R5E    2.72410       11.6110           0  -1.25300       1.20000    
      2995 IM1H     150      IM1H     DC4      DRUD     -2.74710      0.400000           0   0.00000       0.00000    
      2996 IM1H     150      IM1H     H6       HDR5E    0.203000       1.00800           0   0.00000       0.00000    
      2997 IM1H     150      IM1H     N2       ND2R5C    2.04220       13.6070           0 -0.803000       1.00000    
      2998 IM1H     150      IM1H     DN2      DRUD     -2.19920      0.400000           0   0.00000       0.00000    
      2999 IM1H     150      IM1H     H7       HDP1A    0.363000       1.00800           0   0.00000       0.00000    
      3000 IM1H     150      IM1H     LPN21    LPD       0.00000       0.00000          -1   0.00000       0.00000    
      3001 IM1H     151      IM1H     C1       CD33F     2.48500       11.6110           0  -1.18100       1.10000    
      3002 IM1H     151      IM1H     DC1      DRUD     -2.66700      0.400000           0   0.00000       0.00000    
      3003 IM1H     151      IM1H     H1       HDA3A    0.135000       1.00800           0   0.00000       0.00000    
      3004 IM1H     151      IM1H     H2       HDA3A    0.135000       1.00800           0   0.00000       0.00000    
      3005 IM1H     151      IM1H     H3       HDA3A    0.135000       1.00800           0   0.00000       0.00000    
      3006 IM1H     151      IM1H     N1       ND2R5C    2.35720       13.6070           0 -0.803000       1.00000    
      3007 IM1H     151      IM1H     DN1      DRUD     -2.19920      0.400000           0   0.00000       0.00000    
      3008 IM1H     151      IM1H     C2       CD2R5D    2.44700       11.6110           0  -1.08300       1.10000    
      3009 IM1H     151      IM1H     DC2      DRUD     -2.55400      0.400000           0   0.00000       0.00000    
      3010 IM1H     151      IM1H     H4       HDR5D    0.195000       1.00800           0   0.00000       0.00000    
      3011 IM1H     151      IM1H     C3       CD2R5D    2.50700       11.6110           0  -1.08300       1.10000    
      3012 IM1H     151      IM1H     DC3      DRUD     -2.55400      0.400000           0   0.00000       0.00000    
      3013 IM1H     151      IM1H     H5       HDR5D    0.192000       1.00800           0   0.00000       0.00000    
      3014 IM1H     151      IM1H     C4       CD2R5E    2.72410       11.6110           0  -1.25300       1.20000    
      3015 IM1H     151      IM1H     DC4      DRUD     -2.74710      0.400000           0   0.00000       0.00000    
      3016 IM1H     151      IM1H     H6       HDR5E    0.203000       1.00800           0   0.00000       0.00000    
      3017 IM1H     151      IM1H     N2       ND2R5C    2.04220       13.6070           0 -0.803000       1.00000    
      3018 IM1H     151      IM1H     DN2      DRUD     -2.19920      0.400000           0   0.00000       0.00000    
      3019 IM1H     151      IM1H     H7       HDP1A    0.363000       1.00800           0   0.00000       0.00000    
      3020 IM1H     151      IM1H     LPN21    LPD       0.00000       0.00000          -1   0.00000       0.00000    
      3021 IM1H     152      IM1H     C1       CD33F     2.48500       11.6110           0  -1.18100       1.10000    
      3022 IM1H     152      IM1H     DC1      DRUD     -2.66700      0.400000           0   0.00000       0.00000    
      3023 IM1H     152      IM1H     H1       HDA3A    0.135000       1.00800           0   0.00000       0.00000    
      3024 IM1H     152      IM1H     H2       HDA3A    0.135000       1.00800           0   0.00000       0.00000    
      3025 IM1H     152      IM1H     H3       HDA3A    0.135000       1.00800           0   0.00000       0.00000    
      3026 IM1H     152      IM1H     N1       ND2R5C    2.35720       13.6070           0 -0.803000       1.00000    
      3027 IM1H     152      IM1H     DN1      DRUD     -2.19920      0.400000           0   0.00000       0.00000    
      3028 IM1H     152      IM1H     C2       CD2R5D    2.44700       11.6110           0  -1.08300       1.10000    
      3029 IM1H     152      IM1H     DC2      DRUD     -2.55400      0.400000           0   0.00000       0.00000    
      3030 IM1H     152      IM1H     H4       HDR5D    0.195000       1.00800           0   0.00000       0.00000    
      3031 IM1H     152      IM1H     C3       CD2R5D    2.50700       11.6110           0  -1.08300       1.10000    
      3032 IM1H     152      IM1H     DC3      DRUD     -2.55400      0.400000           0   0.00000       0.00000    
      3033 IM1H     152      IM1H     H5       HDR5D    0.192000       1.00800           0   0.00000       0.00000    
      3034 IM1H     152      IM1H     C4       CD2R5E    2.72410       11.6110           0  -1.25300       1.20000    
      3035 IM1H     152      IM1H     DC4      DRUD     -2.74710      0.400000           0   0.00000       0.00000    
      3036 IM1H     152      IM1H     H6       HDR5E    0.203000       1.00800           0   0.00000       0.00000    
      3037 IM1H     152      IM1H     N2       ND2R5C    2.04220       13.6070           0 -0.803000       1.00000    
      3038 IM1H     152      IM1H     DN2      DRUD     -2.19920      0.400000           0   0.00000       0.00000    
      3039 IM1H     152      IM1H     H7       HDP1A    0.363000       1.00800           0   0.00000       0.00000    
      3040 IM1H     152      IM1H     LPN21    LPD       0.00000       0.00000          -1   0.00000       0.00000    
      3041 IM1H     153      IM1H     C1       CD33F     2.48500       11.6110           0  -1.18100       1.10000    
      3042 IM1H     153      IM1H     DC1      DRUD     -2.66700      0.400000           0   0.00000       0.00000    
      3043 IM1H     153      IM1H     H1       HDA3A    0.135000       1.00800           0   0.00000       0.00000    
      3044 IM1H     153      IM1H     H2       HDA3A    0.135000       1.00800           0   0.00000       0.00000    
      3045 IM1H     153      IM1H     H3       HDA3A    0.135000       1.00800           0   0.00000       0.00000    
      3046 IM1H     153      IM1H     N1       ND2R5C    2.35720       13.6070           0 -0.803000       1.00000    
      3047 IM1H     153      IM1H     DN1      DRUD     -2.19920      0.400000           0   0.00000       0.00000    
      3048 IM1H     153      IM1H     C2       CD2R5D    2.44700       11.6110           0  -1.08300       1.10000    
      3049 IM1H     153      IM1H     DC2      DRUD     -2.55400      0.400000           0   0.00000       0.00000    
      3050 IM1H     153      IM1H     H4       HDR5D    0.195000       1.00800           0   0.00000       0.00000    
      3051 IM1H     153      IM1H     C3       CD2R5D    2.50700       11.6110           0  -1.08300       1.10000    
      3052 IM1H     153      IM1H     DC3      DRUD     -2.55400      0.400000           0   0.00000       0.00000    
      3053 IM1H     153      IM1H     H5       HDR5D    0.192000       1.00800           0   0.00000       0.00000    
      3054 IM1H     153      IM1H     C4       CD2R5E    2.72410       11.6110           0  -1.25300       1.20000    
      3055 IM1H     153      IM1H     DC4      DRUD     -2.74710      0.400000           0   0.00000       0.00000    
      3056 IM1H     153      IM1H     H6       HDR5E    0.203000       1.00800           0   0.00000       0.00000    
      3057 IM1H     153      IM1H     N2       ND2R5C    2.04220       13.6070           0 -0.803000       1.00000    
      3058 IM1H     153      IM1H     DN2      DRUD     -2.19920      0.400000           0   0.00000       0.00000    
      3059 IM1H     153      IM1H     H7       HDP1A    0.363000       1.00800           0   0.00000       0.00000    
      3060 IM1H     153      IM1H     LPN21    LPD       0.00000       0.00000          -1   0.00000       0.00000    
      3061 IM1H     154      IM1H     C1       CD33F     2.48500       11.6110           0  -1.18100       1.10000    
      3062 IM1H     154      IM1H     DC1      DRUD     -2.66700      0.400000           0   0.00000       0.00000    
      3063 IM1H     154      IM1H     H1       HDA3A    0.135000       1.00800           0   0.00000       0.00000    
      3064 IM1H     154      IM1H     H2       HDA3A    0.135000       1.00800           0   0.00000       0.00000    
      3065 IM1H     154      IM1H     H3       HDA3A    0.135000       1.00800           0   0.00000       0.00000    
      3066 IM1H     154      IM1H     N1       ND2R5C    2.35720       13.6070           0 -0.803000       1.00000    
      3067 IM1H     154      IM1H     DN1      DRUD     -2.19920      0.400000           0   0.00000       0.00000    
      3068 IM1H     154      IM1H     C2       CD2R5D    2.44700       11.6110           0  -1.08300       1.10000    
      3069 IM1H     154      IM1H     DC2      DRUD     -2.55400      0.400000           0   0.00000       0.00000    
      3070 IM1H     154      IM1H     H4       HDR5D    0.195000       1.00800           0   0.00000       0.00000    
      3071 IM1H     154      IM1H     C3       CD2R5D    2.50700       11.6110           0  -1.08300       1.10000    
      3072 IM1H     154      IM1H     DC3      DRUD     -2.55400      0.400000           0   0.00000       0.00000    
      3073 IM1H     154      IM1H     H5       HDR5D    0.192000       1.00800           0   0.00000       0.00000    
      3074 IM1H     154      IM1H     C4       CD2R5E    2.72410       11.6110           0  -1.25300       1.20000    
      3075 IM1H     154      IM1H     DC4      DRUD     -2.74710      0.400000           0   0.00000       0.00000    
      3076 IM1H     154      IM1H     H6       HDR5E    0.203000       1.00800           0   0.00000       0.00000    
      3077 IM1H     154      IM1H     N2       ND2R5C    2.04220       13.6070           0 -0.803000       1.00000    
      3078 IM1H     154      IM1H     DN2      DRUD     -2.19920      0.400000           0   0.00000       0.00000    
      3079 IM1H     154      IM1H     H7       HDP1A    0.363000       1.00800           0   0.00000       0.00000    
      3080 IM1H     154      IM1H     LPN21    LPD       0.00000       0.00000          -1   0.00000       0.00000    
      3081 IM1H     155      IM1H     C1       CD33F     2.48500       11.6110           0  -1.18100       1.10000    
      3082 IM1H     155      IM1H     DC1      DRUD     -2.66700      0.400000           0   0.00000       0.00000    
      3083 IM1H     155      IM1H     H1       HDA3A    0.135000       1.00800           0   0.00000       0.00000    
      3084 IM1H     155      IM1H     H2       HDA3A    0.135000       1.00800           0   0.00000       0.00000    
      3085 IM1H     155      IM1H     H3       HDA3A    0.135000       1.00800           0   0.00000       0.00000    
      3086 IM1H     155      IM1H     N1       ND2R5C    2.35720       13.6070           0 -0.803000       1.00000    
      3087 IM1H     155      IM1H     DN1      DRUD     -2.19920      0.400000           0   0.00000       0.00000    
      3088 IM1H     155      IM1H     C2       CD2R5D    2.44700       11.6110           0  -1.08300       1.10000    
      3089 IM1H     155      IM1H     DC2      DRUD     -2.55400      0.400000           0   0.00000       0.00000    
      3090 IM1H     155      IM1H     H4       HDR5D    0.195000       1.00800           0   0.00000       0.00000    
      3091 IM1H     155      IM1H     C3       CD2R5D    2.50700       11.6110           0  -1.08300       1.10000    
      3092 IM1H     155      IM1H     DC3      DRUD     -2.55400      0.400000           0   0.00000       0.00000    
      3093 IM1H     155      IM1H     H5       HDR5D    0.192000       1.00800           0   0.00000       0.00000    
      3094 IM1H     155      IM1H     C4       CD2R5E    2.72410       11.6110           0  -1.25300       1.20000    
      3095 IM1H     155      IM1H     DC4      DRUD     -2.74710      0.400000           0   0.00000       0.00000    
      3096 IM1H     155      IM1H     H6       HDR5E    0.203000       1.00800           0   0.00000       0.00000    
      3097 IM1H     155      IM1H     N2       ND2R5C    2.04220       13.6070           0 -0.803000       1.00000    
      3098 IM1H     155      IM1H     DN2      DRUD     -2.19920      0.400000           0   0.00000       0.00000    
      3099 IM1H     155      IM1H     H7       HDP1A    0.363000       1.00800           0   0.00000       0.00000    
      3100 IM1H     155      IM1H     LPN21    LPD       0.00000       0.00000          -1   0.00000       0.00000    
      3101 IM1H     156      IM1H     C1       CD33F     2.48500       11.6110           0  -1.18100       1.10000    
      3102 IM1H     156      IM1H     DC1      DRUD     -2.66700      0.400000           0   0.00000       0.00000    
      3103 IM1H     156      IM1H     H1       HDA3A    0.135000       1.00800           0   0.00000       0.00000    
      3104 IM1H     156      IM1H     H2       HDA3A    0.135000       1.00800           0   0.00000       0.00000    
      3105 IM1H     156      IM1H     H3       HDA3A    0.135000       1.00800           0   0.00000       0.00000    
      3106 IM1H     156      IM1H     N1       ND2R5C    2.35720       13.6070           0 -0.803000       1.00000    
      3107 IM1H     156      IM1H     DN1      DRUD     -2.19920      0.400000           0   0.00000       0.00000    
      3108 IM1H     156      IM1H     C2       CD2R5D    2.44700       11.6110           0  -1.08300       1.10000    
      3109 IM1H     156      IM1H     DC2      DRUD     -2.55400      0.400000           0   0.00000       0.00000    
      3110 IM1H     156      IM1H     H4       HDR5D    0.195000       1.00800           0   0.00000       0.00000    
      3111 IM1H     156      IM1H     C3       CD2R5D    2.50700       11.6110           0  -1.08300       1.10000    
      3112 IM1H     156      IM1H     DC3      DRUD     -2.55400      0.400000           0   0.00000       0.00000    
      3113 IM1H     156      IM1H     H5       HDR5D    0.192000       1.00800           0   0.00000       0.00000    
      3114 IM1H     156      IM1H     C4       CD2R5E    2.72410       11.6110           0  -1.25300       1.20000    
      3115 IM1H     156      IM1H     DC4      DRUD     -2.74710      0.400000           0   0.00000       0.00000    
      3116 IM1H     156      IM1H     H6       HDR5E    0.203000       1.00800           0   0.00000       0.00000    
      3117 IM1H     156      IM1H     N2       ND2R5C    2.04220       13.6070           0 -0.803000       1.00000    
      3118 IM1H     156      IM1H     DN2      DRUD     -2.19920      0.400000           0   0.00000       0.00000    
      3119 IM1H     156      IM1H     H7       HDP1A    0.363000       1.00800           0   0.00000       0.00000    
      3120 IM1H     156      IM1H     LPN21    LPD       0.00000       0.00000          -1   0.00000       0.00000    
      3121 IM1H     157      IM1H     C1       CD33F     2.48500       11.6110           0  -1.18100       1.10000    
      3122 IM1H     157      IM1H     DC1      DRUD     -2.66700      0.400000           0   0.00000       0.00000    
      3123 IM1H     157      IM1H     H1       HDA3A    0.135000       1.00800           0   0.00000       0.00000    
      3124 IM1H     157      IM1H     H2       HDA3A    0.135000       1.00800           0   0.00000       0.00000    
      3125 IM1H     157      IM1H     H3       HDA3A    0.135000       1.00800           0   0.00000       0.00000    
      3126 IM1H     157      IM1H     N1       ND2R5C    2.35720       13.6070           0 -0.803000       1.00000    
      3127 IM1H     157      IM1H     DN1      DRUD     -2.19920      0.400000           0   0.00000       0.00000    
      3128 IM1H     157      IM1H     C2       CD2R5D    2.44700       11.6110           0  -1.08300       1.10000    
      3129 IM1H     157      IM1H     DC2      DRUD     -2.55400      0.400000           0   0.00000       0.00000    
      3130 IM1H     157      IM1H     H4       HDR5D    0.195000       1.00800           0   0.00000       0.00000    
      3131 IM1H     157      IM1H     C3       CD2R5D    2.50700       11.6110           0  -1.08300       1.10000    
      3132 IM1H     157      IM1H     DC3      DRUD     -2.55400      0.400000           0   0.00000       0.00000    
      3133 IM1H     157      IM1H     H5       HDR5D    0.192000       1.00800           0   0.00000       0.00000    
      3134 IM1H     157      IM1H     C4       CD2R5E    2.72410       11.6110           0  -1.25300       1.20000    
      3135 IM1H     157      IM1H     DC4      DRUD     -2.74710      0.400000           0   0.00000       0.00000    
      3136 IM1H     157      IM1H     H6       HDR5E    0.203000       1.00800           0   0.00000       0.00000    
      3137 IM1H     157      IM1H     N2       ND2R5C    2.04220       13.6070           0 -0.803000       1.00000    
      3138 IM1H     157      IM1H     DN2      DRUD     -2.19920      0.400000           0   0.00000       0.00000    
      3139 IM1H     157      IM1H     H7       HDP1A    0.363000       1.00800           0   0.00000       0.00000    
      3140 IM1H     157      IM1H     LPN21    LPD       0.00000       0.00000          -1   0.00000       0.00000    
      3141 IM1H     158      IM1H     C1       CD33F     2.48500       11.6110           0  -1.18100       1.10000    
      3142 IM1H     158      IM1H     DC1      DRUD     -2.66700      0.400000           0   0.00000       0.00000    
      3143 IM1H     158      IM1H     H1       HDA3A    0.135000       1.00800           0   0.00000       0.00000    
      3144 IM1H     158      IM1H     H2       HDA3A    0.135000       1.00800           0   0.00000       0.00000    
      3145 IM1H     158      IM1H     H3       HDA3A    0.135000       1.00800           0   0.00000       0.00000    
      3146 IM1H     158      IM1H     N1       ND2R5C    2.35720       13.6070           0 -0.803000       1.00000    
      3147 IM1H     158      IM1H     DN1      DRUD     -2.19920      0.400000           0   0.00000       0.00000    
      3148 IM1H     158      IM1H     C2       CD2R5D    2.44700       11.6110           0  -1.08300       1.10000    
      3149 IM1H     158      IM1H     DC2      DRUD     -2.55400      0.400000           0   0.00000       0.00000    
      3150 IM1H     158      IM1H     H4       HDR5D    0.195000       1.00800           0   0.00000       0.00000    
      3151 IM1H     158      IM1H     C3       CD2R5D    2.50700       11.6110           0  -1.08300       1.10000    
      3152 IM1H     158      IM1H     DC3      DRUD     -2.55400      0.400000           0   0.00000       0.00000    
      3153 IM1H     158      IM1H     H5       HDR5D    0.192000       1.00800           0   0.00000       0.00000    
      3154 IM1H     158      IM1H     C4       CD2R5E    2.72410       11.6110           0  -1.25300       1.20000    
      3155 IM1H     158      IM1H     DC4      DRUD     -2.74710      0.400000           0   0.00000       0.00000    
      3156 IM1H     158      IM1H     H6       HDR5E    0.203000       1.00800           0   0.00000       0.00000    
      3157 IM1H     158      IM1H     N2       ND2R5C    2.04220       13.6070           0 -0.803000       1.00000    
      3158 IM1H     158      IM1H     DN2      DRUD     -2.19920      0.400000           0   0.00000       0.00000    
      3159 IM1H     158      IM1H     H7       HDP1A    0.363000       1.00800           0   0.00000       0.00000    
      3160 IM1H     158      IM1H     LPN21    LPD       0.00000       0.00000          -1   0.00000       0.00000    
      3161 IM1H     159      IM1H     C1       CD33F     2.48500       11.6110           0  -1.18100       1.10000    
      3162 IM1H     159      IM1H     DC1      DRUD     -2.66700      0.400000           0   0.00000       0.00000    
      3163 IM1H     159      IM1H     H1       HDA3A    0.135000       1.00800           0   0.00000       0.00000    
      3164 IM1H     159      IM1H     H2       HDA3A    0.135000       1.00800           0   0.00000       0.00000    
      3165 IM1H     159      IM1H     H3       HDA3A    0.135000       1.00800           0   0.00000       0.00000    
      3166 IM1H     159      IM1H     N1       ND2R5C    2.35720       13.6070           0 -0.803000       1.00000    
      3167 IM1H     159      IM1H     DN1      DRUD     -2.19920      0.400000           0   0.00000       0.00000    
      3168 IM1H     159      IM1H     C2       CD2R5D    2.44700       11.6110           0  -1.08300       1.10000    
      3169 IM1H     159      IM1H     DC2      DRUD     -2.55400      0.400000           0   0.00000       0.00000    
      3170 IM1H     159      IM1H     H4       HDR5D    0.195000       1.00800           0   0.00000       0.00000    
      3171 IM1H     159      IM1H     C3       CD2R5D    2.50700       11.6110           0  -1.08300       1.10000    
      3172 IM1H     159      IM1H     DC3      DRUD     -2.55400      0.400000           0   0.00000       0.00000    
      3173 IM1H     159      IM1H     H5       HDR5D    0.192000       1.00800           0   0.00000       0.00000    
      3174 IM1H     159      IM1H     C4       CD2R5E    2.72410       11.6110           0  -1.25300       1.20000    
      3175 IM1H     159      IM1H     DC4      DRUD     -2.74710      0.400000           0   0.00000       0.00000    
      3176 IM1H     159      IM1H     H6       HDR5E    0.203000       1.00800           0   0.00000       0.00000    
      3177 IM1H     159      IM1H     N2       ND2R5C    2.04220       13.6070           0 -0.803000       1.00000    
      3178 IM1H     159      IM1H     DN2      DRUD     -2.19920      0.400000           0   0.00000       0.00000    
      3179 IM1H     159      IM1H     H7       HDP1A    0.363000       1.00800           0   0.00000       0.00000    
      3180 IM1H     159      IM1H     LPN21    LPD       0.00000       0.00000          -1   0.00000       0.00000    
      3181 IM1H     160      IM1H     C1       CD33F     2.48500       11.6110           0  -1.18100       1.10000    
      3182 IM1H     160      IM1H     DC1      DRUD     -2.66700      0.400000           0   0.00000       0.00000    
      3183 IM1H     160      IM1H     H1       HDA3A    0.135000       1.00800           0   0.00000       0.00000    
      3184 IM1H     160      IM1H     H2       HDA3A    0.135000       1.00800           0   0.00000       0.00000    
      3185 IM1H     160      IM1H     H3       HDA3A    0.135000       1.00800           0   0.00000       0.00000    
      3186 IM1H     160      IM1H     N1       ND2R5C    2.35720       13.6070           0 -0.803000       1.00000    
      3187 IM1H     160      IM1H     DN1      DRUD     -2.19920      0.400000           0   0.00000       0.00000    
      3188 IM1H     160      IM1H     C2       CD2R5D    2.44700       11.6110           0  -1.08300       1.10000    
      3189 IM1H     160      IM1H     DC2      DRUD     -2.55400      0.400000           0   0.00000       0.00000    
      3190 IM1H     160      IM1H     H4       HDR5D    0.195000       1.00800           0   0.00000       0.00000    
      3191 IM1H     160      IM1H     C3       CD2R5D    2.50700       11.6110           0  -1.08300       1.10000    
      3192 IM1H     160      IM1H     DC3      DRUD     -2.55400      0.400000           0   0.00000       0.00000    
      3193 IM1H     160      IM1H     H5       HDR5D    0.192000       1.00800           0   0.00000       0.00000    
      3194 IM1H     160      IM1H     C4       CD2R5E    2.72410       11.6110           0  -1.25300       1.20000    
      3195 IM1H     160      IM1H     DC4      DRUD     -2.74710      0.400000           0   0.00000       0.00000    
      3196 IM1H     160      IM1H     H6       HDR5E    0.203000       1.00800           0   0.00000       0.00000    
      3197 IM1H     160      IM1H     N2       ND2R5C    2.04220       13.6070           0 -0.803000       1.00000    
      3198 IM1H     160      IM1H     DN2      DRUD     -2.19920      0.400000           0   0.00000       0.00000    
      3199 IM1H     160      IM1H     H7       HDP1A    0.363000       1.00800           0   0.00000       0.00000    
      3200 IM1H     160      IM1H     LPN21    LPD       0.00000       0.00000          -1   0.00000       0.00000    
      3201 IM1H     161      IM1H     C1       CD33F     2.48500       11.6110           0  -1.18100       1.10000    
      3202 IM1H     161      IM1H     DC1      DRUD     -2.66700      0.400000           0   0.00000       0.00000    
      3203 IM1H     161      IM1H     H1       HDA3A    0.135000       1.00800           0   0.00000       0.00000    
      3204 IM1H     161      IM1H     H2       HDA3A    0.135000       1.00800           0   0.00000       0.00000    
      3205 IM1H     161      IM1H     H3       HDA3A    0.135000       1.00800           0   0.00000       0.00000    
      3206 IM1H     161      IM1H     N1       ND2R5C    2.35720       13.6070           0 -0.803000       1.00000    
      3207 IM1H     161      IM1H     DN1      DRUD     -2.19920      0.400000           0   0.00000       0.00000    
      3208 IM1H     161      IM1H     C2       CD2R5D    2.44700       11.6110           0  -1.08300       1.10000    
      3209 IM1H     161      IM1H     DC2      DRUD     -2.55400      0.400000           0   0.00000       0.00000    
      3210 IM1H     161      IM1H     H4       HDR5D    0.195000       1.00800           0   0.00000       0.00000    
      3211 IM1H     161      IM1H     C3       CD2R5D    2.50700       11.6110           0  -1.08300       1.10000    
      3212 IM1H     161      IM1H     DC3      DRUD     -2.55400      0.400000           0   0.00000       0.00000    
      3213 IM1H     161      IM1H     H5       HDR5D    0.192000       1.00800           0   0.00000       0.00000    
      3214 IM1H     161      IM1H     C4       CD2R5E    2.72410       11.6110           0  -1.25300       1.20000    
      3215 IM1H     161      IM1H     DC4      DRUD     -2.74710      0.400000           0   0.00000       0.00000    
      3216 IM1H     161      IM1H     H6       HDR5E    0.203000       1.00800           0   0.00000       0.00000    
      3217 IM1H     161      IM1H     N2       ND2R5C    2.04220       13.6070           0 -0.803000       1.00000    
      3218 IM1H     161      IM1H     DN2      DRUD     -2.19920      0.400000           0   0.00000       0.00000    
      3219 IM1H     161      IM1H     H7       HDP1A    0.363000       1.00800           0   0.00000       0.00000    
      3220 IM1H     161      IM1H     LPN21    LPD       0.00000       0.00000          -1   0.00000       0.00000    
      3221 IM1H     162      IM1H     C1       CD33F     2.48500       11.6110           0  -1.18100       1.10000    
      3222 IM1H     162      IM1H     DC1      DRUD     -2.66700      0.400000           0   0.00000       0.00000    
      3223 IM1H     162      IM1H     H1       HDA3A    0.135000       1.00800           0   0.00000       0.00000    
      3224 IM1H     162      IM1H     H2       HDA3A    0.135000       1.00800           0   0.00000       0.00000    
      3225 IM1H     162      IM1H     H3       HDA3A    0.135000       1.00800           0   0.00000       0.00000    
      3226 IM1H     162      IM1H     N1       ND2R5C    2.35720       13.6070           0 -0.803000       1.00000    
      3227 IM1H     162      IM1H     DN1      DRUD     -2.19920      0.400000           0   0.00000       0.00000    
      3228 IM1H     162      IM1H     C2       CD2R5D    2.44700       11.6110           0  -1.08300       1.10000    
      3229 IM1H     162      IM1H     DC2      DRUD     -2.55400      0.400000           0   0.00000       0.00000    
      3230 IM1H     162      IM1H     H4       HDR5D    0.195000       1.00800           0   0.00000       0.00000    
      3231 IM1H     162      IM1H     C3       CD2R5D    2.50700       11.6110           0  -1.08300       1.10000    
      3232 IM1H     162      IM1H     DC3      DRUD     -2.55400      0.400000           0   0.00000       0.00000    
      3233 IM1H     162      IM1H     H5       HDR5D    0.192000       1.00800           0   0.00000       0.00000    
      3234 IM1H     162      IM1H     C4       CD2R5E    2.72410       11.6110           0  -1.25300       1.20000    
      3235 IM1H     162      IM1H     DC4      DRUD     -2.74710      0.400000           0   0.00000       0.00000    
      3236 IM1H     162      IM1H     H6       HDR5E    0.203000       1.00800           0   0.00000       0.00000    
      3237 IM1H     162      IM1H     N2       ND2R5C    2.04220       13.6070           0 -0.803000       1.00000    
      3238 IM1H     162      IM1H     DN2      DRUD     -2.19920      0.400000           0   0.00000       0.00000    
      3239 IM1H     162      IM1H     H7       HDP1A    0.363000       1.00800           0   0.00000       0.00000    
      3240 IM1H     162      IM1H     LPN21    LPD       0.00000       0.00000          -1   0.00000       0.00000    
      3241 IM1H     163      IM1H     C1       CD33F     2.48500       11.6110           0  -1.18100       1.10000    
      3242 IM1H     163      IM1H     DC1      DRUD     -2.66700      0.400000           0   0.00000       0.00000    
      3243 IM1H     163      IM1H     H1       HDA3A    0.135000       1.00800           0   0.00000       0.00000    
      3244 IM1H     163      IM1H     H2       HDA3A    0.135000       1.00800           0   0.00000       0.00000    
      3245 IM1H     163      IM1H     H3       HDA3A    0.135000       1.00800           0   0.00000       0.00000    
      3246 IM1H     163      IM1H     N1       ND2R5C    2.35720       13.6070           0 -0.803000       1.00000    
      3247 IM1H     163      IM1H     DN1      DRUD     -2.19920      0.400000           0   0.00000       0.00000    
      3248 IM1H     163      IM1H     C2       CD2R5D    2.44700       11.6110           0  -1.08300       1.10000    
      3249 IM1H     163      IM1H     DC2      DRUD     -2.55400      0.400000           0   0.00000       0.00000    
      3250 IM1H     163      IM1H     H4       HDR5D    0.195000       1.00800           0   0.00000       0.00000    
      3251 IM1H     163      IM1H     C3       CD2R5D    2.50700       11.6110           0  -1.08300       1.10000    
      3252 IM1H     163      IM1H     DC3      DRUD     -2.55400      0.400000           0   0.00000       0.00000    
      3253 IM1H     163      IM1H     H5       HDR5D    0.192000       1.00800           0   0.00000       0.00000    
      3254 IM1H     163      IM1H     C4       CD2R5E    2.72410       11.6110           0  -1.25300       1.20000    
      3255 IM1H     163      IM1H     DC4      DRUD     -2.74710      0.400000           0   0.00000       0.00000    
      3256 IM1H     163      IM1H     H6       HDR5E    0.203000       1.00800           0   0.00000       0.00000    
      3257 IM1H     163      IM1H     N2       ND2R5C    2.04220       13.6070           0 -0.803000       1.00000    
      3258 IM1H     163      IM1H     DN2      DRUD     -2.19920      0.400000           0   0.00000       0.00000    
      3259 IM1H     163      IM1H     H7       HDP1A    0.363000       1.00800           0   0.00000       0.00000    
      3260 IM1H     163      IM1H     LPN21    LPD       0.00000       0.00000          -1   0.00000       0.00000    
      3261 IM1H     164      IM1H     C1       CD33F     2.48500       11.6110           0  -1.18100       1.10000    
      3262 IM1H     164      IM1H     DC1      DRUD     -2.66700      0.400000           0   0.00000       0.00000    
      3263 IM1H     164      IM1H     H1       HDA3A    0.135000       1.00800           0   0.00000       0.00000    
      3264 IM1H     164      IM1H     H2       HDA3A    0.135000       1.00800           0   0.00000       0.00000    
      3265 IM1H     164      IM1H     H3       HDA3A    0.135000       1.00800           0   0.00000       0.00000    
      3266 IM1H     164      IM1H     N1       ND2R5C    2.35720       13.6070           0 -0.803000       1.00000    
      3267 IM1H     164      IM1H     DN1      DRUD     -2.19920      0.400000           0   0.00000       0.00000    
      3268 IM1H     164      IM1H     C2       CD2R5D    2.44700       11.6110           0  -1.08300       1.10000    
      3269 IM1H     164      IM1H     DC2      DRUD     -2.55400      0.400000           0   0.00000       0.00000    
      3270 IM1H     164      IM1H     H4       HDR5D    0.195000       1.00800           0   0.00000       0.00000    
      3271 IM1H     164      IM1H     C3       CD2R5D    2.50700       11.6110           0  -1.08300       1.10000    
      3272 IM1H     164      IM1H     DC3      DRUD     -2.55400      0.400000           0   0.00000       0.00000    
      3273 IM1H     164      IM1H     H5       HDR5D    0.192000       1.00800           0   0.00000       0.00000    
      3274 IM1H     164      IM1H     C4       CD2R5E    2.72410       11.6110           0  -1.25300       1.20000    
      3275 IM1H     164      IM1H     DC4      DRUD     -2.74710      0.400000           0   0.00000       0.00000    
      3276 IM1H     164      IM1H     H6       HDR5E    0.203000       1.00800           0   0.00000       0.00000    
      3277 IM1H     164      IM1H     N2       ND2R5C    2.04220       13.6070           0 -0.803000       1.00000    
      3278 IM1H     164      IM1H     DN2      DRUD     -2.19920      0.400000           0   0.00000       0.00000    
      3279 IM1H     164      IM1H     H7       HDP1A    0.363000       1.00800           0   0.00000       0.00000    
      3280 IM1H     164      IM1H     LPN21    LPD       0.00000       0.00000          -1   0.00000       0.00000    
      3281 IM1H     165      IM1H     C1       CD33F     2.48500       11.6110           0  -1.18100       1.10000    
      3282 IM1H     165      IM1H     DC1      DRUD     -2.66700      0.400000           0   0.00000       0.00000    
      3283 IM1H     165      IM1H     H1       HDA3A    0.135000       1.00800           0   0.00000       0.00000    
      3284 IM1H     165      IM1H     H2       HDA3A    0.135000       1.00800           0   0.00000       0.00000    
      3285 IM1H     165      IM1H     H3       HDA3A    0.135000       1.00800           0   0.00000       0.00000    
      3286 IM1H     165      IM1H     N1       ND2R5C    2.35720       13.6070           0 -0.803000       1.00000    
      3287 IM1H     165      IM1H     DN1      DRUD     -2.19920      0.400000           0   0.00000       0.00000    
      3288 IM1H     165      IM1H     C2       CD2R5D    2.44700       11.6110           0  -1.08300       1.10000    
      3289 IM1H     165      IM1H     DC2      DRUD     -2.55400      0.400000           0   0.00000       0.00000    
      3290 IM1H     165      IM1H     H4       HDR5D    0.195000       1.00800           0   0.00000       0.00000    
      3291 IM1H     165      IM1H     C3       CD2R5D    2.50700       11.6110           0  -1.08300       1.10000    
      3292 IM1H     165      IM1H     DC3      DRUD     -2.55400      0.400000           0   0.00000       0.00000    
      3293 IM1H     165      IM1H     H5       HDR5D    0.192000       1.00800           0   0.00000       0.00000    
      3294 IM1H     165      IM1H     C4       CD2R5E    2.72410       11.6110           0  -1.25300       1.20000    
      3295 IM1H     165      IM1H     DC4      DRUD     -2.74710      0.400000           0   0.00000       0.00000    
      3296 IM1H     165      IM1H     H6       HDR5E    0.203000       1.00800           0   0.00000       0.00000    
      3297 IM1H     165      IM1H     N2       ND2R5C    2.04220       13.6070           0 -0.803000       1.00000    
      3298 IM1H     165      IM1H     DN2      DRUD     -2.19920      0.400000           0   0.00000       0.00000    
      3299 IM1H     165      IM1H     H7       HDP1A    0.363000       1.00800           0   0.00000       0.00000    
      3300 IM1H     165      IM1H     LPN21    LPD       0.00000       0.00000          -1   0.00000       0.00000    
      3301 IM1H     166      IM1H     C1       CD33F     2.48500       11.6110           0  -1.18100       1.10000    
      3302 IM1H     166      IM1H     DC1      DRUD     -2.66700      0.400000           0   0.00000       0.00000    
      3303 IM1H     166      IM1H     H1       HDA3A    0.135000       1.00800           0   0.00000       0.00000    
      3304 IM1H     166      IM1H     H2       HDA3A    0.135000       1.00800           0   0.00000       0.00000    
      3305 IM1H     166      IM1H     H3       HDA3A    0.135000       1.00800           0   0.00000       0.00000    
      3306 IM1H     166      IM1H     N1       ND2R5C    2.35720       13.6070           0 -0.803000       1.00000    
      3307 IM1H     166      IM1H     DN1      DRUD     -2.19920      0.400000           0   0.00000       0.00000    
      3308 IM1H     166      IM1H     C2       CD2R5D    2.44700       11.6110           0  -1.08300       1.10000    
      3309 IM1H     166      IM1H     DC2      DRUD     -2.55400      0.400000           0   0.00000       0.00000    
      3310 IM1H     166      IM1H     H4       HDR5D    0.195000       1.00800           0   0.00000       0.00000    
      3311 IM1H     166      IM1H     C3       CD2R5D    2.50700       11.6110           0  -1.08300       1.10000    
      3312 IM1H     166      IM1H     DC3      DRUD     -2.55400      0.400000           0   0.00000       0.00000    
      3313 IM1H     166      IM1H     H5       HDR5D    0.192000       1.00800           0   0.00000       0.00000    
      3314 IM1H     166      IM1H     C4       CD2R5E    2.72410       11.6110           0  -1.25300       1.20000    
      3315 IM1H     166      IM1H     DC4      DRUD     -2.74710      0.400000           0   0.00000       0.00000    
      3316 IM1H     166      IM1H     H6       HDR5E    0.203000       1.00800           0   0.00000       0.00000    
      3317 IM1H     166      IM1H     N2       ND2R5C    2.04220       13.6070           0 -0.803000       1.00000    
      3318 IM1H     166      IM1H     DN2      DRUD     -2.19920      0.400000           0   0.00000       0.00000    
      3319 IM1H     166      IM1H     H7       HDP1A    0.363000       1.00800           0   0.00000       0.00000    
      3320 IM1H     166      IM1H     LPN21    LPD       0.00000       0.00000          -1   0.00000       0.00000    
      3321 IM1H     167      IM1H     C1       CD33F     2.48500       11.6110           0  -1.18100       1.10000    
      3322 IM1H     167      IM1H     DC1      DRUD     -2.66700      0.400000           0   0.00000       0.00000    
      3323 IM1H     167      IM1H     H1       HDA3A    0.135000       1.00800           0   0.00000       0.00000    
      3324 IM1H     167      IM1H     H2       HDA3A    0.135000       1.00800           0   0.00000       0.00000    
      3325 IM1H     167      IM1H     H3       HDA3A    0.135000       1.00800           0   0.00000       0.00000    
      3326 IM1H     167      IM1H     N1       ND2R5C    2.35720       13.6070           0 -0.803000       1.00000    
      3327 IM1H     167      IM1H     DN1      DRUD     -2.19920      0.400000           0   0.00000       0.00000    
      3328 IM1H     167      IM1H     C2       CD2R5D    2.44700       11.6110           0  -1.08300       1.10000    
      3329 IM1H     167      IM1H     DC2      DRUD     -2.55400      0.400000           0   0.00000       0.00000    
      3330 IM1H     167      IM1H     H4       HDR5D    0.195000       1.00800           0   0.00000       0.00000    
      3331 IM1H     167      IM1H     C3       CD2R5D    2.50700       11.6110           0  -1.08300       1.10000    
      3332 IM1H     167      IM1H     DC3      DRUD     -2.55400      0.400000           0   0.00000       0.00000    
      3333 IM1H     167      IM1H     H5       HDR5D    0.192000       1.00800           0   0.00000       0.00000    
      3334 IM1H     167      IM1H     C4       CD2R5E    2.72410       11.6110           0  -1.25300       1.20000    
      3335 IM1H     167      IM1H     DC4      DRUD     -2.74710      0.400000           0   0.00000       0.00000    
      3336 IM1H     167      IM1H     H6       HDR5E    0.203000       1.00800           0   0.00000       0.00000    
      3337 IM1H     167      IM1H     N2       ND2R5C    2.04220       13.6070           0 -0.803000       1.00000    
      3338 IM1H     167      IM1H     DN2      DRUD     -2.19920      0.400000           0   0.00000       0.00000    
      3339 IM1H     167      IM1H     H7       HDP1A    0.363000       1.00800           0   0.00000       0.00000    
      3340 IM1H     167      IM1H     LPN21    LPD       0.00000       0.00000          -1   0.00000       0.00000    
      3341 IM1H     168      IM1H     C1       CD33F     2.48500       11.6110           0  -1.18100       1.10000    
      3342 IM1H     168      IM1H     DC1      DRUD     -2.66700      0.400000           0   0.00000       0.00000    
      3343 IM1H     168      IM1H     H1       HDA3A    0.135000       1.00800           0   0.00000       0.00000    
      3344 IM1H     168      IM1H     H2       HDA3A    0.135000       1.00800           0   0.00000       0.00000    
      3345 IM1H     168      IM1H     H3       HDA3A    0.135000       1.00800           0   0.00000       0.00000    
      3346 IM1H     168      IM1H     N1       ND2R5C    2.35720       13.6070           0 -0.803000       1.00000    
      3347 IM1H     168      IM1H     DN1      DRUD     -2.19920      0.400000           0   0.00000       0.00000    
      3348 IM1H     168      IM1H     C2       CD2R5D    2.44700       11.6110           0  -1.08300       1.10000    
      3349 IM1H     168      IM1H     DC2      DRUD     -2.55400      0.400000           0   0.00000       0.00000    
      3350 IM1H     168      IM1H     H4       HDR5D    0.195000       1.00800           0   0.00000       0.00000    
      3351 IM1H     168      IM1H     C3       CD2R5D    2.50700       11.6110           0  -1.08300       1.10000    
      3352 IM1H     168      IM1H     DC3      DRUD     -2.55400      0.400000           0   0.00000       0.00000    
      3353 IM1H     168      IM1H     H5       HDR5D    0.192000       1.00800           0   0.00000       0.00000    
      3354 IM1H     168      IM1H     C4       CD2R5E    2.72410       11.6110           0  -1.25300       1.20000    
      3355 IM1H     168      IM1H     DC4      DRUD     -2.74710      0.400000           0   0.00000       0.00000    
      3356 IM1H     168      IM1H     H6       HDR5E    0.203000       1.00800           0   0.00000       0.00000    
      3357 IM1H     168      IM1H     N2       ND2R5C    2.04220       13.6070           0 -0.803000       1.00000    
      3358 IM1H     168      IM1H     DN2      DRUD     -2.19920      0.400000           0   0.00000       0.00000    
      3359 IM1H     168      IM1H     H7       HDP1A    0.363000       1.00800           0   0.00000       0.00000    
      3360 IM1H     168      IM1H     LPN21    LPD       0.00000       0.00000          -1   0.00000       0.00000    
      3361 IM1H     169      IM1H     C1       CD33F     2.48500       11.6110           0  -1.18100       1.10000    
      3362 IM1H     169      IM1H     DC1      DRUD     -2.66700      0.400000           0   0.00000       0.00000    
      3363 IM1H     169      IM1H     H1       HDA3A    0.135000       1.00800           0   0.00000       0.00000    
      3364 IM1H     169      IM1H     H2       HDA3A    0.135000       1.00800           0   0.00000       0.00000    
      3365 IM1H     169      IM1H     H3       HDA3A    0.135000       1.00800           0   0.00000       0.00000    
      3366 IM1H     169      IM1H     N1       ND2R5C    2.35720       13.6070           0 -0.803000       1.00000    
      3367 IM1H     169      IM1H     DN1      DRUD     -2.19920      0.400000           0   0.00000       0.00000    
      3368 IM1H     169      IM1H     C2       CD2R5D    2.44700       11.6110           0  -1.08300       1.10000    
      3369 IM1H     169      IM1H     DC2      DRUD     -2.55400      0.400000           0   0.00000       0.00000    
      3370 IM1H     169      IM1H     H4       HDR5D    0.195000       1.00800           0   0.00000       0.00000    
      3371 IM1H     169      IM1H     C3       CD2R5D    2.50700       11.6110           0  -1.08300       1.10000    
      3372 IM1H     169      IM1H     DC3      DRUD     -2.55400      0.400000           0   0.00000       0.00000    
      3373 IM1H     169      IM1H     H5       HDR5D    0.192000       1.00800           0   0.00000       0.00000    
      3374 IM1H     169      IM1H     C4       CD2R5E    2.72410       11.6110           0  -1.25300       1.20000    
      3375 IM1H     169      IM1H     DC4      DRUD     -2.74710      0.400000           0   0.00000       0.00000    
      3376 IM1H     169      IM1H     H6       HDR5E    0.203000       1.00800           0   0.00000       0.00000    
      3377 IM1H     169      IM1H     N2       ND2R5C    2.04220       13.6070           0 -0.803000       1.00000    
      3378 IM1H     169      IM1H     DN2      DRUD     -2.19920      0.400000           0   0.00000       0.00000    
      3379 IM1H     169      IM1H     H7       HDP1A    0.363000       1.00800           0   0.00000       0.00000    
      3380 IM1H     169      IM1H     LPN21    LPD       0.00000       0.00000          -1   0.00000       0.00000    
      3381 IM1H     170      IM1H     C1       CD33F     2.48500       11.6110           0  -1.18100       1.10000    
      3382 IM1H     170      IM1H     DC1      DRUD     -2.66700      0.400000           0   0.00000       0.00000    
      3383 IM1H     170      IM1H     H1       HDA3A    0.135000       1.00800           0   0.00000       0.00000    
      3384 IM1H     170      IM1H     H2       HDA3A    0.135000       1.00800           0   0.00000       0.00000    
      3385 IM1H     170      IM1H     H3       HDA3A    0.135000       1.00800           0   0.00000       0.00000    
      3386 IM1H     170      IM1H     N1       ND2R5C    2.35720       13.6070           0 -0.803000       1.00000    
      3387 IM1H     170      IM1H     DN1      DRUD     -2.19920      0.400000           0   0.00000       0.00000    
      3388 IM1H     170      IM1H     C2       CD2R5D    2.44700       11.6110           0  -1.08300       1.10000    
      3389 IM1H     170      IM1H     DC2      DRUD     -2.55400      0.400000           0   0.00000       0.00000    
      3390 IM1H     170      IM1H     H4       HDR5D    0.195000       1.00800           0   0.00000       0.00000    
      3391 IM1H     170      IM1H     C3       CD2R5D    2.50700       11.6110           0  -1.08300       1.10000    
      3392 IM1H     170      IM1H     DC3      DRUD     -2.55400      0.400000           0   0.00000       0.00000    
      3393 IM1H     170      IM1H     H5       HDR5D    0.192000       1.00800           0   0.00000       0.00000    
      3394 IM1H     170      IM1H     C4       CD2R5E    2.72410       11.6110           0  -1.25300       1.20000    
      3395 IM1H     170      IM1H     DC4      DRUD     -2.74710      0.400000           0   0.00000       0.00000    
      3396 IM1H     170      IM1H     H6       HDR5E    0.203000       1.00800           0   0.00000       0.00000    
      3397 IM1H     170      IM1H     N2       ND2R5C    2.04220       13.6070           0 -0.803000       1.00000    
      3398 IM1H     170      IM1H     DN2      DRUD     -2.19920      0.400000           0   0.00000       0.00000    
      3399 IM1H     170      IM1H     H7       HDP1A    0.363000       1.00800           0   0.00000       0.00000    
      3400 IM1H     170      IM1H     LPN21    LPD       0.00000       0.00000          -1   0.00000       0.00000    
      3401 IM1H     171      IM1H     C1       CD33F     2.48500       11.6110           0  -1.18100       1.10000    
      3402 IM1H     171      IM1H     DC1      DRUD     -2.66700      0.400000           0   0.00000       0.00000    
      3403 IM1H     171      IM1H     H1       HDA3A    0.135000       1.00800           0   0.00000       0.00000    
      3404 IM1H     171      IM1H     H2       HDA3A    0.135000       1.00800           0   0.00000       0.00000    
      3405 IM1H     171      IM1H     H3       HDA3A    0.135000       1.00800           0   0.00000       0.00000    
      3406 IM1H     171      IM1H     N1       ND2R5C    2.35720       13.6070           0 -0.803000       1.00000    
      3407 IM1H     171      IM1H     DN1      DRUD     -2.19920      0.400000           0   0.00000       0.00000    
      3408 IM1H     171      IM1H     C2       CD2R5D    2.44700       11.6110           0  -1.08300       1.10000    
      3409 IM1H     171      IM1H     DC2      DRUD     -2.55400      0.400000           0   0.00000       0.00000    
      3410 IM1H     171      IM1H     H4       HDR5D    0.195000       1.00800           0   0.00000       0.00000    
      3411 IM1H     171      IM1H     C3       CD2R5D    2.50700       11.6110           0  -1.08300       1.10000    
      3412 IM1H     171      IM1H     DC3      DRUD     -2.55400      0.400000           0   0.00000       0.00000    
      3413 IM1H     171      IM1H     H5       HDR5D    0.192000       1.00800           0   0.00000       0.00000    
      3414 IM1H     171      IM1H     C4       CD2R5E    2.72410       11.6110           0  -1.25300       1.20000    
      3415 IM1H     171      IM1H     DC4      DRUD     -2.74710      0.400000           0   0.00000       0.00000    
      3416 IM1H     171      IM1H     H6       HDR5E    0.203000       1.00800           0   0.00000       0.00000    
      3417 IM1H     171      IM1H     N2       ND2R5C    2.04220       13.6070           0 -0.803000       1.00000    
      3418 IM1H     171      IM1H     DN2      DRUD     -2.19920      0.400000           0   0.00000       0.00000    
      3419 IM1H     171      IM1H     H7       HDP1A    0.363000       1.00800           0   0.00000       0.00000    
      3420 IM1H     171      IM1H     LPN21    LPD       0.00000       0.00000          -1   0.00000       0.00000    
      3421 IM1H     172      IM1H     C1       CD33F     2.48500       11.6110           0  -1.18100       1.10000    
      3422 IM1H     172      IM1H     DC1      DRUD     -2.66700      0.400000           0   0.00000       0.00000    
      3423 IM1H     172      IM1H     H1       HDA3A    0.135000       1.00800           0   0.00000       0.00000    
      3424 IM1H     172      IM1H     H2       HDA3A    0.135000       1.00800           0   0.00000       0.00000    
      3425 IM1H     172      IM1H     H3       HDA3A    0.135000       1.00800           0   0.00000       0.00000    
      3426 IM1H     172      IM1H     N1       ND2R5C    2.35720       13.6070           0 -0.803000       1.00000    
      3427 IM1H     172      IM1H     DN1      DRUD     -2.19920      0.400000           0   0.00000       0.00000    
      3428 IM1H     172      IM1H     C2       CD2R5D    2.44700       11.6110           0  -1.08300       1.10000    
      3429 IM1H     172      IM1H     DC2      DRUD     -2.55400      0.400000           0   0.00000       0.00000    
      3430 IM1H     172      IM1H     H4       HDR5D    0.195000       1.00800           0   0.00000       0.00000    
      3431 IM1H     172      IM1H     C3       CD2R5D    2.50700       11.6110           0  -1.08300       1.10000    
      3432 IM1H     172      IM1H     DC3      DRUD     -2.55400      0.400000           0   0.00000       0.00000    
      3433 IM1H     172      IM1H     H5       HDR5D    0.192000       1.00800           0   0.00000       0.00000    
      3434 IM1H     172      IM1H     C4       CD2R5E    2.72410       11.6110           0  -1.25300       1.20000    
      3435 IM1H     172      IM1H     DC4      DRUD     -2.74710      0.400000           0   0.00000       0.00000    
      3436 IM1H     172      IM1H     H6       HDR5E    0.203000       1.00800           0   0.00000       0.00000    
      3437 IM1H     172      IM1H     N2       ND2R5C    2.04220       13.6070           0 -0.803000       1.00000    
      3438 IM1H     172      IM1H     DN2      DRUD     -2.19920      0.400000           0   0.00000       0.00000    
      3439 IM1H     172      IM1H     H7       HDP1A    0.363000       1.00800           0   0.00000       0.00000    
      3440 IM1H     172      IM1H     LPN21    LPD       0.00000       0.00000          -1   0.00000       0.00000    
      3441 IM1H     173      IM1H     C1       CD33F     2.48500       11.6110           0  -1.18100       1.10000    
      3442 IM1H     173      IM1H     DC1      DRUD     -2.66700      0.400000           0   0.00000       0.00000    
      3443 IM1H     173      IM1H     H1       HDA3A    0.135000       1.00800           0   0.00000       0.00000    
      3444 IM1H     173      IM1H     H2       HDA3A    0.135000       1.00800           0   0.00000       0.00000    
      3445 IM1H     173      IM1H     H3       HDA3A    0.135000       1.00800           0   0.00000       0.00000    
      3446 IM1H     173      IM1H     N1       ND2R5C    2.35720       13.6070           0 -0.803000       1.00000    
      3447 IM1H     173      IM1H     DN1      DRUD     -2.19920      0.400000           0   0.00000       0.00000    
      3448 IM1H     173      IM1H     C2       CD2R5D    2.44700       11.6110           0  -1.08300       1.10000    
      3449 IM1H     173      IM1H     DC2      DRUD     -2.55400      0.400000           0   0.00000       0.00000    
      3450 IM1H     173      IM1H     H4       HDR5D    0.195000       1.00800           0   0.00000       0.00000    
      3451 IM1H     173      IM1H     C3       CD2R5D    2.50700       11.6110           0  -1.08300       1.10000    
      3452 IM1H     173      IM1H     DC3      DRUD     -2.55400      0.400000           0   0.00000       0.00000    
      3453 IM1H     173      IM1H     H5       HDR5D    0.192000       1.00800           0   0.00000       0.00000    
      3454 IM1H     173      IM1H     C4       CD2R5E    2.72410       11.6110           0  -1.25300       1.20000    
      3455 IM1H     173      IM1H     DC4      DRUD     -2.74710      0.400000           0   0.00000       0.00000    
      3456 IM1H     173      IM1H     H6       HDR5E    0.203000       1.00800           0   0.00000       0.00000    
      3457 IM1H     173      IM1H     N2       ND2R5C    2.04220       13.6070           0 -0.803000       1.00000    
      3458 IM1H     173      IM1H     DN2      DRUD     -2.19920      0.400000           0   0.00000       0.00000    
      3459 IM1H     173      IM1H     H7       HDP1A    0.363000       1.00800           0   0.00000       0.00000    
      3460 IM1H     173      IM1H     LPN21    LPD       0.00000       0.00000          -1   0.00000       0.00000    
      3461 IM1H     174      IM1H     C1       CD33F     2.48500       11.6110           0  -1.18100       1.10000    
      3462 IM1H     174      IM1H     DC1      DRUD     -2.66700      0.400000           0   0.00000       0.00000    
      3463 IM1H     174      IM1H     H1       HDA3A    0.135000       1.00800           0   0.00000       0.00000    
      3464 IM1H     174      IM1H     H2       HDA3A    0.135000       1.00800           0   0.00000       0.00000    
      3465 IM1H     174      IM1H     H3       HDA3A    0.135000       1.00800           0   0.00000       0.00000    
      3466 IM1H     174      IM1H     N1       ND2R5C    2.35720       13.6070           0 -0.803000       1.00000    
      3467 IM1H     174      IM1H     DN1      DRUD     -2.19920      0.400000           0   0.00000       0.00000    
      3468 IM1H     174      IM1H     C2       CD2R5D    2.44700       11.6110           0  -1.08300       1.10000    
      3469 IM1H     174      IM1H     DC2      DRUD     -2.55400      0.400000           0   0.00000       0.00000    
      3470 IM1H     174      IM1H     H4       HDR5D    0.195000       1.00800           0   0.00000       0.00000    
      3471 IM1H     174      IM1H     C3       CD2R5D    2.50700       11.6110           0  -1.08300       1.10000    
      3472 IM1H     174      IM1H     DC3      DRUD     -2.55400      0.400000           0   0.00000       0.00000    
      3473 IM1H     174      IM1H     H5       HDR5D    0.192000       1.00800           0   0.00000       0.00000    
      3474 IM1H     174      IM1H     C4       CD2R5E    2.72410       11.6110           0  -1.25300       1.20000    
      3475 IM1H     174      IM1H     DC4      DRUD     -2.74710      0.400000           0   0.00000       0.00000    
      3476 IM1H     174      IM1H     H6       HDR5E    0.203000       1.00800           0   0.00000       0.00000    
      3477 IM1H     174      IM1H     N2       ND2R5C    2.04220       13.6070           0 -0.803000       1.00000    
      3478 IM1H     174      IM1H     DN2      DRUD     -2.19920      0.400000           0   0.00000       0.00000    
      3479 IM1H     174      IM1H     H7       HDP1A    0.363000       1.00800           0   0.00000       0.00000    
      3480 IM1H     174      IM1H     LPN21    LPD       0.00000       0.00000          -1   0.00000       0.00000    
      3481 IM1H     175      IM1H     C1       CD33F     2.48500       11.6110           0  -1.18100       1.10000    
      3482 IM1H     175      IM1H     DC1      DRUD     -2.66700      0.400000           0   0.00000       0.00000    
      3483 IM1H     175      IM1H     H1       HDA3A    0.135000       1.00800           0   0.00000       0.00000    
      3484 IM1H     175      IM1H     H2       HDA3A    0.135000       1.00800           0   0.00000       0.00000    
      3485 IM1H     175      IM1H     H3       HDA3A    0.135000       1.00800           0   0.00000       0.00000    
      3486 IM1H     175      IM1H     N1       ND2R5C    2.35720       13.6070           0 -0.803000       1.00000    
      3487 IM1H     175      IM1H     DN1      DRUD     -2.19920      0.400000           0   0.00000       0.00000    
      3488 IM1H     175      IM1H     C2       CD2R5D    2.44700       11.6110           0  -1.08300       1.10000    
      3489 IM1H     175      IM1H     DC2      DRUD     -2.55400      0.400000           0   0.00000       0.00000    
      3490 IM1H     175      IM1H     H4       HDR5D    0.195000       1.00800           0   0.00000       0.00000    
      3491 IM1H     175      IM1H     C3       CD2R5D    2.50700       11.6110           0  -1.08300       1.10000    
      3492 IM1H     175      IM1H     DC3      DRUD     -2.55400      0.400000           0   0.00000       0.00000    
      3493 IM1H     175      IM1H     H5       HDR5D    0.192000       1.00800           0   0.00000       0.00000    
      3494 IM1H     175      IM1H     C4       CD2R5E    2.72410       11.6110           0  -1.25300       1.20000    
      3495 IM1H     175      IM1H     DC4      DRUD     -2.74710      0.400000           0   0.00000       0.00000    
      3496 IM1H     175      IM1H     H6       HDR5E    0.203000       1.00800           0   0.00000       0.00000    
      3497 IM1H     175      IM1H     N2       ND2R5C    2.04220       13.6070           0 -0.803000       1.00000    
      3498 IM1H     175      IM1H     DN2      DRUD     -2.19920      0.400000           0   0.00000       0.00000    
      3499 IM1H     175      IM1H     H7       HDP1A    0.363000       1.00800           0   0.00000       0.00000    
      3500 IM1H     175      IM1H     LPN21    LPD       0.00000       0.00000          -1   0.00000       0.00000    
      3501 IM1H     176      IM1H     C1       CD33F     2.48500       11.6110           0  -1.18100       1.10000    
      3502 IM1H     176      IM1H     DC1      DRUD     -2.66700      0.400000           0   0.00000       0.00000    
      3503 IM1H     176      IM1H     H1       HDA3A    0.135000       1.00800           0   0.00000       0.00000    
      3504 IM1H     176      IM1H     H2       HDA3A    0.135000       1.00800           0   0.00000       0.00000    
      3505 IM1H     176      IM1H     H3       HDA3A    0.135000       1.00800           0   0.00000       0.00000    
      3506 IM1H     176      IM1H     N1       ND2R5C    2.35720       13.6070           0 -0.803000       1.00000    
      3507 IM1H     176      IM1H     DN1      DRUD     -2.19920      0.400000           0   0.00000       0.00000    
      3508 IM1H     176      IM1H     C2       CD2R5D    2.44700       11.6110           0  -1.08300       1.10000    
      3509 IM1H     176      IM1H     DC2      DRUD     -2.55400      0.400000           0   0.00000       0.00000    
      3510 IM1H     176      IM1H     H4       HDR5D    0.195000       1.00800           0   0.00000       0.00000    
      3511 IM1H     176      IM1H     C3       CD2R5D    2.50700       11.6110           0  -1.08300       1.10000    
      3512 IM1H     176      IM1H     DC3      DRUD     -2.55400      0.400000           0   0.00000       0.00000    
      3513 IM1H     176      IM1H     H5       HDR5D    0.192000       1.00800           0   0.00000       0.00000    
      3514 IM1H     176      IM1H     C4       CD2R5E    2.72410       11.6110           0  -1.25300       1.20000    
      3515 IM1H     176      IM1H     DC4      DRUD     -2.74710      0.400000           0   0.00000       0.00000    
      3516 IM1H     176      IM1H     H6       HDR5E    0.203000       1.00800           0   0.00000       0.00000    
      3517 IM1H     176      IM1H     N2       ND2R5C    2.04220       13.6070           0 -0.803000       1.00000    
      3518 IM1H     176      IM1H     DN2      DRUD     -2.19920      0.400000           0   0.00000       0.00000    
      3519 IM1H     176      IM1H     H7       HDP1A    0.363000       1.00800           0   0.00000       0.00000    
      3520 IM1H     176      IM1H     LPN21    LPD       0.00000       0.00000          -1   0.00000       0.00000    
      3521 IM1H     177      IM1H     C1       CD33F     2.48500       11.6110           0  -1.18100       1.10000    
      3522 IM1H     177      IM1H     DC1      DRUD     -2.66700      0.400000           0   0.00000       0.00000    
      3523 IM1H     177      IM1H     H1       HDA3A    0.135000       1.00800           0   0.00000       0.00000    
      3524 IM1H     177      IM1H     H2       HDA3A    0.135000       1.00800           0   0.00000       0.00000    
      3525 IM1H     177      IM1H     H3       HDA3A    0.135000       1.00800           0   0.00000       0.00000    
      3526 IM1H     177      IM1H     N1       ND2R5C    2.35720       13.6070           0 -0.803000       1.00000    
      3527 IM1H     177      IM1H     DN1      DRUD     -2.19920      0.400000           0   0.00000       0.00000    
      3528 IM1H     177      IM1H     C2       CD2R5D    2.44700       11.6110           0  -1.08300       1.10000    
      3529 IM1H     177      IM1H     DC2      DRUD     -2.55400      0.400000           0   0.00000       0.00000    
      3530 IM1H     177      IM1H     H4       HDR5D    0.195000       1.00800           0   0.00000       0.00000    
      3531 IM1H     177      IM1H     C3       CD2R5D    2.50700       11.6110           0  -1.08300       1.10000    
      3532 IM1H     177      IM1H     DC3      DRUD     -2.55400      0.400000           0   0.00000       0.00000    
      3533 IM1H     177      IM1H     H5       HDR5D    0.192000       1.00800           0   0.00000       0.00000    
      3534 IM1H     177      IM1H     C4       CD2R5E    2.72410       11.6110           0  -1.25300       1.20000    
      3535 IM1H     177      IM1H     DC4      DRUD     -2.74710      0.400000           0   0.00000       0.00000    
      3536 IM1H     177      IM1H     H6       HDR5E    0.203000       1.00800           0   0.00000       0.00000    
      3537 IM1H     177      IM1H     N2       ND2R5C    2.04220       13.6070           0 -0.803000       1.00000    
      3538 IM1H     177      IM1H     DN2      DRUD     -2.19920      0.400000           0   0.00000       0.00000    
      3539 IM1H     177      IM1H     H7       HDP1A    0.363000       1.00800           0   0.00000       0.00000    
      3540 IM1H     177      IM1H     LPN21    LPD       0.00000       0.00000          -1   0.00000       0.00000    
      3541 IM1H     178      IM1H     C1       CD33F     2.48500       11.6110           0  -1.18100       1.10000    
      3542 IM1H     178      IM1H     DC1      DRUD     -2.66700      0.400000           0   0.00000       0.00000    
      3543 IM1H     178      IM1H     H1       HDA3A    0.135000       1.00800           0   0.00000       0.00000    
      3544 IM1H     178      IM1H     H2       HDA3A    0.135000       1.00800           0   0.00000       0.00000    
      3545 IM1H     178      IM1H     H3       HDA3A    0.135000       1.00800           0   0.00000       0.00000    
      3546 IM1H     178      IM1H     N1       ND2R5C    2.35720       13.6070           0 -0.803000       1.00000    
      3547 IM1H     178      IM1H     DN1      DRUD     -2.19920      0.400000           0   0.00000       0.00000    
      3548 IM1H     178      IM1H     C2       CD2R5D    2.44700       11.6110           0  -1.08300       1.10000    
      3549 IM1H     178      IM1H     DC2      DRUD     -2.55400      0.400000           0   0.00000       0.00000    
      3550 IM1H     178      IM1H     H4       HDR5D    0.195000       1.00800           0   0.00000       0.00000    
      3551 IM1H     178      IM1H     C3       CD2R5D    2.50700       11.6110           0  -1.08300       1.10000    
      3552 IM1H     178      IM1H     DC3      DRUD     -2.55400      0.400000           0   0.00000       0.00000    
      3553 IM1H     178      IM1H     H5       HDR5D    0.192000       1.00800           0   0.00000       0.00000    
      3554 IM1H     178      IM1H     C4       CD2R5E    2.72410       11.6110           0  -1.25300       1.20000    
      3555 IM1H     178      IM1H     DC4      DRUD     -2.74710      0.400000           0   0.00000       0.00000    
      3556 IM1H     178      IM1H     H6       HDR5E    0.203000       1.00800           0   0.00000       0.00000    
      3557 IM1H     178      IM1H     N2       ND2R5C    2.04220       13.6070           0 -0.803000       1.00000    
      3558 IM1H     178      IM1H     DN2      DRUD     -2.19920      0.400000           0   0.00000       0.00000    
      3559 IM1H     178      IM1H     H7       HDP1A    0.363000       1.00800           0   0.00000       0.00000    
      3560 IM1H     178      IM1H     LPN21    LPD       0.00000       0.00000          -1   0.00000       0.00000    
      3561 IM1H     179      IM1H     C1       CD33F     2.48500       11.6110           0  -1.18100       1.10000    
      3562 IM1H     179      IM1H     DC1      DRUD     -2.66700      0.400000           0   0.00000       0.00000    
      3563 IM1H     179      IM1H     H1       HDA3A    0.135000       1.00800           0   0.00000       0.00000    
      3564 IM1H     179      IM1H     H2       HDA3A    0.135000       1.00800           0   0.00000       0.00000    
      3565 IM1H     179      IM1H     H3       HDA3A    0.135000       1.00800           0   0.00000       0.00000    
      3566 IM1H     179      IM1H     N1       ND2R5C    2.35720       13.6070           0 -0.803000       1.00000    
      3567 IM1H     179      IM1H     DN1      DRUD     -2.19920      0.400000           0   0.00000       0.00000    
      3568 IM1H     179      IM1H     C2       CD2R5D    2.44700       11.6110           0  -1.08300       1.10000    
      3569 IM1H     179      IM1H     DC2      DRUD     -2.55400      0.400000           0   0.00000       0.00000    
      3570 IM1H     179      IM1H     H4       HDR5D    0.195000       1.00800           0   0.00000       0.00000    
      3571 IM1H     179      IM1H     C3       CD2R5D    2.50700       11.6110           0  -1.08300       1.10000    
      3572 IM1H     179      IM1H     DC3      DRUD     -2.55400      0.400000           0   0.00000       0.00000    
      3573 IM1H     179      IM1H     H5       HDR5D    0.192000       1.00800           0   0.00000       0.00000    
      3574 IM1H     179      IM1H     C4       CD2R5E    2.72410       11.6110           0  -1.25300       1.20000    
      3575 IM1H     179      IM1H     DC4      DRUD     -2.74710      0.400000           0   0.00000       0.00000    
      3576 IM1H     179      IM1H     H6       HDR5E    0.203000       1.00800           0   0.00000       0.00000    
      3577 IM1H     179      IM1H     N2       ND2R5C    2.04220       13.6070           0 -0.803000       1.00000    
      3578 IM1H     179      IM1H     DN2      DRUD     -2.19920      0.400000           0   0.00000       0.00000    
      3579 IM1H     179      IM1H     H7       HDP1A    0.363000       1.00800           0   0.00000       0.00000    
      3580 IM1H     179      IM1H     LPN21    LPD       0.00000       0.00000          -1   0.00000       0.00000    
      3581 IM1H     180      IM1H     C1       CD33F     2.48500       11.6110           0  -1.18100       1.10000    
      3582 IM1H     180      IM1H     DC1      DRUD     -2.66700      0.400000           0   0.00000       0.00000    
      3583 IM1H     180      IM1H     H1       HDA3A    0.135000       1.00800           0   0.00000       0.00000    
      3584 IM1H     180      IM1H     H2       HDA3A    0.135000       1.00800           0   0.00000       0.00000    
      3585 IM1H     180      IM1H     H3       HDA3A    0.135000       1.00800           0   0.00000       0.00000    
      3586 IM1H     180      IM1H     N1       ND2R5C    2.35720       13.6070           0 -0.803000       1.00000    
      3587 IM1H     180      IM1H     DN1      DRUD     -2.19920      0.400000           0   0.00000       0.00000    
      3588 IM1H     180      IM1H     C2       CD2R5D    2.44700       11.6110           0  -1.08300       1.10000    
      3589 IM1H     180      IM1H     DC2      DRUD     -2.55400      0.400000           0   0.00000       0.00000    
      3590 IM1H     180      IM1H     H4       HDR5D    0.195000       1.00800           0   0.00000       0.00000    
      3591 IM1H     180      IM1H     C3       CD2R5D    2.50700       11.6110           0  -1.08300       1.10000    
      3592 IM1H     180      IM1H     DC3      DRUD     -2.55400      0.400000           0   0.00000       0.00000    
      3593 IM1H     180      IM1H     H5       HDR5D    0.192000       1.00800           0   0.00000       0.00000    
      3594 IM1H     180      IM1H     C4       CD2R5E    2.72410       11.6110           0  -1.25300       1.20000    
      3595 IM1H     180      IM1H     DC4      DRUD     -2.74710      0.400000           0   0.00000       0.00000    
      3596 IM1H     180      IM1H     H6       HDR5E    0.203000       1.00800           0   0.00000       0.00000    
      3597 IM1H     180      IM1H     N2       ND2R5C    2.04220       13.6070           0 -0.803000       1.00000    
      3598 IM1H     180      IM1H     DN2      DRUD     -2.19920      0.400000           0   0.00000       0.00000    
      3599 IM1H     180      IM1H     H7       HDP1A    0.363000       1.00800           0   0.00000       0.00000    
      3600 IM1H     180      IM1H     LPN21    LPD       0.00000       0.00000          -1   0.00000       0.00000    
      3601 IM1H     181      IM1H     C1       CD33F     2.48500       11.6110           0  -1.18100       1.10000    
      3602 IM1H     181      IM1H     DC1      DRUD     -2.66700      0.400000           0   0.00000       0.00000    
      3603 IM1H     181      IM1H     H1       HDA3A    0.135000       1.00800           0   0.00000       0.00000    
      3604 IM1H     181      IM1H     H2       HDA3A    0.135000       1.00800           0   0.00000       0.00000    
      3605 IM1H     181      IM1H     H3       HDA3A    0.135000       1.00800           0   0.00000       0.00000    
      3606 IM1H     181      IM1H     N1       ND2R5C    2.35720       13.6070           0 -0.803000       1.00000    
      3607 IM1H     181      IM1H     DN1      DRUD     -2.19920      0.400000           0   0.00000       0.00000    
      3608 IM1H     181      IM1H     C2       CD2R5D    2.44700       11.6110           0  -1.08300       1.10000    
      3609 IM1H     181      IM1H     DC2      DRUD     -2.55400      0.400000           0   0.00000       0.00000    
      3610 IM1H     181      IM1H     H4       HDR5D    0.195000       1.00800           0   0.00000       0.00000    
      3611 IM1H     181      IM1H     C3       CD2R5D    2.50700       11.6110           0  -1.08300       1.10000    
      3612 IM1H     181      IM1H     DC3      DRUD     -2.55400      0.400000           0   0.00000       0.00000    
      3613 IM1H     181      IM1H     H5       HDR5D    0.192000       1.00800           0   0.00000       0.00000    
      3614 IM1H     181      IM1H     C4       CD2R5E    2.72410       11.6110           0  -1.25300       1.20000    
      3615 IM1H     181      IM1H     DC4      DRUD     -2.74710      0.400000           0   0.00000       0.00000    
      3616 IM1H     181      IM1H     H6       HDR5E    0.203000       1.00800           0   0.00000       0.00000    
      3617 IM1H     181      IM1H     N2       ND2R5C    2.04220       13.6070           0 -0.803000       1.00000    
      3618 IM1H     181      IM1H     DN2      DRUD     -2.19920      0.400000           0   0.00000       0.00000    
      3619 IM1H     181      IM1H     H7       HDP1A    0.363000       1.00800           0   0.00000       0.00000    
      3620 IM1H     181      IM1H     LPN21    LPD       0.00000       0.00000          -1   0.00000       0.00000    
      3621 IM1H     182      IM1H     C1       CD33F     2.48500       11.6110           0  -1.18100       1.10000    
      3622 IM1H     182      IM1H     DC1      DRUD     -2.66700      0.400000           0   0.00000       0.00000    
      3623 IM1H     182      IM1H     H1       HDA3A    0.135000       1.00800           0   0.00000       0.00000    
      3624 IM1H     182      IM1H     H2       HDA3A    0.135000       1.00800           0   0.00000       0.00000    
      3625 IM1H     182      IM1H     H3       HDA3A    0.135000       1.00800           0   0.00000       0.00000    
      3626 IM1H     182      IM1H     N1       ND2R5C    2.35720       13.6070           0 -0.803000       1.00000    
      3627 IM1H     182      IM1H     DN1      DRUD     -2.19920      0.400000           0   0.00000       0.00000    
      3628 IM1H     182      IM1H     C2       CD2R5D    2.44700       11.6110           0  -1.08300       1.10000    
      3629 IM1H     182      IM1H     DC2      DRUD     -2.55400      0.400000           0   0.00000       0.00000    
      3630 IM1H     182      IM1H     H4       HDR5D    0.195000       1.00800           0   0.00000       0.00000    
      3631 IM1H     182      IM1H     C3       CD2R5D    2.50700       11.6110           0  -1.08300       1.10000    
      3632 IM1H     182      IM1H     DC3      DRUD     -2.55400      0.400000           0   0.00000       0.00000    
      3633 IM1H     182      IM1H     H5       HDR5D    0.192000       1.00800           0   0.00000       0.00000    
      3634 IM1H     182      IM1H     C4       CD2R5E    2.72410       11.6110           0  -1.25300       1.20000    
      3635 IM1H     182      IM1H     DC4      DRUD     -2.74710      0.400000           0   0.00000       0.00000    
      3636 IM1H     182      IM1H     H6       HDR5E    0.203000       1.00800           0   0.00000       0.00000    
      3637 IM1H     182      IM1H     N2       ND2R5C    2.04220       13.6070           0 -0.803000       1.00000    
      3638 IM1H     182      IM1H     DN2      DRUD     -2.19920      0.400000           0   0.00000       0.00000    
      3639 IM1H     182      IM1H     H7       HDP1A    0.363000       1.00800           0   0.00000       0.00000    
      3640 IM1H     182      IM1H     LPN21    LPD       0.00000       0.00000          -1   0.00000       0.00000    
      3641 IM1H     183      IM1H     C1       CD33F     2.48500       11.6110           0  -1.18100       1.10000    
      3642 IM1H     183      IM1H     DC1      DRUD     -2.66700      0.400000           0   0.00000       0.00000    
      3643 IM1H     183      IM1H     H1       HDA3A    0.135000       1.00800           0   0.00000       0.00000    
      3644 IM1H     183      IM1H     H2       HDA3A    0.135000       1.00800           0   0.00000       0.00000    
      3645 IM1H     183      IM1H     H3       HDA3A    0.135000       1.00800           0   0.00000       0.00000    
      3646 IM1H     183      IM1H     N1       ND2R5C    2.35720       13.6070           0 -0.803000       1.00000    
      3647 IM1H     183      IM1H     DN1      DRUD     -2.19920      0.400000           0   0.00000       0.00000    
      3648 IM1H     183      IM1H     C2       CD2R5D    2.44700       11.6110           0  -1.08300       1.10000    
      3649 IM1H     183      IM1H     DC2      DRUD     -2.55400      0.400000           0   0.00000       0.00000    
      3650 IM1H     183      IM1H     H4       HDR5D    0.195000       1.00800           0   0.00000       0.00000    
      3651 IM1H     183      IM1H     C3       CD2R5D    2.50700       11.6110           0  -1.08300       1.10000    
      3652 IM1H     183      IM1H     DC3      DRUD     -2.55400      0.400000           0   0.00000       0.00000    
      3653 IM1H     183      IM1H     H5       HDR5D    0.192000       1.00800           0   0.00000       0.00000    
      3654 IM1H     183      IM1H     C4       CD2R5E    2.72410       11.6110           0  -1.25300       1.20000    
      3655 IM1H     183      IM1H     DC4      DRUD     -2.74710      0.400000           0   0.00000       0.00000    
      3656 IM1H     183      IM1H     H6       HDR5E    0.203000       1.00800           0   0.00000       0.00000    
      3657 IM1H     183      IM1H     N2       ND2R5C    2.04220       13.6070           0 -0.803000       1.00000    
      3658 IM1H     183      IM1H     DN2      DRUD     -2.19920      0.400000           0   0.00000       0.00000    
      3659 IM1H     183      IM1H     H7       HDP1A    0.363000       1.00800           0   0.00000       0.00000    
      3660 IM1H     183      IM1H     LPN21    LPD       0.00000       0.00000          -1   0.00000       0.00000    
      3661 IM1H     184      IM1H     C1       CD33F     2.48500       11.6110           0  -1.18100       1.10000    
      3662 IM1H     184      IM1H     DC1      DRUD     -2.66700      0.400000           0   0.00000       0.00000    
      3663 IM1H     184      IM1H     H1       HDA3A    0.135000       1.00800           0   0.00000       0.00000    
      3664 IM1H     184      IM1H     H2       HDA3A    0.135000       1.00800           0   0.00000       0.00000    
      3665 IM1H     184      IM1H     H3       HDA3A    0.135000       1.00800           0   0.00000       0.00000    
      3666 IM1H     184      IM1H     N1       ND2R5C    2.35720       13.6070           0 -0.803000       1.00000    
      3667 IM1H     184      IM1H     DN1      DRUD     -2.19920      0.400000           0   0.00000       0.00000    
      3668 IM1H     184      IM1H     C2       CD2R5D    2.44700       11.6110           0  -1.08300       1.10000    
      3669 IM1H     184      IM1H     DC2      DRUD     -2.55400      0.400000           0   0.00000       0.00000    
      3670 IM1H     184      IM1H     H4       HDR5D    0.195000       1.00800           0   0.00000       0.00000    
      3671 IM1H     184      IM1H     C3       CD2R5D    2.50700       11.6110           0  -1.08300       1.10000    
      3672 IM1H     184      IM1H     DC3      DRUD     -2.55400      0.400000           0   0.00000       0.00000    
      3673 IM1H     184      IM1H     H5       HDR5D    0.192000       1.00800           0   0.00000       0.00000    
      3674 IM1H     184      IM1H     C4       CD2R5E    2.72410       11.6110           0  -1.25300       1.20000    
      3675 IM1H     184      IM1H     DC4      DRUD     -2.74710      0.400000           0   0.00000       0.00000    
      3676 IM1H     184      IM1H     H6       HDR5E    0.203000       1.00800           0   0.00000       0.00000    
      3677 IM1H     184      IM1H     N2       ND2R5C    2.04220       13.6070           0 -0.803000       1.00000    
      3678 IM1H     184      IM1H     DN2      DRUD     -2.19920      0.400000           0   0.00000       0.00000    
      3679 IM1H     184      IM1H     H7       HDP1A    0.363000       1.00800           0   0.00000       0.00000    
      3680 IM1H     184      IM1H     LPN21    LPD       0.00000       0.00000          -1   0.00000       0.00000    
      3681 IM1H     185      IM1H     C1       CD33F     2.48500       11.6110           0  -1.18100       1.10000    
      3682 IM1H     185      IM1H     DC1      DRUD     -2.66700      0.400000           0   0.00000       0.00000    
      3683 IM1H     185      IM1H     H1       HDA3A    0.135000       1.00800           0   0.00000       0.00000    
      3684 IM1H     185      IM1H     H2       HDA3A    0.135000       1.00800           0   0.00000       0.00000    
      3685 IM1H     185      IM1H     H3       HDA3A    0.135000       1.00800           0   0.00000       0.00000    
      3686 IM1H     185      IM1H     N1       ND2R5C    2.35720       13.6070           0 -0.803000       1.00000    
      3687 IM1H     185      IM1H     DN1      DRUD     -2.19920      0.400000           0   0.00000       0.00000    
      3688 IM1H     185      IM1H     C2       CD2R5D    2.44700       11.6110           0  -1.08300       1.10000    
      3689 IM1H     185      IM1H     DC2      DRUD     -2.55400      0.400000           0   0.00000       0.00000    
      3690 IM1H     185      IM1H     H4       HDR5D    0.195000       1.00800           0   0.00000       0.00000    
      3691 IM1H     185      IM1H     C3       CD2R5D    2.50700       11.6110           0  -1.08300       1.10000    
      3692 IM1H     185      IM1H     DC3      DRUD     -2.55400      0.400000           0   0.00000       0.00000    
      3693 IM1H     185      IM1H     H5       HDR5D    0.192000       1.00800           0   0.00000       0.00000    
      3694 IM1H     185      IM1H     C4       CD2R5E    2.72410       11.6110           0  -1.25300       1.20000    
      3695 IM1H     185      IM1H     DC4      DRUD     -2.74710      0.400000           0   0.00000       0.00000    
      3696 IM1H     185      IM1H     H6       HDR5E    0.203000       1.00800           0   0.00000       0.00000    
      3697 IM1H     185      IM1H     N2       ND2R5C    2.04220       13.6070           0 -0.803000       1.00000    
      3698 IM1H     185      IM1H     DN2      DRUD     -2.19920      0.400000           0   0.00000       0.00000    
      3699 IM1H     185      IM1H     H7       HDP1A    0.363000       1.00800           0   0.00000       0.00000    
      3700 IM1H     185      IM1H     LPN21    LPD       0.00000       0.00000          -1   0.00000       0.00000    
      3701 IM1H     186      IM1H     C1       CD33F     2.48500       11.6110           0  -1.18100       1.10000    
      3702 IM1H     186      IM1H     DC1      DRUD     -2.66700      0.400000           0   0.00000       0.00000    
      3703 IM1H     186      IM1H     H1       HDA3A    0.135000       1.00800           0   0.00000       0.00000    
      3704 IM1H     186      IM1H     H2       HDA3A    0.135000       1.00800           0   0.00000       0.00000    
      3705 IM1H     186      IM1H     H3       HDA3A    0.135000       1.00800           0   0.00000       0.00000    
      3706 IM1H     186      IM1H     N1       ND2R5C    2.35720       13.6070           0 -0.803000       1.00000    
      3707 IM1H     186      IM1H     DN1      DRUD     -2.19920      0.400000           0   0.00000       0.00000    
      3708 IM1H     186      IM1H     C2       CD2R5D    2.44700       11.6110           0  -1.08300       1.10000    
      3709 IM1H     186      IM1H     DC2      DRUD     -2.55400      0.400000           0   0.00000       0.00000    
      3710 IM1H     186      IM1H     H4       HDR5D    0.195000       1.00800           0   0.00000       0.00000    
      3711 IM1H     186      IM1H     C3       CD2R5D    2.50700       11.6110           0  -1.08300       1.10000    
      3712 IM1H     186      IM1H     DC3      DRUD     -2.55400      0.400000           0   0.00000       0.00000    
      3713 IM1H     186      IM1H     H5       HDR5D    0.192000       1.00800           0   0.00000       0.00000    
      3714 IM1H     186      IM1H     C4       CD2R5E    2.72410       11.6110           0  -1.25300       1.20000    
      3715 IM1H     186      IM1H     DC4      DRUD     -2.74710      0.400000           0   0.00000       0.00000    
      3716 IM1H     186      IM1H     H6       HDR5E    0.203000       1.00800           0   0.00000       0.00000    
      3717 IM1H     186      IM1H     N2       ND2R5C    2.04220       13.6070           0 -0.803000       1.00000    
      3718 IM1H     186      IM1H     DN2      DRUD     -2.19920      0.400000           0   0.00000       0.00000    
      3719 IM1H     186      IM1H     H7       HDP1A    0.363000       1.00800           0   0.00000       0.00000    
      3720 IM1H     186      IM1H     LPN21    LPD       0.00000       0.00000          -1   0.00000       0.00000    
      3721 IM1H     187      IM1H     C1       CD33F     2.48500       11.6110           0  -1.18100       1.10000    
      3722 IM1H     187      IM1H     DC1      DRUD     -2.66700      0.400000           0   0.00000       0.00000    
      3723 IM1H     187      IM1H     H1       HDA3A    0.135000       1.00800           0   0.00000       0.00000    
      3724 IM1H     187      IM1H     H2       HDA3A    0.135000       1.00800           0   0.00000       0.00000    
      3725 IM1H     187      IM1H     H3       HDA3A    0.135000       1.00800           0   0.00000       0.00000    
      3726 IM1H     187      IM1H     N1       ND2R5C    2.35720       13.6070           0 -0.803000       1.00000    
      3727 IM1H     187      IM1H     DN1      DRUD     -2.19920      0.400000           0   0.00000       0.00000    
      3728 IM1H     187      IM1H     C2       CD2R5D    2.44700       11.6110           0  -1.08300       1.10000    
      3729 IM1H     187      IM1H     DC2      DRUD     -2.55400      0.400000           0   0.00000       0.00000    
      3730 IM1H     187      IM1H     H4       HDR5D    0.195000       1.00800           0   0.00000       0.00000    
      3731 IM1H     187      IM1H     C3       CD2R5D    2.50700       11.6110           0  -1.08300       1.10000    
      3732 IM1H     187      IM1H     DC3      DRUD     -2.55400      0.400000           0   0.00000       0.00000    
      3733 IM1H     187      IM1H     H5       HDR5D    0.192000       1.00800           0   0.00000       0.00000    
      3734 IM1H     187      IM1H     C4       CD2R5E    2.72410       11.6110           0  -1.25300       1.20000    
      3735 IM1H     187      IM1H     DC4      DRUD     -2.74710      0.400000           0   0.00000       0.00000    
      3736 IM1H     187      IM1H     H6       HDR5E    0.203000       1.00800           0   0.00000       0.00000    
      3737 IM1H     187      IM1H     N2       ND2R5C    2.04220       13.6070           0 -0.803000       1.00000    
      3738 IM1H     187      IM1H     DN2      DRUD     -2.19920      0.400000           0   0.00000       0.00000    
      3739 IM1H     187      IM1H     H7       HDP1A    0.363000       1.00800           0   0.00000       0.00000    
      3740 IM1H     187      IM1H     LPN21    LPD       0.00000       0.00000          -1   0.00000       0.00000    
      3741 IM1H     188      IM1H     C1       CD33F     2.48500       11.6110           0  -1.18100       1.10000    
      3742 IM1H     188      IM1H     DC1      DRUD     -2.66700      0.400000           0   0.00000       0.00000    
      3743 IM1H     188      IM1H     H1       HDA3A    0.135000       1.00800           0   0.00000       0.00000    
      3744 IM1H     188      IM1H     H2       HDA3A    0.135000       1.00800           0   0.00000       0.00000    
      3745 IM1H     188      IM1H     H3       HDA3A    0.135000       1.00800           0   0.00000       0.00000    
      3746 IM1H     188      IM1H     N1       ND2R5C    2.35720       13.6070           0 -0.803000       1.00000    
      3747 IM1H     188      IM1H     DN1      DRUD     -2.19920      0.400000           0   0.00000       0.00000    
      3748 IM1H     188      IM1H     C2       CD2R5D    2.44700       11.6110           0  -1.08300       1.10000    
      3749 IM1H     188      IM1H     DC2      DRUD     -2.55400      0.400000           0   0.00000       0.00000    
      3750 IM1H     188      IM1H     H4       HDR5D    0.195000       1.00800           0   0.00000       0.00000    
      3751 IM1H     188      IM1H     C3       CD2R5D    2.50700       11.6110           0  -1.08300       1.10000    
      3752 IM1H     188      IM1H     DC3      DRUD     -2.55400      0.400000           0   0.00000       0.00000    
      3753 IM1H     188      IM1H     H5       HDR5D    0.192000       1.00800           0   0.00000       0.00000    
      3754 IM1H     188      IM1H     C4       CD2R5E    2.72410       11.6110           0  -1.25300       1.20000    
      3755 IM1H     188      IM1H     DC4      DRUD     -2.74710      0.400000           0   0.00000       0.00000    
      3756 IM1H     188      IM1H     H6       HDR5E    0.203000       1.00800           0   0.00000       0.00000    
      3757 IM1H     188      IM1H     N2       ND2R5C    2.04220       13.6070           0 -0.803000       1.00000    
      3758 IM1H     188      IM1H     DN2      DRUD     -2.19920      0.400000           0   0.00000       0.00000    
      3759 IM1H     188      IM1H     H7       HDP1A    0.363000       1.00800           0   0.00000       0.00000    
      3760 IM1H     188      IM1H     LPN21    LPD       0.00000       0.00000          -1   0.00000       0.00000    
      3761 IM1H     189      IM1H     C1       CD33F     2.48500       11.6110           0  -1.18100       1.10000    
      3762 IM1H     189      IM1H     DC1      DRUD     -2.66700      0.400000           0   0.00000       0.00000    
      3763 IM1H     189      IM1H     H1       HDA3A    0.135000       1.00800           0   0.00000       0.00000    
      3764 IM1H     189      IM1H     H2       HDA3A    0.135000       1.00800           0   0.00000       0.00000    
      3765 IM1H     189      IM1H     H3       HDA3A    0.135000       1.00800           0   0.00000       0.00000    
      3766 IM1H     189      IM1H     N1       ND2R5C    2.35720       13.6070           0 -0.803000       1.00000    
      3767 IM1H     189      IM1H     DN1      DRUD     -2.19920      0.400000           0   0.00000       0.00000    
      3768 IM1H     189      IM1H     C2       CD2R5D    2.44700       11.6110           0  -1.08300       1.10000    
      3769 IM1H     189      IM1H     DC2      DRUD     -2.55400      0.400000           0   0.00000       0.00000    
      3770 IM1H     189      IM1H     H4       HDR5D    0.195000       1.00800           0   0.00000       0.00000    
      3771 IM1H     189      IM1H     C3       CD2R5D    2.50700       11.6110           0  -1.08300       1.10000    
      3772 IM1H     189      IM1H     DC3      DRUD     -2.55400      0.400000           0   0.00000       0.00000    
      3773 IM1H     189      IM1H     H5       HDR5D    0.192000       1.00800           0   0.00000       0.00000    
      3774 IM1H     189      IM1H     C4       CD2R5E    2.72410       11.6110           0  -1.25300       1.20000    
      3775 IM1H     189      IM1H     DC4      DRUD     -2.74710      0.400000           0   0.00000       0.00000    
      3776 IM1H     189      IM1H     H6       HDR5E    0.203000       1.00800           0   0.00000       0.00000    
      3777 IM1H     189      IM1H     N2       ND2R5C    2.04220       13.6070           0 -0.803000       1.00000    
      3778 IM1H     189      IM1H     DN2      DRUD     -2.19920      0.400000           0   0.00000       0.00000    
      3779 IM1H     189      IM1H     H7       HDP1A    0.363000       1.00800           0   0.00000       0.00000    
      3780 IM1H     189      IM1H     LPN21    LPD       0.00000       0.00000          -1   0.00000       0.00000    
      3781 IM1H     190      IM1H     C1       CD33F     2.48500       11.6110           0  -1.18100       1.10000    
      3782 IM1H     190      IM1H     DC1      DRUD     -2.66700      0.400000           0   0.00000       0.00000    
      3783 IM1H     190      IM1H     H1       HDA3A    0.135000       1.00800           0   0.00000       0.00000    
      3784 IM1H     190      IM1H     H2       HDA3A    0.135000       1.00800           0   0.00000       0.00000    
      3785 IM1H     190      IM1H     H3       HDA3A    0.135000       1.00800           0   0.00000       0.00000    
      3786 IM1H     190      IM1H     N1       ND2R5C    2.35720       13.6070           0 -0.803000       1.00000    
      3787 IM1H     190      IM1H     DN1      DRUD     -2.19920      0.400000           0   0.00000       0.00000    
      3788 IM1H     190      IM1H     C2       CD2R5D    2.44700       11.6110           0  -1.08300       1.10000    
      3789 IM1H     190      IM1H     DC2      DRUD     -2.55400      0.400000           0   0.00000       0.00000    
      3790 IM1H     190      IM1H     H4       HDR5D    0.195000       1.00800           0   0.00000       0.00000    
      3791 IM1H     190      IM1H     C3       CD2R5D    2.50700       11.6110           0  -1.08300       1.10000    
      3792 IM1H     190      IM1H     DC3      DRUD     -2.55400      0.400000           0   0.00000       0.00000    
      3793 IM1H     190      IM1H     H5       HDR5D    0.192000       1.00800           0   0.00000       0.00000    
      3794 IM1H     190      IM1H     C4       CD2R5E    2.72410       11.6110           0  -1.25300       1.20000    
      3795 IM1H     190      IM1H     DC4      DRUD     -2.74710      0.400000           0   0.00000       0.00000    
      3796 IM1H     190      IM1H     H6       HDR5E    0.203000       1.00800           0   0.00000       0.00000    
      3797 IM1H     190      IM1H     N2       ND2R5C    2.04220       13.6070           0 -0.803000       1.00000    
      3798 IM1H     190      IM1H     DN2      DRUD     -2.19920      0.400000           0   0.00000       0.00000    
      3799 IM1H     190      IM1H     H7       HDP1A    0.363000       1.00800           0   0.00000       0.00000    
      3800 IM1H     190      IM1H     LPN21    LPD       0.00000       0.00000          -1   0.00000       0.00000    
      3801 IM1H     191      IM1H     C1       CD33F     2.48500       11.6110           0  -1.18100       1.10000    
      3802 IM1H     191      IM1H     DC1      DRUD     -2.66700      0.400000           0   0.00000       0.00000    
      3803 IM1H     191      IM1H     H1       HDA3A    0.135000       1.00800           0   0.00000       0.00000    
      3804 IM1H     191      IM1H     H2       HDA3A    0.135000       1.00800           0   0.00000       0.00000    
      3805 IM1H     191      IM1H     H3       HDA3A    0.135000       1.00800           0   0.00000       0.00000    
      3806 IM1H     191      IM1H     N1       ND2R5C    2.35720       13.6070           0 -0.803000       1.00000    
      3807 IM1H     191      IM1H     DN1      DRUD     -2.19920      0.400000           0   0.00000       0.00000    
      3808 IM1H     191      IM1H     C2       CD2R5D    2.44700       11.6110           0  -1.08300       1.10000    
      3809 IM1H     191      IM1H     DC2      DRUD     -2.55400      0.400000           0   0.00000       0.00000    
      3810 IM1H     191      IM1H     H4       HDR5D    0.195000       1.00800           0   0.00000       0.00000    
      3811 IM1H     191      IM1H     C3       CD2R5D    2.50700       11.6110           0  -1.08300       1.10000    
      3812 IM1H     191      IM1H     DC3      DRUD     -2.55400      0.400000           0   0.00000       0.00000    
      3813 IM1H     191      IM1H     H5       HDR5D    0.192000       1.00800           0   0.00000       0.00000    
      3814 IM1H     191      IM1H     C4       CD2R5E    2.72410       11.6110           0  -1.25300       1.20000    
      3815 IM1H     191      IM1H     DC4      DRUD     -2.74710      0.400000           0   0.00000       0.00000    
      3816 IM1H     191      IM1H     H6       HDR5E    0.203000       1.00800           0   0.00000       0.00000    
      3817 IM1H     191      IM1H     N2       ND2R5C    2.04220       13.6070           0 -0.803000       1.00000    
      3818 IM1H     191      IM1H     DN2      DRUD     -2.19920      0.400000           0   0.00000       0.00000    
      3819 IM1H     191      IM1H     H7       HDP1A    0.363000       1.00800           0   0.00000       0.00000    
      3820 IM1H     191      IM1H     LPN21    LPD       0.00000       0.00000          -1   0.00000       0.00000    
      3821 IM1H     192      IM1H     C1       CD33F     2.48500       11.6110           0  -1.18100       1.10000    
      3822 IM1H     192      IM1H     DC1      DRUD     -2.66700      0.400000           0   0.00000       0.00000    
      3823 IM1H     192      IM1H     H1       HDA3A    0.135000       1.00800           0   0.00000       0.00000    
      3824 IM1H     192      IM1H     H2       HDA3A    0.135000       1.00800           0   0.00000       0.00000    
      3825 IM1H     192      IM1H     H3       HDA3A    0.135000       1.00800           0   0.00000       0.00000    
      3826 IM1H     192      IM1H     N1       ND2R5C    2.35720       13.6070           0 -0.803000       1.00000    
      3827 IM1H     192      IM1H     DN1      DRUD     -2.19920      0.400000           0   0.00000       0.00000    
      3828 IM1H     192      IM1H     C2       CD2R5D    2.44700       11.6110           0  -1.08300       1.10000    
      3829 IM1H     192      IM1H     DC2      DRUD     -2.55400      0.400000           0   0.00000       0.00000    
      3830 IM1H     192      IM1H     H4       HDR5D    0.195000       1.00800           0   0.00000       0.00000    
      3831 IM1H     192      IM1H     C3       CD2R5D    2.50700       11.6110           0  -1.08300       1.10000    
      3832 IM1H     192      IM1H     DC3      DRUD     -2.55400      0.400000           0   0.00000       0.00000    
      3833 IM1H     192      IM1H     H5       HDR5D    0.192000       1.00800           0   0.00000       0.00000    
      3834 IM1H     192      IM1H     C4       CD2R5E    2.72410       11.6110           0  -1.25300       1.20000    
      3835 IM1H     192      IM1H     DC4      DRUD     -2.74710      0.400000           0   0.00000       0.00000    
      3836 IM1H     192      IM1H     H6       HDR5E    0.203000       1.00800           0   0.00000       0.00000    
      3837 IM1H     192      IM1H     N2       ND2R5C    2.04220       13.6070           0 -0.803000       1.00000    
      3838 IM1H     192      IM1H     DN2      DRUD     -2.19920      0.400000           0   0.00000       0.00000    
      3839 IM1H     192      IM1H     H7       HDP1A    0.363000       1.00800           0   0.00000       0.00000    
      3840 IM1H     192      IM1H     LPN21    LPD       0.00000       0.00000          -1   0.00000       0.00000    
      3841 IM1H     193      IM1H     C1       CD33F     2.48500       11.6110           0  -1.18100       1.10000    
      3842 IM1H     193      IM1H     DC1      DRUD     -2.66700      0.400000           0   0.00000       0.00000    
      3843 IM1H     193      IM1H     H1       HDA3A    0.135000       1.00800           0   0.00000       0.00000    
      3844 IM1H     193      IM1H     H2       HDA3A    0.135000       1.00800           0   0.00000       0.00000    
      3845 IM1H     193      IM1H     H3       HDA3A    0.135000       1.00800           0   0.00000       0.00000    
      3846 IM1H     193      IM1H     N1       ND2R5C    2.35720       13.6070           0 -0.803000       1.00000    
      3847 IM1H     193      IM1H     DN1      DRUD     -2.19920      0.400000           0   0.00000       0.00000    
      3848 IM1H     193      IM1H     C2       CD2R5D    2.44700       11.6110           0  -1.08300       1.10000    
      3849 IM1H     193      IM1H     DC2      DRUD     -2.55400      0.400000           0   0.00000       0.00000    
      3850 IM1H     193      IM1H     H4       HDR5D    0.195000       1.00800           0   0.00000       0.00000    
      3851 IM1H     193      IM1H     C3       CD2R5D    2.50700       11.6110           0  -1.08300       1.10000    
      3852 IM1H     193      IM1H     DC3      DRUD     -2.55400      0.400000           0   0.00000       0.00000    
      3853 IM1H     193      IM1H     H5       HDR5D    0.192000       1.00800           0   0.00000       0.00000    
      3854 IM1H     193      IM1H     C4       CD2R5E    2.72410       11.6110           0  -1.25300       1.20000    
      3855 IM1H     193      IM1H     DC4      DRUD     -2.74710      0.400000           0   0.00000       0.00000    
      3856 IM1H     193      IM1H     H6       HDR5E    0.203000       1.00800           0   0.00000       0.00000    
      3857 IM1H     193      IM1H     N2       ND2R5C    2.04220       13.6070           0 -0.803000       1.00000    
      3858 IM1H     193      IM1H     DN2      DRUD     -2.19920      0.400000           0   0.00000       0.00000    
      3859 IM1H     193      IM1H     H7       HDP1A    0.363000       1.00800           0   0.00000       0.00000    
      3860 IM1H     193      IM1H     LPN21    LPD       0.00000       0.00000          -1   0.00000       0.00000    
      3861 IM1H     194      IM1H     C1       CD33F     2.48500       11.6110           0  -1.18100       1.10000    
      3862 IM1H     194      IM1H     DC1      DRUD     -2.66700      0.400000           0   0.00000       0.00000    
      3863 IM1H     194      IM1H     H1       HDA3A    0.135000       1.00800           0   0.00000       0.00000    
      3864 IM1H     194      IM1H     H2       HDA3A    0.135000       1.00800           0   0.00000       0.00000    
      3865 IM1H     194      IM1H     H3       HDA3A    0.135000       1.00800           0   0.00000       0.00000    
      3866 IM1H     194      IM1H     N1       ND2R5C    2.35720       13.6070           0 -0.803000       1.00000    
      3867 IM1H     194      IM1H     DN1      DRUD     -2.19920      0.400000           0   0.00000       0.00000    
      3868 IM1H     194      IM1H     C2       CD2R5D    2.44700       11.6110           0  -1.08300       1.10000    
      3869 IM1H     194      IM1H     DC2      DRUD     -2.55400      0.400000           0   0.00000       0.00000    
      3870 IM1H     194      IM1H     H4       HDR5D    0.195000       1.00800           0   0.00000       0.00000    
      3871 IM1H     194      IM1H     C3       CD2R5D    2.50700       11.6110           0  -1.08300       1.10000    
      3872 IM1H     194      IM1H     DC3      DRUD     -2.55400      0.400000           0   0.00000       0.00000    
      3873 IM1H     194      IM1H     H5       HDR5D    0.192000       1.00800           0   0.00000       0.00000    
      3874 IM1H     194      IM1H     C4       CD2R5E    2.72410       11.6110           0  -1.25300       1.20000    
      3875 IM1H     194      IM1H     DC4      DRUD     -2.74710      0.400000           0   0.00000       0.00000    
      3876 IM1H     194      IM1H     H6       HDR5E    0.203000       1.00800           0   0.00000       0.00000    
      3877 IM1H     194      IM1H     N2       ND2R5C    2.04220       13.6070           0 -0.803000       1.00000    
      3878 IM1H     194      IM1H     DN2      DRUD     -2.19920      0.400000           0   0.00000       0.00000    
      3879 IM1H     194      IM1H     H7       HDP1A    0.363000       1.00800           0   0.00000       0.00000    
      3880 IM1H     194      IM1H     LPN21    LPD       0.00000       0.00000          -1   0.00000       0.00000    
      3881 IM1H     195      IM1H     C1       CD33F     2.48500       11.6110           0  -1.18100       1.10000    
      3882 IM1H     195      IM1H     DC1      DRUD     -2.66700      0.400000           0   0.00000       0.00000    
      3883 IM1H     195      IM1H     H1       HDA3A    0.135000       1.00800           0   0.00000       0.00000    
      3884 IM1H     195      IM1H     H2       HDA3A    0.135000       1.00800           0   0.00000       0.00000    
      3885 IM1H     195      IM1H     H3       HDA3A    0.135000       1.00800           0   0.00000       0.00000    
      3886 IM1H     195      IM1H     N1       ND2R5C    2.35720       13.6070           0 -0.803000       1.00000    
      3887 IM1H     195      IM1H     DN1      DRUD     -2.19920      0.400000           0   0.00000       0.00000    
      3888 IM1H     195      IM1H     C2       CD2R5D    2.44700       11.6110           0  -1.08300       1.10000    
      3889 IM1H     195      IM1H     DC2      DRUD     -2.55400      0.400000           0   0.00000       0.00000    
      3890 IM1H     195      IM1H     H4       HDR5D    0.195000       1.00800           0   0.00000       0.00000    
      3891 IM1H     195      IM1H     C3       CD2R5D    2.50700       11.6110           0  -1.08300       1.10000    
      3892 IM1H     195      IM1H     DC3      DRUD     -2.55400      0.400000           0   0.00000       0.00000    
      3893 IM1H     195      IM1H     H5       HDR5D    0.192000       1.00800           0   0.00000       0.00000    
      3894 IM1H     195      IM1H     C4       CD2R5E    2.72410       11.6110           0  -1.25300       1.20000    
      3895 IM1H     195      IM1H     DC4      DRUD     -2.74710      0.400000           0   0.00000       0.00000    
      3896 IM1H     195      IM1H     H6       HDR5E    0.203000       1.00800           0   0.00000       0.00000    
      3897 IM1H     195      IM1H     N2       ND2R5C    2.04220       13.6070           0 -0.803000       1.00000    
      3898 IM1H     195      IM1H     DN2      DRUD     -2.19920      0.400000           0   0.00000       0.00000    
      3899 IM1H     195      IM1H     H7       HDP1A    0.363000       1.00800           0   0.00000       0.00000    
      3900 IM1H     195      IM1H     LPN21    LPD       0.00000       0.00000          -1   0.00000       0.00000    
      3901 IM1H     196      IM1H     C1       CD33F     2.48500       11.6110           0  -1.18100       1.10000    
      3902 IM1H     196      IM1H     DC1      DRUD     -2.66700      0.400000           0   0.00000       0.00000    
      3903 IM1H     196      IM1H     H1       HDA3A    0.135000       1.00800           0   0.00000       0.00000    
      3904 IM1H     196      IM1H     H2       HDA3A    0.135000       1.00800           0   0.00000       0.00000    
      3905 IM1H     196      IM1H     H3       HDA3A    0.135000       1.00800           0   0.00000       0.00000    
      3906 IM1H     196      IM1H     N1       ND2R5C    2.35720       13.6070           0 -0.803000       1.00000    
      3907 IM1H     196      IM1H     DN1      DRUD     -2.19920      0.400000           0   0.00000       0.00000    
      3908 IM1H     196      IM1H     C2       CD2R5D    2.44700       11.6110           0  -1.08300       1.10000    
      3909 IM1H     196      IM1H     DC2      DRUD     -2.55400      0.400000           0   0.00000       0.00000    
      3910 IM1H     196      IM1H     H4       HDR5D    0.195000       1.00800           0   0.00000       0.00000    
      3911 IM1H     196      IM1H     C3       CD2R5D    2.50700       11.6110           0  -1.08300       1.10000    
      3912 IM1H     196      IM1H     DC3      DRUD     -2.55400      0.400000           0   0.00000       0.00000    
      3913 IM1H     196      IM1H     H5       HDR5D    0.192000       1.00800           0   0.00000       0.00000    
      3914 IM1H     196      IM1H     C4       CD2R5E    2.72410       11.6110           0  -1.25300       1.20000    
      3915 IM1H     196      IM1H     DC4      DRUD     -2.74710      0.400000           0   0.00000       0.00000    
      3916 IM1H     196      IM1H     H6       HDR5E    0.203000       1.00800           0   0.00000       0.00000    
      3917 IM1H     196      IM1H     N2       ND2R5C    2.04220       13.6070           0 -0.803000       1.00000    
      3918 IM1H     196      IM1H     DN2      DRUD     -2.19920      0.400000           0   0.00000       0.00000    
      3919 IM1H     196      IM1H     H7       HDP1A    0.363000       1.00800           0   0.00000       0.00000    
      3920 IM1H     196      IM1H     LPN21    LPD       0.00000       0.00000          -1   0.00000       0.00000    
      3921 IM1H     197      IM1H     C1       CD33F     2.48500       11.6110           0  -1.18100       1.10000    
      3922 IM1H     197      IM1H     DC1      DRUD     -2.66700      0.400000           0   0.00000       0.00000    
      3923 IM1H     197      IM1H     H1       HDA3A    0.135000       1.00800           0   0.00000       0.00000    
      3924 IM1H     197      IM1H     H2       HDA3A    0.135000       1.00800           0   0.00000       0.00000    
      3925 IM1H     197      IM1H     H3       HDA3A    0.135000       1.00800           0   0.00000       0.00000    
      3926 IM1H     197      IM1H     N1       ND2R5C    2.35720       13.6070           0 -0.803000       1.00000    
      3927 IM1H     197      IM1H     DN1      DRUD     -2.19920      0.400000           0   0.00000       0.00000    
      3928 IM1H     197      IM1H     C2       CD2R5D    2.44700       11.6110           0  -1.08300       1.10000    
      3929 IM1H     197      IM1H     DC2      DRUD     -2.55400      0.400000           0   0.00000       0.00000    
      3930 IM1H     197      IM1H     H4       HDR5D    0.195000       1.00800           0   0.00000       0.00000    
      3931 IM1H     197      IM1H     C3       CD2R5D    2.50700       11.6110           0  -1.08300       1.10000    
      3932 IM1H     197      IM1H     DC3      DRUD     -2.55400      0.400000           0   0.00000       0.00000    
      3933 IM1H     197      IM1H     H5       HDR5D    0.192000       1.00800           0   0.00000       0.00000    
      3934 IM1H     197      IM1H     C4       CD2R5E    2.72410       11.6110           0  -1.25300       1.20000    
      3935 IM1H     197      IM1H     DC4      DRUD     -2.74710      0.400000           0   0.00000       0.00000    
      3936 IM1H     197      IM1H     H6       HDR5E    0.203000       1.00800           0   0.00000       0.00000    
      3937 IM1H     197      IM1H     N2       ND2R5C    2.04220       13.6070           0 -0.803000       1.00000    
      3938 IM1H     197      IM1H     DN2      DRUD     -2.19920      0.400000           0   0.00000       0.00000    
      3939 IM1H     197      IM1H     H7       HDP1A    0.363000       1.00800           0   0.00000       0.00000    
      3940 IM1H     197      IM1H     LPN21    LPD       0.00000       0.00000          -1   0.00000       0.00000    
      3941 IM1H     198      IM1H     C1       CD33F     2.48500       11.6110           0  -1.18100       1.10000    
      3942 IM1H     198      IM1H     DC1      DRUD     -2.66700      0.400000           0   0.00000       0.00000    
      3943 IM1H     198      IM1H     H1       HDA3A    0.135000       1.00800           0   0.00000       0.00000    
      3944 IM1H     198      IM1H     H2       HDA3A    0.135000       1.00800           0   0.00000       0.00000    
      3945 IM1H     198      IM1H     H3       HDA3A    0.135000       1.00800           0   0.00000       0.00000    
      3946 IM1H     198      IM1H     N1       ND2R5C    2.35720       13.6070           0 -0.803000       1.00000    
      3947 IM1H     198      IM1H     DN1      DRUD     -2.19920      0.400000           0   0.00000       0.00000    
      3948 IM1H     198      IM1H     C2       CD2R5D    2.44700       11.6110           0  -1.08300       1.10000    
      3949 IM1H     198      IM1H     DC2      DRUD     -2.55400      0.400000           0   0.00000       0.00000    
      3950 IM1H     198      IM1H     H4       HDR5D    0.195000       1.00800           0   0.00000       0.00000    
      3951 IM1H     198      IM1H     C3       CD2R5D    2.50700       11.6110           0  -1.08300       1.10000    
      3952 IM1H     198      IM1H     DC3      DRUD     -2.55400      0.400000           0   0.00000       0.00000    
      3953 IM1H     198      IM1H     H5       HDR5D    0.192000       1.00800           0   0.00000       0.00000    
      3954 IM1H     198      IM1H     C4       CD2R5E    2.72410       11.6110           0  -1.25300       1.20000    
      3955 IM1H     198      IM1H     DC4      DRUD     -2.74710      0.400000           0   0.00000       0.00000    
      3956 IM1H     198      IM1H     H6       HDR5E    0.203000       1.00800           0   0.00000       0.00000    
      3957 IM1H     198      IM1H     N2       ND2R5C    2.04220       13.6070           0 -0.803000       1.00000    
      3958 IM1H     198      IM1H     DN2      DRUD     -2.19920      0.400000           0   0.00000       0.00000    
      3959 IM1H     198      IM1H     H7       HDP1A    0.363000       1.00800           0   0.00000       0.00000    
      3960 IM1H     198      IM1H     LPN21    LPD       0.00000       0.00000          -1   0.00000       0.00000    
      3961 IM1H     199      IM1H     C1       CD33F     2.48500       11.6110           0  -1.18100       1.10000    
      3962 IM1H     199      IM1H     DC1      DRUD     -2.66700      0.400000           0   0.00000       0.00000    
      3963 IM1H     199      IM1H     H1       HDA3A    0.135000       1.00800           0   0.00000       0.00000    
      3964 IM1H     199      IM1H     H2       HDA3A    0.135000       1.00800           0   0.00000       0.00000    
      3965 IM1H     199      IM1H     H3       HDA3A    0.135000       1.00800           0   0.00000       0.00000    
      3966 IM1H     199      IM1H     N1       ND2R5C    2.35720       13.6070           0 -0.803000       1.00000    
      3967 IM1H     199      IM1H     DN1      DRUD     -2.19920      0.400000           0   0.00000       0.00000    
      3968 IM1H     199      IM1H     C2       CD2R5D    2.44700       11.6110           0  -1.08300       1.10000    
      3969 IM1H     199      IM1H     DC2      DRUD     -2.55400      0.400000           0   0.00000       0.00000    
      3970 IM1H     199      IM1H     H4       HDR5D    0.195000       1.00800           0   0.00000       0.00000    
      3971 IM1H     199      IM1H     C3       CD2R5D    2.50700       11.6110           0  -1.08300       1.10000    
      3972 IM1H     199      IM1H     DC3      DRUD     -2.55400      0.400000           0   0.00000       0.00000    
      3973 IM1H     199      IM1H     H5       HDR5D    0.192000       1.00800           0   0.00000       0.00000    
      3974 IM1H     199      IM1H     C4       CD2R5E    2.72410       11.6110           0  -1.25300       1.20000    
      3975 IM1H     199      IM1H     DC4      DRUD     -2.74710      0.400000           0   0.00000       0.00000    
      3976 IM1H     199      IM1H     H6       HDR5E    0.203000       1.00800           0   0.00000       0.00000    
      3977 IM1H     199      IM1H     N2       ND2R5C    2.04220       13.6070           0 -0.803000       1.00000    
      3978 IM1H     199      IM1H     DN2      DRUD     -2.19920      0.400000           0   0.00000       0.00000    
      3979 IM1H     199      IM1H     H7       HDP1A    0.363000       1.00800           0   0.00000       0.00000    
      3980 IM1H     199      IM1H     LPN21    LPD       0.00000       0.00000          -1   0.00000       0.00000    
      3981 IM1H     200      IM1H     C1       CD33F     2.48500       11.6110           0  -1.18100       1.10000    
      3982 IM1H     200      IM1H     DC1      DRUD     -2.66700      0.400000           0   0.00000       0.00000    
      3983 IM1H     200      IM1H     H1       HDA3A    0.135000       1.00800           0   0.00000       0.00000    
      3984 IM1H     200      IM1H     H2       HDA3A    0.135000       1.00800           0   0.00000       0.00000    
      3985 IM1H     200      IM1H     H3       HDA3A    0.135000       1.00800           0   0.00000       0.00000    
      3986 IM1H     200      IM1H     N1       ND2R5C    2.35720       13.6070           0 -0.803000       1.00000    
      3987 IM1H     200      IM1H     DN1      DRUD     -2.19920      0.400000           0   0.00000       0.00000    
      3988 IM1H     200      IM1H     C2       CD2R5D    2.44700       11.6110           0  -1.08300       1.10000    
      3989 IM1H     200      IM1H     DC2      DRUD     -2.55400      0.400000           0   0.00000       0.00000    
      3990 IM1H     200      IM1H     H4       HDR5D    0.195000       1.00800           0   0.00000       0.00000    
      3991 IM1H     200      IM1H     C3       CD2R5D    2.50700       11.6110           0  -1.08300       1.10000    
      3992 IM1H     200      IM1H     DC3      DRUD     -2.55400      0.400000           0   0.00000       0.00000    
      3993 IM1H     200      IM1H     H5       HDR5D    0.192000       1.00800           0   0.00000       0.00000    
      3994 IM1H     200      IM1H     C4       CD2R5E    2.72410       11.6110           0  -1.25300       1.20000    
      3995 IM1H     200      IM1H     DC4      DRUD     -2.74710      0.400000           0   0.00000       0.00000    
      3996 IM1H     200      IM1H     H6       HDR5E    0.203000       1.00800           0   0.00000       0.00000    
      3997 IM1H     200      IM1H     N2       ND2R5C    2.04220       13.6070           0 -0.803000       1.00000    
      3998 IM1H     200      IM1H     DN2      DRUD     -2.19920      0.400000           0   0.00000       0.00000    
      3999 IM1H     200      IM1H     H7       HDP1A    0.363000       1.00800           0   0.00000       0.00000    
      4000 IM1H     200      IM1H     LPN21    LPD       0.00000       0.00000          -1   0.00000       0.00000    
      4001 IM1H     201      IM1H     C1       CD33F     2.48500       11.6110           0  -1.18100       1.10000    
      4002 IM1H     201      IM1H     DC1      DRUD     -2.66700      0.400000           0   0.00000       0.00000    
      4003 IM1H     201      IM1H     H1       HDA3A    0.135000       1.00800           0   0.00000       0.00000    
      4004 IM1H     201      IM1H     H2       HDA3A    0.135000       1.00800           0   0.00000       0.00000    
      4005 IM1H     201      IM1H     H3       HDA3A    0.135000       1.00800           0   0.00000       0.00000    
      4006 IM1H     201      IM1H     N1       ND2R5C    2.35720       13.6070           0 -0.803000       1.00000    
      4007 IM1H     201      IM1H     DN1      DRUD     -2.19920      0.400000           0   0.00000       0.00000    
      4008 IM1H     201      IM1H     C2       CD2R5D    2.44700       11.6110           0  -1.08300       1.10000    
      4009 IM1H     201      IM1H     DC2      DRUD     -2.55400      0.400000           0   0.00000       0.00000    
      4010 IM1H     201      IM1H     H4       HDR5D    0.195000       1.00800           0   0.00000       0.00000    
      4011 IM1H     201      IM1H     C3       CD2R5D    2.50700       11.6110           0  -1.08300       1.10000    
      4012 IM1H     201      IM1H     DC3      DRUD     -2.55400      0.400000           0   0.00000       0.00000    
      4013 IM1H     201      IM1H     H5       HDR5D    0.192000       1.00800           0   0.00000       0.00000    
      4014 IM1H     201      IM1H     C4       CD2R5E    2.72410       11.6110           0  -1.25300       1.20000    
      4015 IM1H     201      IM1H     DC4      DRUD     -2.74710      0.400000           0   0.00000       0.00000    
      4016 IM1H     201      IM1H     H6       HDR5E    0.203000       1.00800           0   0.00000       0.00000    
      4017 IM1H     201      IM1H     N2       ND2R5C    2.04220       13.6070           0 -0.803000       1.00000    
      4018 IM1H     201      IM1H     DN2      DRUD     -2.19920      0.400000           0   0.00000       0.00000    
      4019 IM1H     201      IM1H     H7       HDP1A    0.363000       1.00800           0   0.00000       0.00000    
      4020 IM1H     201      IM1H     LPN21    LPD       0.00000       0.00000          -1   0.00000       0.00000    
      4021 IM1H     202      IM1H     C1       CD33F     2.48500       11.6110           0  -1.18100       1.10000    
      4022 IM1H     202      IM1H     DC1      DRUD     -2.66700      0.400000           0   0.00000       0.00000    
      4023 IM1H     202      IM1H     H1       HDA3A    0.135000       1.00800           0   0.00000       0.00000    
      4024 IM1H     202      IM1H     H2       HDA3A    0.135000       1.00800           0   0.00000       0.00000    
      4025 IM1H     202      IM1H     H3       HDA3A    0.135000       1.00800           0   0.00000       0.00000    
      4026 IM1H     202      IM1H     N1       ND2R5C    2.35720       13.6070           0 -0.803000       1.00000    
      4027 IM1H     202      IM1H     DN1      DRUD     -2.19920      0.400000           0   0.00000       0.00000    
      4028 IM1H     202      IM1H     C2       CD2R5D    2.44700       11.6110           0  -1.08300       1.10000    
      4029 IM1H     202      IM1H     DC2      DRUD     -2.55400      0.400000           0   0.00000       0.00000    
      4030 IM1H     202      IM1H     H4       HDR5D    0.195000       1.00800           0   0.00000       0.00000    
      4031 IM1H     202      IM1H     C3       CD2R5D    2.50700       11.6110           0  -1.08300       1.10000    
      4032 IM1H     202      IM1H     DC3      DRUD     -2.55400      0.400000           0   0.00000       0.00000    
      4033 IM1H     202      IM1H     H5       HDR5D    0.192000       1.00800           0   0.00000       0.00000    
      4034 IM1H     202      IM1H     C4       CD2R5E    2.72410       11.6110           0  -1.25300       1.20000    
      4035 IM1H     202      IM1H     DC4      DRUD     -2.74710      0.400000           0   0.00000       0.00000    
      4036 IM1H     202      IM1H     H6       HDR5E    0.203000       1.00800           0   0.00000       0.00000    
      4037 IM1H     202      IM1H     N2       ND2R5C    2.04220       13.6070           0 -0.803000       1.00000    
      4038 IM1H     202      IM1H     DN2      DRUD     -2.19920      0.400000           0   0.00000       0.00000    
      4039 IM1H     202      IM1H     H7       HDP1A    0.363000       1.00800           0   0.00000       0.00000    
      4040 IM1H     202      IM1H     LPN21    LPD       0.00000       0.00000          -1   0.00000       0.00000    
      4041 IM1H     203      IM1H     C1       CD33F     2.48500       11.6110           0  -1.18100       1.10000    
      4042 IM1H     203      IM1H     DC1      DRUD     -2.66700      0.400000           0   0.00000       0.00000    
      4043 IM1H     203      IM1H     H1       HDA3A    0.135000       1.00800           0   0.00000       0.00000    
      4044 IM1H     203      IM1H     H2       HDA3A    0.135000       1.00800           0   0.00000       0.00000    
      4045 IM1H     203      IM1H     H3       HDA3A    0.135000       1.00800           0   0.00000       0.00000    
      4046 IM1H     203      IM1H     N1       ND2R5C    2.35720       13.6070           0 -0.803000       1.00000    
      4047 IM1H     203      IM1H     DN1      DRUD     -2.19920      0.400000           0   0.00000       0.00000    
      4048 IM1H     203      IM1H     C2       CD2R5D    2.44700       11.6110           0  -1.08300       1.10000    
      4049 IM1H     203      IM1H     DC2      DRUD     -2.55400      0.400000           0   0.00000       0.00000    
      4050 IM1H     203      IM1H     H4       HDR5D    0.195000       1.00800           0   0.00000       0.00000    
      4051 IM1H     203      IM1H     C3       CD2R5D    2.50700       11.6110           0  -1.08300       1.10000    
      4052 IM1H     203      IM1H     DC3      DRUD     -2.55400      0.400000           0   0.00000       0.00000    
      4053 IM1H     203      IM1H     H5       HDR5D    0.192000       1.00800           0   0.00000       0.00000    
      4054 IM1H     203      IM1H     C4       CD2R5E    2.72410       11.6110           0  -1.25300       1.20000    
      4055 IM1H     203      IM1H     DC4      DRUD     -2.74710      0.400000           0   0.00000       0.00000    
      4056 IM1H     203      IM1H     H6       HDR5E    0.203000       1.00800           0   0.00000       0.00000    
      4057 IM1H     203      IM1H     N2       ND2R5C    2.04220       13.6070           0 -0.803000       1.00000    
      4058 IM1H     203      IM1H     DN2      DRUD     -2.19920      0.400000           0   0.00000       0.00000    
      4059 IM1H     203      IM1H     H7       HDP1A    0.363000       1.00800           0   0.00000       0.00000    
      4060 IM1H     203      IM1H     LPN21    LPD       0.00000       0.00000          -1   0.00000       0.00000    
      4061 IM1H     204      IM1H     C1       CD33F     2.48500       11.6110           0  -1.18100       1.10000    
      4062 IM1H     204      IM1H     DC1      DRUD     -2.66700      0.400000           0   0.00000       0.00000    
      4063 IM1H     204      IM1H     H1       HDA3A    0.135000       1.00800           0   0.00000       0.00000    
      4064 IM1H     204      IM1H     H2       HDA3A    0.135000       1.00800           0   0.00000       0.00000    
      4065 IM1H     204      IM1H     H3       HDA3A    0.135000       1.00800           0   0.00000       0.00000    
      4066 IM1H     204      IM1H     N1       ND2R5C    2.35720       13.6070           0 -0.803000       1.00000    
      4067 IM1H     204      IM1H     DN1      DRUD     -2.19920      0.400000           0   0.00000       0.00000    
      4068 IM1H     204      IM1H     C2       CD2R5D    2.44700       11.6110           0  -1.08300       1.10000    
      4069 IM1H     204      IM1H     DC2      DRUD     -2.55400      0.400000           0   0.00000       0.00000    
      4070 IM1H     204      IM1H     H4       HDR5D    0.195000       1.00800           0   0.00000       0.00000    
      4071 IM1H     204      IM1H     C3       CD2R5D    2.50700       11.6110           0  -1.08300       1.10000    
      4072 IM1H     204      IM1H     DC3      DRUD     -2.55400      0.400000           0   0.00000       0.00000    
      4073 IM1H     204      IM1H     H5       HDR5D    0.192000       1.00800           0   0.00000       0.00000    
      4074 IM1H     204      IM1H     C4       CD2R5E    2.72410       11.6110           0  -1.25300       1.20000    
      4075 IM1H     204      IM1H     DC4      DRUD     -2.74710      0.400000           0   0.00000       0.00000    
      4076 IM1H     204      IM1H     H6       HDR5E    0.203000       1.00800           0   0.00000       0.00000    
      4077 IM1H     204      IM1H     N2       ND2R5C    2.04220       13.6070           0 -0.803000       1.00000    
      4078 IM1H     204      IM1H     DN2      DRUD     -2.19920      0.400000           0   0.00000       0.00000    
      4079 IM1H     204      IM1H     H7       HDP1A    0.363000       1.00800           0   0.00000       0.00000    
      4080 IM1H     204      IM1H     LPN21    LPD       0.00000       0.00000          -1   0.00000       0.00000    
      4081 IM1H     205      IM1H     C1       CD33F     2.48500       11.6110           0  -1.18100       1.10000    
      4082 IM1H     205      IM1H     DC1      DRUD     -2.66700      0.400000           0   0.00000       0.00000    
      4083 IM1H     205      IM1H     H1       HDA3A    0.135000       1.00800           0   0.00000       0.00000    
      4084 IM1H     205      IM1H     H2       HDA3A    0.135000       1.00800           0   0.00000       0.00000    
      4085 IM1H     205      IM1H     H3       HDA3A    0.135000       1.00800           0   0.00000       0.00000    
      4086 IM1H     205      IM1H     N1       ND2R5C    2.35720       13.6070           0 -0.803000       1.00000    
      4087 IM1H     205      IM1H     DN1      DRUD     -2.19920      0.400000           0   0.00000       0.00000    
      4088 IM1H     205      IM1H     C2       CD2R5D    2.44700       11.6110           0  -1.08300       1.10000    
      4089 IM1H     205      IM1H     DC2      DRUD     -2.55400      0.400000           0   0.00000       0.00000    
      4090 IM1H     205      IM1H     H4       HDR5D    0.195000       1.00800           0   0.00000       0.00000    
      4091 IM1H     205      IM1H     C3       CD2R5D    2.50700       11.6110           0  -1.08300       1.10000    
      4092 IM1H     205      IM1H     DC3      DRUD     -2.55400      0.400000           0   0.00000       0.00000    
      4093 IM1H     205      IM1H     H5       HDR5D    0.192000       1.00800           0   0.00000       0.00000    
      4094 IM1H     205      IM1H     C4       CD2R5E    2.72410       11.6110           0  -1.25300       1.20000    
      4095 IM1H     205      IM1H     DC4      DRUD     -2.74710      0.400000           0   0.00000       0.00000    
      4096 IM1H     205      IM1H     H6       HDR5E    0.203000       1.00800           0   0.00000       0.00000    
      4097 IM1H     205      IM1H     N2       ND2R5C    2.04220       13.6070           0 -0.803000       1.00000    
      4098 IM1H     205      IM1H     DN2      DRUD     -2.19920      0.400000           0   0.00000       0.00000    
      4099 IM1H     205      IM1H     H7       HDP1A    0.363000       1.00800           0   0.00000       0.00000    
      4100 IM1H     205      IM1H     LPN21    LPD       0.00000       0.00000          -1   0.00000       0.00000    
      4101 IM1H     206      IM1H     C1       CD33F     2.48500       11.6110           0  -1.18100       1.10000    
      4102 IM1H     206      IM1H     DC1      DRUD     -2.66700      0.400000           0   0.00000       0.00000    
      4103 IM1H     206      IM1H     H1       HDA3A    0.135000       1.00800           0   0.00000       0.00000    
      4104 IM1H     206      IM1H     H2       HDA3A    0.135000       1.00800           0   0.00000       0.00000    
      4105 IM1H     206      IM1H     H3       HDA3A    0.135000       1.00800           0   0.00000       0.00000    
      4106 IM1H     206      IM1H     N1       ND2R5C    2.35720       13.6070           0 -0.803000       1.00000    
      4107 IM1H     206      IM1H     DN1      DRUD     -2.19920      0.400000           0   0.00000       0.00000    
      4108 IM1H     206      IM1H     C2       CD2R5D    2.44700       11.6110           0  -1.08300       1.10000    
      4109 IM1H     206      IM1H     DC2      DRUD     -2.55400      0.400000           0   0.00000       0.00000    
      4110 IM1H     206      IM1H     H4       HDR5D    0.195000       1.00800           0   0.00000       0.00000    
      4111 IM1H     206      IM1H     C3       CD2R5D    2.50700       11.6110           0  -1.08300       1.10000    
      4112 IM1H     206      IM1H     DC3      DRUD     -2.55400      0.400000           0   0.00000       0.00000    
      4113 IM1H     206      IM1H     H5       HDR5D    0.192000       1.00800           0   0.00000       0.00000    
      4114 IM1H     206      IM1H     C4       CD2R5E    2.72410       11.6110           0  -1.25300       1.20000    
      4115 IM1H     206      IM1H     DC4      DRUD     -2.74710      0.400000           0   0.00000       0.00000    
      4116 IM1H     206      IM1H     H6       HDR5E    0.203000       1.00800           0   0.00000       0.00000    
      4117 IM1H     206      IM1H     N2       ND2R5C    2.04220       13.6070           0 -0.803000       1.00000    
      4118 IM1H     206      IM1H     DN2      DRUD     -2.19920      0.400000           0   0.00000       0.00000    
      4119 IM1H     206      IM1H     H7       HDP1A    0.363000       1.00800           0   0.00000       0.00000    
      4120 IM1H     206      IM1H     LPN21    LPD       0.00000       0.00000          -1   0.00000       0.00000    
      4121 IM1H     207      IM1H     C1       CD33F     2.48500       11.6110           0  -1.18100       1.10000    
      4122 IM1H     207      IM1H     DC1      DRUD     -2.66700      0.400000           0   0.00000       0.00000    
      4123 IM1H     207      IM1H     H1       HDA3A    0.135000       1.00800           0   0.00000       0.00000    
      4124 IM1H     207      IM1H     H2       HDA3A    0.135000       1.00800           0   0.00000       0.00000    
      4125 IM1H     207      IM1H     H3       HDA3A    0.135000       1.00800           0   0.00000       0.00000    
      4126 IM1H     207      IM1H     N1       ND2R5C    2.35720       13.6070           0 -0.803000       1.00000    
      4127 IM1H     207      IM1H     DN1      DRUD     -2.19920      0.400000           0   0.00000       0.00000    
      4128 IM1H     207      IM1H     C2       CD2R5D    2.44700       11.6110           0  -1.08300       1.10000    
      4129 IM1H     207      IM1H     DC2      DRUD     -2.55400      0.400000           0   0.00000       0.00000    
      4130 IM1H     207      IM1H     H4       HDR5D    0.195000       1.00800           0   0.00000       0.00000    
      4131 IM1H     207      IM1H     C3       CD2R5D    2.50700       11.6110           0  -1.08300       1.10000    
      4132 IM1H     207      IM1H     DC3      DRUD     -2.55400      0.400000           0   0.00000       0.00000    
      4133 IM1H     207      IM1H     H5       HDR5D    0.192000       1.00800           0   0.00000       0.00000    
      4134 IM1H     207      IM1H     C4       CD2R5E    2.72410       11.6110           0  -1.25300       1.20000    
      4135 IM1H     207      IM1H     DC4      DRUD     -2.74710      0.400000           0   0.00000       0.00000    
      4136 IM1H     207      IM1H     H6       HDR5E    0.203000       1.00800           0   0.00000       0.00000    
      4137 IM1H     207      IM1H     N2       ND2R5C    2.04220       13.6070           0 -0.803000       1.00000    
      4138 IM1H     207      IM1H     DN2      DRUD     -2.19920      0.400000           0   0.00000       0.00000    
      4139 IM1H     207      IM1H     H7       HDP1A    0.363000       1.00800           0   0.00000       0.00000    
      4140 IM1H     207      IM1H     LPN21    LPD       0.00000       0.00000          -1   0.00000       0.00000    
      4141 IM1H     208      IM1H     C1       CD33F     2.48500       11.6110           0  -1.18100       1.10000    
      4142 IM1H     208      IM1H     DC1      DRUD     -2.66700      0.400000           0   0.00000       0.00000    
      4143 IM1H     208      IM1H     H1       HDA3A    0.135000       1.00800           0   0.00000       0.00000    
      4144 IM1H     208      IM1H     H2       HDA3A    0.135000       1.00800           0   0.00000       0.00000    
      4145 IM1H     208      IM1H     H3       HDA3A    0.135000       1.00800           0   0.00000       0.00000    
      4146 IM1H     208      IM1H     N1       ND2R5C    2.35720       13.6070           0 -0.803000       1.00000    
      4147 IM1H     208      IM1H     DN1      DRUD     -2.19920      0.400000           0   0.00000       0.00000    
      4148 IM1H     208      IM1H     C2       CD2R5D    2.44700       11.6110           0  -1.08300       1.10000    
      4149 IM1H     208      IM1H     DC2      DRUD     -2.55400      0.400000           0   0.00000       0.00000    
      4150 IM1H     208      IM1H     H4       HDR5D    0.195000       1.00800           0   0.00000       0.00000    
      4151 IM1H     208      IM1H     C3       CD2R5D    2.50700       11.6110           0  -1.08300       1.10000    
      4152 IM1H     208      IM1H     DC3      DRUD     -2.55400      0.400000           0   0.00000       0.00000    
      4153 IM1H     208      IM1H     H5       HDR5D    0.192000       1.00800           0   0.00000       0.00000    
      4154 IM1H     208      IM1H     C4       CD2R5E    2.72410       11.6110           0  -1.25300       1.20000    
      4155 IM1H     208      IM1H     DC4      DRUD     -2.74710      0.400000           0   0.00000       0.00000    
      4156 IM1H     208      IM1H     H6       HDR5E    0.203000       1.00800           0   0.00000       0.00000    
      4157 IM1H     208      IM1H     N2       ND2R5C    2.04220       13.6070           0 -0.803000       1.00000    
      4158 IM1H     208      IM1H     DN2      DRUD     -2.19920      0.400000           0   0.00000       0.00000    
      4159 IM1H     208      IM1H     H7       HDP1A    0.363000       1.00800           0   0.00000       0.00000    
      4160 IM1H     208      IM1H     LPN21    LPD       0.00000       0.00000          -1   0.00000       0.00000    
      4161 IM1H     209      IM1H     C1       CD33F     2.48500       11.6110           0  -1.18100       1.10000    
      4162 IM1H     209      IM1H     DC1      DRUD     -2.66700      0.400000           0   0.00000       0.00000    
      4163 IM1H     209      IM1H     H1       HDA3A    0.135000       1.00800           0   0.00000       0.00000    
      4164 IM1H     209      IM1H     H2       HDA3A    0.135000       1.00800           0   0.00000       0.00000    
      4165 IM1H     209      IM1H     H3       HDA3A    0.135000       1.00800           0   0.00000       0.00000    
      4166 IM1H     209      IM1H     N1       ND2R5C    2.35720       13.6070           0 -0.803000       1.00000    
      4167 IM1H     209      IM1H     DN1      DRUD     -2.19920      0.400000           0   0.00000       0.00000    
      4168 IM1H     209      IM1H     C2       CD2R5D    2.44700       11.6110           0  -1.08300       1.10000    
      4169 IM1H     209      IM1H     DC2      DRUD     -2.55400      0.400000           0   0.00000       0.00000    
      4170 IM1H     209      IM1H     H4       HDR5D    0.195000       1.00800           0   0.00000       0.00000    
      4171 IM1H     209      IM1H     C3       CD2R5D    2.50700       11.6110           0  -1.08300       1.10000    
      4172 IM1H     209      IM1H     DC3      DRUD     -2.55400      0.400000           0   0.00000       0.00000    
      4173 IM1H     209      IM1H     H5       HDR5D    0.192000       1.00800           0   0.00000       0.00000    
      4174 IM1H     209      IM1H     C4       CD2R5E    2.72410       11.6110           0  -1.25300       1.20000    
      4175 IM1H     209      IM1H     DC4      DRUD     -2.74710      0.400000           0   0.00000       0.00000    
      4176 IM1H     209      IM1H     H6       HDR5E    0.203000       1.00800           0   0.00000       0.00000    
      4177 IM1H     209      IM1H     N2       ND2R5C    2.04220       13.6070           0 -0.803000       1.00000    
      4178 IM1H     209      IM1H     DN2      DRUD     -2.19920      0.400000           0   0.00000       0.00000    
      4179 IM1H     209      IM1H     H7       HDP1A    0.363000       1.00800           0   0.00000       0.00000    
      4180 IM1H     209      IM1H     LPN21    LPD       0.00000       0.00000          -1   0.00000       0.00000    
      4181 IM1H     210      IM1H     C1       CD33F     2.48500       11.6110           0  -1.18100       1.10000    
      4182 IM1H     210      IM1H     DC1      DRUD     -2.66700      0.400000           0   0.00000       0.00000    
      4183 IM1H     210      IM1H     H1       HDA3A    0.135000       1.00800           0   0.00000       0.00000    
      4184 IM1H     210      IM1H     H2       HDA3A    0.135000       1.00800           0   0.00000       0.00000    
      4185 IM1H     210      IM1H     H3       HDA3A    0.135000       1.00800           0   0.00000       0.00000    
      4186 IM1H     210      IM1H     N1       ND2R5C    2.35720       13.6070           0 -0.803000       1.00000    
      4187 IM1H     210      IM1H     DN1      DRUD     -2.19920      0.400000           0   0.00000       0.00000    
      4188 IM1H     210      IM1H     C2       CD2R5D    2.44700       11.6110           0  -1.08300       1.10000    
      4189 IM1H     210      IM1H     DC2      DRUD     -2.55400      0.400000           0   0.00000       0.00000    
      4190 IM1H     210      IM1H     H4       HDR5D    0.195000       1.00800           0   0.00000       0.00000    
      4191 IM1H     210      IM1H     C3       CD2R5D    2.50700       11.6110           0  -1.08300       1.10000    
      4192 IM1H     210      IM1H     DC3      DRUD     -2.55400      0.400000           0   0.00000       0.00000    
      4193 IM1H     210      IM1H     H5       HDR5D    0.192000       1.00800           0   0.00000       0.00000    
      4194 IM1H     210      IM1H     C4       CD2R5E    2.72410       11.6110           0  -1.25300       1.20000    
      4195 IM1H     210      IM1H     DC4      DRUD     -2.74710      0.400000           0   0.00000       0.00000    
      4196 IM1H     210      IM1H     H6       HDR5E    0.203000       1.00800           0   0.00000       0.00000    
      4197 IM1H     210      IM1H     N2       ND2R5C    2.04220       13.6070           0 -0.803000       1.00000    
      4198 IM1H     210      IM1H     DN2      DRUD     -2.19920      0.400000           0   0.00000       0.00000    
      4199 IM1H     210      IM1H     H7       HDP1A    0.363000       1.00800           0   0.00000       0.00000    
      4200 IM1H     210      IM1H     LPN21    LPD       0.00000       0.00000          -1   0.00000       0.00000    
      4201 IM1H     211      IM1H     C1       CD33F     2.48500       11.6110           0  -1.18100       1.10000    
      4202 IM1H     211      IM1H     DC1      DRUD     -2.66700      0.400000           0   0.00000       0.00000    
      4203 IM1H     211      IM1H     H1       HDA3A    0.135000       1.00800           0   0.00000       0.00000    
      4204 IM1H     211      IM1H     H2       HDA3A    0.135000       1.00800           0   0.00000       0.00000    
      4205 IM1H     211      IM1H     H3       HDA3A    0.135000       1.00800           0   0.00000       0.00000    
      4206 IM1H     211      IM1H     N1       ND2R5C    2.35720       13.6070           0 -0.803000       1.00000    
      4207 IM1H     211      IM1H     DN1      DRUD     -2.19920      0.400000           0   0.00000       0.00000    
      4208 IM1H     211      IM1H     C2       CD2R5D    2.44700       11.6110           0  -1.08300       1.10000    
      4209 IM1H     211      IM1H     DC2      DRUD     -2.55400      0.400000           0   0.00000       0.00000    
      4210 IM1H     211      IM1H     H4       HDR5D    0.195000       1.00800           0   0.00000       0.00000    
      4211 IM1H     211      IM1H     C3       CD2R5D    2.50700       11.6110           0  -1.08300       1.10000    
      4212 IM1H     211      IM1H     DC3      DRUD     -2.55400      0.400000           0   0.00000       0.00000    
      4213 IM1H     211      IM1H     H5       HDR5D    0.192000       1.00800           0   0.00000       0.00000    
      4214 IM1H     211      IM1H     C4       CD2R5E    2.72410       11.6110           0  -1.25300       1.20000    
      4215 IM1H     211      IM1H     DC4      DRUD     -2.74710      0.400000           0   0.00000       0.00000    
      4216 IM1H     211      IM1H     H6       HDR5E    0.203000       1.00800           0   0.00000       0.00000    
      4217 IM1H     211      IM1H     N2       ND2R5C    2.04220       13.6070           0 -0.803000       1.00000    
      4218 IM1H     211      IM1H     DN2      DRUD     -2.19920      0.400000           0   0.00000       0.00000    
      4219 IM1H     211      IM1H     H7       HDP1A    0.363000       1.00800           0   0.00000       0.00000    
      4220 IM1H     211      IM1H     LPN21    LPD       0.00000       0.00000          -1   0.00000       0.00000    
      4221 IM1H     212      IM1H     C1       CD33F     2.48500       11.6110           0  -1.18100       1.10000    
      4222 IM1H     212      IM1H     DC1      DRUD     -2.66700      0.400000           0   0.00000       0.00000    
      4223 IM1H     212      IM1H     H1       HDA3A    0.135000       1.00800           0   0.00000       0.00000    
      4224 IM1H     212      IM1H     H2       HDA3A    0.135000       1.00800           0   0.00000       0.00000    
      4225 IM1H     212      IM1H     H3       HDA3A    0.135000       1.00800           0   0.00000       0.00000    
      4226 IM1H     212      IM1H     N1       ND2R5C    2.35720       13.6070           0 -0.803000       1.00000    
      4227 IM1H     212      IM1H     DN1      DRUD     -2.19920      0.400000           0   0.00000       0.00000    
      4228 IM1H     212      IM1H     C2       CD2R5D    2.44700       11.6110           0  -1.08300       1.10000    
      4229 IM1H     212      IM1H     DC2      DRUD     -2.55400      0.400000           0   0.00000       0.00000    
      4230 IM1H     212      IM1H     H4       HDR5D    0.195000       1.00800           0   0.00000       0.00000    
      4231 IM1H     212      IM1H     C3       CD2R5D    2.50700       11.6110           0  -1.08300       1.10000    
      4232 IM1H     212      IM1H     DC3      DRUD     -2.55400      0.400000           0   0.00000       0.00000    
      4233 IM1H     212      IM1H     H5       HDR5D    0.192000       1.00800           0   0.00000       0.00000    
      4234 IM1H     212      IM1H     C4       CD2R5E    2.72410       11.6110           0  -1.25300       1.20000    
      4235 IM1H     212      IM1H     DC4      DRUD     -2.74710      0.400000           0   0.00000       0.00000    
      4236 IM1H     212      IM1H     H6       HDR5E    0.203000       1.00800           0   0.00000       0.00000    
      4237 IM1H     212      IM1H     N2       ND2R5C    2.04220       13.6070           0 -0.803000       1.00000    
      4238 IM1H     212      IM1H     DN2      DRUD     -2.19920      0.400000           0   0.00000       0.00000    
      4239 IM1H     212      IM1H     H7       HDP1A    0.363000       1.00800           0   0.00000       0.00000    
      4240 IM1H     212      IM1H     LPN21    LPD       0.00000       0.00000          -1   0.00000       0.00000    
      4241 IM1H     213      IM1H     C1       CD33F     2.48500       11.6110           0  -1.18100       1.10000    
      4242 IM1H     213      IM1H     DC1      DRUD     -2.66700      0.400000           0   0.00000       0.00000    
      4243 IM1H     213      IM1H     H1       HDA3A    0.135000       1.00800           0   0.00000       0.00000    
      4244 IM1H     213      IM1H     H2       HDA3A    0.135000       1.00800           0   0.00000       0.00000    
      4245 IM1H     213      IM1H     H3       HDA3A    0.135000       1.00800           0   0.00000       0.00000    
      4246 IM1H     213      IM1H     N1       ND2R5C    2.35720       13.6070           0 -0.803000       1.00000    
      4247 IM1H     213      IM1H     DN1      DRUD     -2.19920      0.400000           0   0.00000       0.00000    
      4248 IM1H     213      IM1H     C2       CD2R5D    2.44700       11.6110           0  -1.08300       1.10000    
      4249 IM1H     213      IM1H     DC2      DRUD     -2.55400      0.400000           0   0.00000       0.00000    
      4250 IM1H     213      IM1H     H4       HDR5D    0.195000       1.00800           0   0.00000       0.00000    
      4251 IM1H     213      IM1H     C3       CD2R5D    2.50700       11.6110           0  -1.08300       1.10000    
      4252 IM1H     213      IM1H     DC3      DRUD     -2.55400      0.400000           0   0.00000       0.00000    
      4253 IM1H     213      IM1H     H5       HDR5D    0.192000       1.00800           0   0.00000       0.00000    
      4254 IM1H     213      IM1H     C4       CD2R5E    2.72410       11.6110           0  -1.25300       1.20000    
      4255 IM1H     213      IM1H     DC4      DRUD     -2.74710      0.400000           0   0.00000       0.00000    
      4256 IM1H     213      IM1H     H6       HDR5E    0.203000       1.00800           0   0.00000       0.00000    
      4257 IM1H     213      IM1H     N2       ND2R5C    2.04220       13.6070           0 -0.803000       1.00000    
      4258 IM1H     213      IM1H     DN2      DRUD     -2.19920      0.400000           0   0.00000       0.00000    
      4259 IM1H     213      IM1H     H7       HDP1A    0.363000       1.00800           0   0.00000       0.00000    
      4260 IM1H     213      IM1H     LPN21    LPD       0.00000       0.00000          -1   0.00000       0.00000    
      4261 IM1H     214      IM1H     C1       CD33F     2.48500       11.6110           0  -1.18100       1.10000    
      4262 IM1H     214      IM1H     DC1      DRUD     -2.66700      0.400000           0   0.00000       0.00000    
      4263 IM1H     214      IM1H     H1       HDA3A    0.135000       1.00800           0   0.00000       0.00000    
      4264 IM1H     214      IM1H     H2       HDA3A    0.135000       1.00800           0   0.00000       0.00000    
      4265 IM1H     214      IM1H     H3       HDA3A    0.135000       1.00800           0   0.00000       0.00000    
      4266 IM1H     214      IM1H     N1       ND2R5C    2.35720       13.6070           0 -0.803000       1.00000    
      4267 IM1H     214      IM1H     DN1      DRUD     -2.19920      0.400000           0   0.00000       0.00000    
      4268 IM1H     214      IM1H     C2       CD2R5D    2.44700       11.6110           0  -1.08300       1.10000    
      4269 IM1H     214      IM1H     DC2      DRUD     -2.55400      0.400000           0   0.00000       0.00000    
      4270 IM1H     214      IM1H     H4       HDR5D    0.195000       1.00800           0   0.00000       0.00000    
      4271 IM1H     214      IM1H     C3       CD2R5D    2.50700       11.6110           0  -1.08300       1.10000    
      4272 IM1H     214      IM1H     DC3      DRUD     -2.55400      0.400000           0   0.00000       0.00000    
      4273 IM1H     214      IM1H     H5       HDR5D    0.192000       1.00800           0   0.00000       0.00000    
      4274 IM1H     214      IM1H     C4       CD2R5E    2.72410       11.6110           0  -1.25300       1.20000    
      4275 IM1H     214      IM1H     DC4      DRUD     -2.74710      0.400000           0   0.00000       0.00000    
      4276 IM1H     214      IM1H     H6       HDR5E    0.203000       1.00800           0   0.00000       0.00000    
      4277 IM1H     214      IM1H     N2       ND2R5C    2.04220       13.6070           0 -0.803000       1.00000    
      4278 IM1H     214      IM1H     DN2      DRUD     -2.19920      0.400000           0   0.00000       0.00000    
      4279 IM1H     214      IM1H     H7       HDP1A    0.363000       1.00800           0   0.00000       0.00000    
      4280 IM1H     214      IM1H     LPN21    LPD       0.00000       0.00000          -1   0.00000       0.00000    
      4281 IM1H     215      IM1H     C1       CD33F     2.48500       11.6110           0  -1.18100       1.10000    
      4282 IM1H     215      IM1H     DC1      DRUD     -2.66700      0.400000           0   0.00000       0.00000    
      4283 IM1H     215      IM1H     H1       HDA3A    0.135000       1.00800           0   0.00000       0.00000    
      4284 IM1H     215      IM1H     H2       HDA3A    0.135000       1.00800           0   0.00000       0.00000    
      4285 IM1H     215      IM1H     H3       HDA3A    0.135000       1.00800           0   0.00000       0.00000    
      4286 IM1H     215      IM1H     N1       ND2R5C    2.35720       13.6070           0 -0.803000       1.00000    
      4287 IM1H     215      IM1H     DN1      DRUD     -2.19920      0.400000           0   0.00000       0.00000    
      4288 IM1H     215      IM1H     C2       CD2R5D    2.44700       11.6110           0  -1.08300       1.10000    
      4289 IM1H     215      IM1H     DC2      DRUD     -2.55400      0.400000           0   0.00000       0.00000    
      4290 IM1H     215      IM1H     H4       HDR5D    0.195000       1.00800           0   0.00000       0.00000    
      4291 IM1H     215      IM1H     C3       CD2R5D    2.50700       11.6110           0  -1.08300       1.10000    
      4292 IM1H     215      IM1H     DC3      DRUD     -2.55400      0.400000           0   0.00000       0.00000    
      4293 IM1H     215      IM1H     H5       HDR5D    0.192000       1.00800           0   0.00000       0.00000    
      4294 IM1H     215      IM1H     C4       CD2R5E    2.72410       11.6110           0  -1.25300       1.20000    
      4295 IM1H     215      IM1H     DC4      DRUD     -2.74710      0.400000           0   0.00000       0.00000    
      4296 IM1H     215      IM1H     H6       HDR5E    0.203000       1.00800           0   0.00000       0.00000    
      4297 IM1H     215      IM1H     N2       ND2R5C    2.04220       13.6070           0 -0.803000       1.00000    
      4298 IM1H     215      IM1H     DN2      DRUD     -2.19920      0.400000           0   0.00000       0.00000    
      4299 IM1H     215      IM1H     H7       HDP1A    0.363000       1.00800           0   0.00000       0.00000    
      4300 IM1H     215      IM1H     LPN21    LPD       0.00000       0.00000          -1   0.00000       0.00000    
      4301 IM1H     216      IM1H     C1       CD33F     2.48500       11.6110           0  -1.18100       1.10000    
      4302 IM1H     216      IM1H     DC1      DRUD     -2.66700      0.400000           0   0.00000       0.00000    
      4303 IM1H     216      IM1H     H1       HDA3A    0.135000       1.00800           0   0.00000       0.00000    
      4304 IM1H     216      IM1H     H2       HDA3A    0.135000       1.00800           0   0.00000       0.00000    
      4305 IM1H     216      IM1H     H3       HDA3A    0.135000       1.00800           0   0.00000       0.00000    
      4306 IM1H     216      IM1H     N1       ND2R5C    2.35720       13.6070           0 -0.803000       1.00000    
      4307 IM1H     216      IM1H     DN1      DRUD     -2.19920      0.400000           0   0.00000       0.00000    
      4308 IM1H     216      IM1H     C2       CD2R5D    2.44700       11.6110           0  -1.08300       1.10000    
      4309 IM1H     216      IM1H     DC2      DRUD     -2.55400      0.400000           0   0.00000       0.00000    
      4310 IM1H     216      IM1H     H4       HDR5D    0.195000       1.00800           0   0.00000       0.00000    
      4311 IM1H     216      IM1H     C3       CD2R5D    2.50700       11.6110           0  -1.08300       1.10000    
      4312 IM1H     216      IM1H     DC3      DRUD     -2.55400      0.400000           0   0.00000       0.00000    
      4313 IM1H     216      IM1H     H5       HDR5D    0.192000       1.00800           0   0.00000       0.00000    
      4314 IM1H     216      IM1H     C4       CD2R5E    2.72410       11.6110           0  -1.25300       1.20000    
      4315 IM1H     216      IM1H     DC4      DRUD     -2.74710      0.400000           0   0.00000       0.00000    
      4316 IM1H     216      IM1H     H6       HDR5E    0.203000       1.00800           0   0.00000       0.00000    
      4317 IM1H     216      IM1H     N2       ND2R5C    2.04220       13.6070           0 -0.803000       1.00000    
      4318 IM1H     216      IM1H     DN2      DRUD     -2.19920      0.400000           0   0.00000       0.00000    
      4319 IM1H     216      IM1H     H7       HDP1A    0.363000       1.00800           0   0.00000       0.00000    
      4320 IM1H     216      IM1H     LPN21    LPD       0.00000       0.00000          -1   0.00000       0.00000    
      4321 IM1H     217      IM1H     C1       CD33F     2.48500       11.6110           0  -1.18100       1.10000    
      4322 IM1H     217      IM1H     DC1      DRUD     -2.66700      0.400000           0   0.00000       0.00000    
      4323 IM1H     217      IM1H     H1       HDA3A    0.135000       1.00800           0   0.00000       0.00000    
      4324 IM1H     217      IM1H     H2       HDA3A    0.135000       1.00800           0   0.00000       0.00000    
      4325 IM1H     217      IM1H     H3       HDA3A    0.135000       1.00800           0   0.00000       0.00000    
      4326 IM1H     217      IM1H     N1       ND2R5C    2.35720       13.6070           0 -0.803000       1.00000    
      4327 IM1H     217      IM1H     DN1      DRUD     -2.19920      0.400000           0   0.00000       0.00000    
      4328 IM1H     217      IM1H     C2       CD2R5D    2.44700       11.6110           0  -1.08300       1.10000    
      4329 IM1H     217      IM1H     DC2      DRUD     -2.55400      0.400000           0   0.00000       0.00000    
      4330 IM1H     217      IM1H     H4       HDR5D    0.195000       1.00800           0   0.00000       0.00000    
      4331 IM1H     217      IM1H     C3       CD2R5D    2.50700       11.6110           0  -1.08300       1.10000    
      4332 IM1H     217      IM1H     DC3      DRUD     -2.55400      0.400000           0   0.00000       0.00000    
      4333 IM1H     217      IM1H     H5       HDR5D    0.192000       1.00800           0   0.00000       0.00000    
      4334 IM1H     217      IM1H     C4       CD2R5E    2.72410       11.6110           0  -1.25300       1.20000    
      4335 IM1H     217      IM1H     DC4      DRUD     -2.74710      0.400000           0   0.00000       0.00000    
      4336 IM1H     217      IM1H     H6       HDR5E    0.203000       1.00800           0   0.00000       0.00000    
      4337 IM1H     217      IM1H     N2       ND2R5C    2.04220       13.6070           0 -0.803000       1.00000    
      4338 IM1H     217      IM1H     DN2      DRUD     -2.19920      0.400000           0   0.00000       0.00000    
      4339 IM1H     217      IM1H     H7       HDP1A    0.363000       1.00800           0   0.00000       0.00000    
      4340 IM1H     217      IM1H     LPN21    LPD       0.00000       0.00000          -1   0.00000       0.00000    
      4341 IM1H     218      IM1H     C1       CD33F     2.48500       11.6110           0  -1.18100       1.10000    
      4342 IM1H     218      IM1H     DC1      DRUD     -2.66700      0.400000           0   0.00000       0.00000    
      4343 IM1H     218      IM1H     H1       HDA3A    0.135000       1.00800           0   0.00000       0.00000    
      4344 IM1H     218      IM1H     H2       HDA3A    0.135000       1.00800           0   0.00000       0.00000    
      4345 IM1H     218      IM1H     H3       HDA3A    0.135000       1.00800           0   0.00000       0.00000    
      4346 IM1H     218      IM1H     N1       ND2R5C    2.35720       13.6070           0 -0.803000       1.00000    
      4347 IM1H     218      IM1H     DN1      DRUD     -2.19920      0.400000           0   0.00000       0.00000    
      4348 IM1H     218      IM1H     C2       CD2R5D    2.44700       11.6110           0  -1.08300       1.10000    
      4349 IM1H     218      IM1H     DC2      DRUD     -2.55400      0.400000           0   0.00000       0.00000    
      4350 IM1H     218      IM1H     H4       HDR5D    0.195000       1.00800           0   0.00000       0.00000    
      4351 IM1H     218      IM1H     C3       CD2R5D    2.50700       11.6110           0  -1.08300       1.10000    
      4352 IM1H     218      IM1H     DC3      DRUD     -2.55400      0.400000           0   0.00000       0.00000    
      4353 IM1H     218      IM1H     H5       HDR5D    0.192000       1.00800           0   0.00000       0.00000    
      4354 IM1H     218      IM1H     C4       CD2R5E    2.72410       11.6110           0  -1.25300       1.20000    
      4355 IM1H     218      IM1H     DC4      DRUD     -2.74710      0.400000           0   0.00000       0.00000    
      4356 IM1H     218      IM1H     H6       HDR5E    0.203000       1.00800           0   0.00000       0.00000    
      4357 IM1H     218      IM1H     N2       ND2R5C    2.04220       13.6070           0 -0.803000       1.00000    
      4358 IM1H     218      IM1H     DN2      DRUD     -2.19920      0.400000           0   0.00000       0.00000    
      4359 IM1H     218      IM1H     H7       HDP1A    0.363000       1.00800           0   0.00000       0.00000    
      4360 IM1H     218      IM1H     LPN21    LPD       0.00000       0.00000          -1   0.00000       0.00000    
      4361 IM1H     219      IM1H     C1       CD33F     2.48500       11.6110           0  -1.18100       1.10000    
      4362 IM1H     219      IM1H     DC1      DRUD     -2.66700      0.400000           0   0.00000       0.00000    
      4363 IM1H     219      IM1H     H1       HDA3A    0.135000       1.00800           0   0.00000       0.00000    
      4364 IM1H     219      IM1H     H2       HDA3A    0.135000       1.00800           0   0.00000       0.00000    
      4365 IM1H     219      IM1H     H3       HDA3A    0.135000       1.00800           0   0.00000       0.00000    
      4366 IM1H     219      IM1H     N1       ND2R5C    2.35720       13.6070           0 -0.803000       1.00000    
      4367 IM1H     219      IM1H     DN1      DRUD     -2.19920      0.400000           0   0.00000       0.00000    
      4368 IM1H     219      IM1H     C2       CD2R5D    2.44700       11.6110           0  -1.08300       1.10000    
      4369 IM1H     219      IM1H     DC2      DRUD     -2.55400      0.400000           0   0.00000       0.00000    
      4370 IM1H     219      IM1H     H4       HDR5D    0.195000       1.00800           0   0.00000       0.00000    
      4371 IM1H     219      IM1H     C3       CD2R5D    2.50700       11.6110           0  -1.08300       1.10000    
      4372 IM1H     219      IM1H     DC3      DRUD     -2.55400      0.400000           0   0.00000       0.00000    
      4373 IM1H     219      IM1H     H5       HDR5D    0.192000       1.00800           0   0.00000       0.00000    
      4374 IM1H     219      IM1H     C4       CD2R5E    2.72410       11.6110           0  -1.25300       1.20000    
      4375 IM1H     219      IM1H     DC4      DRUD     -2.74710      0.400000           0   0.00000       0.00000    
      4376 IM1H     219      IM1H     H6       HDR5E    0.203000       1.00800           0   0.00000       0.00000    
      4377 IM1H     219      IM1H     N2       ND2R5C    2.04220       13.6070           0 -0.803000       1.00000    
      4378 IM1H     219      IM1H     DN2      DRUD     -2.19920      0.400000           0   0.00000       0.00000    
      4379 IM1H     219      IM1H     H7       HDP1A    0.363000       1.00800           0   0.00000       0.00000    
      4380 IM1H     219      IM1H     LPN21    LPD       0.00000       0.00000          -1   0.00000       0.00000    
      4381 IM1H     220      IM1H     C1       CD33F     2.48500       11.6110           0  -1.18100       1.10000    
      4382 IM1H     220      IM1H     DC1      DRUD     -2.66700      0.400000           0   0.00000       0.00000    
      4383 IM1H     220      IM1H     H1       HDA3A    0.135000       1.00800           0   0.00000       0.00000    
      4384 IM1H     220      IM1H     H2       HDA3A    0.135000       1.00800           0   0.00000       0.00000    
      4385 IM1H     220      IM1H     H3       HDA3A    0.135000       1.00800           0   0.00000       0.00000    
      4386 IM1H     220      IM1H     N1       ND2R5C    2.35720       13.6070           0 -0.803000       1.00000    
      4387 IM1H     220      IM1H     DN1      DRUD     -2.19920      0.400000           0   0.00000       0.00000    
      4388 IM1H     220      IM1H     C2       CD2R5D    2.44700       11.6110           0  -1.08300       1.10000    
      4389 IM1H     220      IM1H     DC2      DRUD     -2.55400      0.400000           0   0.00000       0.00000    
      4390 IM1H     220      IM1H     H4       HDR5D    0.195000       1.00800           0   0.00000       0.00000    
      4391 IM1H     220      IM1H     C3       CD2R5D    2.50700       11.6110           0  -1.08300       1.10000    
      4392 IM1H     220      IM1H     DC3      DRUD     -2.55400      0.400000           0   0.00000       0.00000    
      4393 IM1H     220      IM1H     H5       HDR5D    0.192000       1.00800           0   0.00000       0.00000    
      4394 IM1H     220      IM1H     C4       CD2R5E    2.72410       11.6110           0  -1.25300       1.20000    
      4395 IM1H     220      IM1H     DC4      DRUD     -2.74710      0.400000           0   0.00000       0.00000    
      4396 IM1H     220      IM1H     H6       HDR5E    0.203000       1.00800           0   0.00000       0.00000    
      4397 IM1H     220      IM1H     N2       ND2R5C    2.04220       13.6070           0 -0.803000       1.00000    
      4398 IM1H     220      IM1H     DN2      DRUD     -2.19920      0.400000           0   0.00000       0.00000    
      4399 IM1H     220      IM1H     H7       HDP1A    0.363000       1.00800           0   0.00000       0.00000    
      4400 IM1H     220      IM1H     LPN21    LPD       0.00000       0.00000          -1   0.00000       0.00000    
      4401 IM1H     221      IM1H     C1       CD33F     2.48500       11.6110           0  -1.18100       1.10000    
      4402 IM1H     221      IM1H     DC1      DRUD     -2.66700      0.400000           0   0.00000       0.00000    
      4403 IM1H     221      IM1H     H1       HDA3A    0.135000       1.00800           0   0.00000       0.00000    
      4404 IM1H     221      IM1H     H2       HDA3A    0.135000       1.00800           0   0.00000       0.00000    
      4405 IM1H     221      IM1H     H3       HDA3A    0.135000       1.00800           0   0.00000       0.00000    
      4406 IM1H     221      IM1H     N1       ND2R5C    2.35720       13.6070           0 -0.803000       1.00000    
      4407 IM1H     221      IM1H     DN1      DRUD     -2.19920      0.400000           0   0.00000       0.00000    
      4408 IM1H     221      IM1H     C2       CD2R5D    2.44700       11.6110           0  -1.08300       1.10000    
      4409 IM1H     221      IM1H     DC2      DRUD     -2.55400      0.400000           0   0.00000       0.00000    
      4410 IM1H     221      IM1H     H4       HDR5D    0.195000       1.00800           0   0.00000       0.00000    
      4411 IM1H     221      IM1H     C3       CD2R5D    2.50700       11.6110           0  -1.08300       1.10000    
      4412 IM1H     221      IM1H     DC3      DRUD     -2.55400      0.400000           0   0.00000       0.00000    
      4413 IM1H     221      IM1H     H5       HDR5D    0.192000       1.00800           0   0.00000       0.00000    
      4414 IM1H     221      IM1H     C4       CD2R5E    2.72410       11.6110           0  -1.25300       1.20000    
      4415 IM1H     221      IM1H     DC4      DRUD     -2.74710      0.400000           0   0.00000       0.00000    
      4416 IM1H     221      IM1H     H6       HDR5E    0.203000       1.00800           0   0.00000       0.00000    
      4417 IM1H     221      IM1H     N2       ND2R5C    2.04220       13.6070           0 -0.803000       1.00000    
      4418 IM1H     221      IM1H     DN2      DRUD     -2.19920      0.400000           0   0.00000       0.00000    
      4419 IM1H     221      IM1H     H7       HDP1A    0.363000       1.00800           0   0.00000       0.00000    
      4420 IM1H     221      IM1H     LPN21    LPD       0.00000       0.00000          -1   0.00000       0.00000    
      4421 IM1H     222      IM1H     C1       CD33F     2.48500       11.6110           0  -1.18100       1.10000    
      4422 IM1H     222      IM1H     DC1      DRUD     -2.66700      0.400000           0   0.00000       0.00000    
      4423 IM1H     222      IM1H     H1       HDA3A    0.135000       1.00800           0   0.00000       0.00000    
      4424 IM1H     222      IM1H     H2       HDA3A    0.135000       1.00800           0   0.00000       0.00000    
      4425 IM1H     222      IM1H     H3       HDA3A    0.135000       1.00800           0   0.00000       0.00000    
      4426 IM1H     222      IM1H     N1       ND2R5C    2.35720       13.6070           0 -0.803000       1.00000    
      4427 IM1H     222      IM1H     DN1      DRUD     -2.19920      0.400000           0   0.00000       0.00000    
      4428 IM1H     222      IM1H     C2       CD2R5D    2.44700       11.6110           0  -1.08300       1.10000    
      4429 IM1H     222      IM1H     DC2      DRUD     -2.55400      0.400000           0   0.00000       0.00000    
      4430 IM1H     222      IM1H     H4       HDR5D    0.195000       1.00800           0   0.00000       0.00000    
      4431 IM1H     222      IM1H     C3       CD2R5D    2.50700       11.6110           0  -1.08300       1.10000    
      4432 IM1H     222      IM1H     DC3      DRUD     -2.55400      0.400000           0   0.00000       0.00000    
      4433 IM1H     222      IM1H     H5       HDR5D    0.192000       1.00800           0   0.00000       0.00000    
      4434 IM1H     222      IM1H     C4       CD2R5E    2.72410       11.6110           0  -1.25300       1.20000    
      4435 IM1H     222      IM1H     DC4      DRUD     -2.74710      0.400000           0   0.00000       0.00000    
      4436 IM1H     222      IM1H     H6       HDR5E    0.203000       1.00800           0   0.00000       0.00000    
      4437 IM1H     222      IM1H     N2       ND2R5C    2.04220       13.6070           0 -0.803000       1.00000    
      4438 IM1H     222      IM1H     DN2      DRUD     -2.19920      0.400000           0   0.00000       0.00000    
      4439 IM1H     222      IM1H     H7       HDP1A    0.363000       1.00800           0   0.00000       0.00000    
      4440 IM1H     222      IM1H     LPN21    LPD       0.00000       0.00000          -1   0.00000       0.00000    
      4441 IM1H     223      IM1H     C1       CD33F     2.48500       11.6110           0  -1.18100       1.10000    
      4442 IM1H     223      IM1H     DC1      DRUD     -2.66700      0.400000           0   0.00000       0.00000    
      4443 IM1H     223      IM1H     H1       HDA3A    0.135000       1.00800           0   0.00000       0.00000    
      4444 IM1H     223      IM1H     H2       HDA3A    0.135000       1.00800           0   0.00000       0.00000    
      4445 IM1H     223      IM1H     H3       HDA3A    0.135000       1.00800           0   0.00000       0.00000    
      4446 IM1H     223      IM1H     N1       ND2R5C    2.35720       13.6070           0 -0.803000       1.00000    
      4447 IM1H     223      IM1H     DN1      DRUD     -2.19920      0.400000           0   0.00000       0.00000    
      4448 IM1H     223      IM1H     C2       CD2R5D    2.44700       11.6110           0  -1.08300       1.10000    
      4449 IM1H     223      IM1H     DC2      DRUD     -2.55400      0.400000           0   0.00000       0.00000    
      4450 IM1H     223      IM1H     H4       HDR5D    0.195000       1.00800           0   0.00000       0.00000    
      4451 IM1H     223      IM1H     C3       CD2R5D    2.50700       11.6110           0  -1.08300       1.10000    
      4452 IM1H     223      IM1H     DC3      DRUD     -2.55400      0.400000           0   0.00000       0.00000    
      4453 IM1H     223      IM1H     H5       HDR5D    0.192000       1.00800           0   0.00000       0.00000    
      4454 IM1H     223      IM1H     C4       CD2R5E    2.72410       11.6110           0  -1.25300       1.20000    
      4455 IM1H     223      IM1H     DC4      DRUD     -2.74710      0.400000           0   0.00000       0.00000    
      4456 IM1H     223      IM1H     H6       HDR5E    0.203000       1.00800           0   0.00000       0.00000    
      4457 IM1H     223      IM1H     N2       ND2R5C    2.04220       13.6070           0 -0.803000       1.00000    
      4458 IM1H     223      IM1H     DN2      DRUD     -2.19920      0.400000           0   0.00000       0.00000    
      4459 IM1H     223      IM1H     H7       HDP1A    0.363000       1.00800           0   0.00000       0.00000    
      4460 IM1H     223      IM1H     LPN21    LPD       0.00000       0.00000          -1   0.00000       0.00000    
      4461 IM1H     224      IM1H     C1       CD33F     2.48500       11.6110           0  -1.18100       1.10000    
      4462 IM1H     224      IM1H     DC1      DRUD     -2.66700      0.400000           0   0.00000       0.00000    
      4463 IM1H     224      IM1H     H1       HDA3A    0.135000       1.00800           0   0.00000       0.00000    
      4464 IM1H     224      IM1H     H2       HDA3A    0.135000       1.00800           0   0.00000       0.00000    
      4465 IM1H     224      IM1H     H3       HDA3A    0.135000       1.00800           0   0.00000       0.00000    
      4466 IM1H     224      IM1H     N1       ND2R5C    2.35720       13.6070           0 -0.803000       1.00000    
      4467 IM1H     224      IM1H     DN1      DRUD     -2.19920      0.400000           0   0.00000       0.00000    
      4468 IM1H     224      IM1H     C2       CD2R5D    2.44700       11.6110           0  -1.08300       1.10000    
      4469 IM1H     224      IM1H     DC2      DRUD     -2.55400      0.400000           0   0.00000       0.00000    
      4470 IM1H     224      IM1H     H4       HDR5D    0.195000       1.00800           0   0.00000       0.00000    
      4471 IM1H     224      IM1H     C3       CD2R5D    2.50700       11.6110           0  -1.08300       1.10000    
      4472 IM1H     224      IM1H     DC3      DRUD     -2.55400      0.400000           0   0.00000       0.00000    
      4473 IM1H     224      IM1H     H5       HDR5D    0.192000       1.00800           0   0.00000       0.00000    
      4474 IM1H     224      IM1H     C4       CD2R5E    2.72410       11.6110           0  -1.25300       1.20000    
      4475 IM1H     224      IM1H     DC4      DRUD     -2.74710      0.400000           0   0.00000       0.00000    
      4476 IM1H     224      IM1H     H6       HDR5E    0.203000       1.00800           0   0.00000       0.00000    
      4477 IM1H     224      IM1H     N2       ND2R5C    2.04220       13.6070           0 -0.803000       1.00000    
      4478 IM1H     224      IM1H     DN2      DRUD     -2.19920      0.400000           0   0.00000       0.00000    
      4479 IM1H     224      IM1H     H7       HDP1A    0.363000       1.00800           0   0.00000       0.00000    
      4480 IM1H     224      IM1H     LPN21    LPD       0.00000       0.00000          -1   0.00000       0.00000    
      4481 IM1H     225      IM1H     C1       CD33F     2.48500       11.6110           0  -1.18100       1.10000    
      4482 IM1H     225      IM1H     DC1      DRUD     -2.66700      0.400000           0   0.00000       0.00000    
      4483 IM1H     225      IM1H     H1       HDA3A    0.135000       1.00800           0   0.00000       0.00000    
      4484 IM1H     225      IM1H     H2       HDA3A    0.135000       1.00800           0   0.00000       0.00000    
      4485 IM1H     225      IM1H     H3       HDA3A    0.135000       1.00800           0   0.00000       0.00000    
      4486 IM1H     225      IM1H     N1       ND2R5C    2.35720       13.6070           0 -0.803000       1.00000    
      4487 IM1H     225      IM1H     DN1      DRUD     -2.19920      0.400000           0   0.00000       0.00000    
      4488 IM1H     225      IM1H     C2       CD2R5D    2.44700       11.6110           0  -1.08300       1.10000    
      4489 IM1H     225      IM1H     DC2      DRUD     -2.55400      0.400000           0   0.00000       0.00000    
      4490 IM1H     225      IM1H     H4       HDR5D    0.195000       1.00800           0   0.00000       0.00000    
      4491 IM1H     225      IM1H     C3       CD2R5D    2.50700       11.6110           0  -1.08300       1.10000    
      4492 IM1H     225      IM1H     DC3      DRUD     -2.55400      0.400000           0   0.00000       0.00000    
      4493 IM1H     225      IM1H     H5       HDR5D    0.192000       1.00800           0   0.00000       0.00000    
      4494 IM1H     225      IM1H     C4       CD2R5E    2.72410       11.6110           0  -1.25300       1.20000    
      4495 IM1H     225      IM1H     DC4      DRUD     -2.74710      0.400000           0   0.00000       0.00000    
      4496 IM1H     225      IM1H     H6       HDR5E    0.203000       1.00800           0   0.00000       0.00000    
      4497 IM1H     225      IM1H     N2       ND2R5C    2.04220       13.6070           0 -0.803000       1.00000    
      4498 IM1H     225      IM1H     DN2      DRUD     -2.19920      0.400000           0   0.00000       0.00000    
      4499 IM1H     225      IM1H     H7       HDP1A    0.363000       1.00800           0   0.00000       0.00000    
      4500 IM1H     225      IM1H     LPN21    LPD       0.00000       0.00000          -1   0.00000       0.00000    
      4501 IM1H     226      IM1H     C1       CD33F     2.48500       11.6110           0  -1.18100       1.10000    
      4502 IM1H     226      IM1H     DC1      DRUD     -2.66700      0.400000           0   0.00000       0.00000    
      4503 IM1H     226      IM1H     H1       HDA3A    0.135000       1.00800           0   0.00000       0.00000    
      4504 IM1H     226      IM1H     H2       HDA3A    0.135000       1.00800           0   0.00000       0.00000    
      4505 IM1H     226      IM1H     H3       HDA3A    0.135000       1.00800           0   0.00000       0.00000    
      4506 IM1H     226      IM1H     N1       ND2R5C    2.35720       13.6070           0 -0.803000       1.00000    
      4507 IM1H     226      IM1H     DN1      DRUD     -2.19920      0.400000           0   0.00000       0.00000    
      4508 IM1H     226      IM1H     C2       CD2R5D    2.44700       11.6110           0  -1.08300       1.10000    
      4509 IM1H     226      IM1H     DC2      DRUD     -2.55400      0.400000           0   0.00000       0.00000    
      4510 IM1H     226      IM1H     H4       HDR5D    0.195000       1.00800           0   0.00000       0.00000    
      4511 IM1H     226      IM1H     C3       CD2R5D    2.50700       11.6110           0  -1.08300       1.10000    
      4512 IM1H     226      IM1H     DC3      DRUD     -2.55400      0.400000           0   0.00000       0.00000    
      4513 IM1H     226      IM1H     H5       HDR5D    0.192000       1.00800           0   0.00000       0.00000    
      4514 IM1H     226      IM1H     C4       CD2R5E    2.72410       11.6110           0  -1.25300       1.20000    
      4515 IM1H     226      IM1H     DC4      DRUD     -2.74710      0.400000           0   0.00000       0.00000    
      4516 IM1H     226      IM1H     H6       HDR5E    0.203000       1.00800           0   0.00000       0.00000    
      4517 IM1H     226      IM1H     N2       ND2R5C    2.04220       13.6070           0 -0.803000       1.00000    
      4518 IM1H     226      IM1H     DN2      DRUD     -2.19920      0.400000           0   0.00000       0.00000    
      4519 IM1H     226      IM1H     H7       HDP1A    0.363000       1.00800           0   0.00000       0.00000    
      4520 IM1H     226      IM1H     LPN21    LPD       0.00000       0.00000          -1   0.00000       0.00000    
      4521 IM1H     227      IM1H     C1       CD33F     2.48500       11.6110           0  -1.18100       1.10000    
      4522 IM1H     227      IM1H     DC1      DRUD     -2.66700      0.400000           0   0.00000       0.00000    
      4523 IM1H     227      IM1H     H1       HDA3A    0.135000       1.00800           0   0.00000       0.00000    
      4524 IM1H     227      IM1H     H2       HDA3A    0.135000       1.00800           0   0.00000       0.00000    
      4525 IM1H     227      IM1H     H3       HDA3A    0.135000       1.00800           0   0.00000       0.00000    
      4526 IM1H     227      IM1H     N1       ND2R5C    2.35720       13.6070           0 -0.803000       1.00000    
      4527 IM1H     227      IM1H     DN1      DRUD     -2.19920      0.400000           0   0.00000       0.00000    
      4528 IM1H     227      IM1H     C2       CD2R5D    2.44700       11.6110           0  -1.08300       1.10000    
      4529 IM1H     227      IM1H     DC2      DRUD     -2.55400      0.400000           0   0.00000       0.00000    
      4530 IM1H     227      IM1H     H4       HDR5D    0.195000       1.00800           0   0.00000       0.00000    
      4531 IM1H     227      IM1H     C3       CD2R5D    2.50700       11.6110           0  -1.08300       1.10000    
      4532 IM1H     227      IM1H     DC3      DRUD     -2.55400      0.400000           0   0.00000       0.00000    
      4533 IM1H     227      IM1H     H5       HDR5D    0.192000       1.00800           0   0.00000       0.00000    
      4534 IM1H     227      IM1H     C4       CD2R5E    2.72410       11.6110           0  -1.25300       1.20000    
      4535 IM1H     227      IM1H     DC4      DRUD     -2.74710      0.400000           0   0.00000       0.00000    
      4536 IM1H     227      IM1H     H6       HDR5E    0.203000       1.00800           0   0.00000       0.00000    
      4537 IM1H     227      IM1H     N2       ND2R5C    2.04220       13.6070           0 -0.803000       1.00000    
      4538 IM1H     227      IM1H     DN2      DRUD     -2.19920      0.400000           0   0.00000       0.00000    
      4539 IM1H     227      IM1H     H7       HDP1A    0.363000       1.00800           0   0.00000       0.00000    
      4540 IM1H     227      IM1H     LPN21    LPD       0.00000       0.00000          -1   0.00000       0.00000    
      4541 IM1H     228      IM1H     C1       CD33F     2.48500       11.6110           0  -1.18100       1.10000    
      4542 IM1H     228      IM1H     DC1      DRUD     -2.66700      0.400000           0   0.00000       0.00000    
      4543 IM1H     228      IM1H     H1       HDA3A    0.135000       1.00800           0   0.00000       0.00000    
      4544 IM1H     228      IM1H     H2       HDA3A    0.135000       1.00800           0   0.00000       0.00000    
      4545 IM1H     228      IM1H     H3       HDA3A    0.135000       1.00800           0   0.00000       0.00000    
      4546 IM1H     228      IM1H     N1       ND2R5C    2.35720       13.6070           0 -0.803000       1.00000    
      4547 IM1H     228      IM1H     DN1      DRUD     -2.19920      0.400000           0   0.00000       0.00000    
      4548 IM1H     228      IM1H     C2       CD2R5D    2.44700       11.6110           0  -1.08300       1.10000    
      4549 IM1H     228      IM1H     DC2      DRUD     -2.55400      0.400000           0   0.00000       0.00000    
      4550 IM1H     228      IM1H     H4       HDR5D    0.195000       1.00800           0   0.00000       0.00000    
      4551 IM1H     228      IM1H     C3       CD2R5D    2.50700       11.6110           0  -1.08300       1.10000    
      4552 IM1H     228      IM1H     DC3      DRUD     -2.55400      0.400000           0   0.00000       0.00000    
      4553 IM1H     228      IM1H     H5       HDR5D    0.192000       1.00800           0   0.00000       0.00000    
      4554 IM1H     228      IM1H     C4       CD2R5E    2.72410       11.6110           0  -1.25300       1.20000    
      4555 IM1H     228      IM1H     DC4      DRUD     -2.74710      0.400000           0   0.00000       0.00000    
      4556 IM1H     228      IM1H     H6       HDR5E    0.203000       1.00800           0   0.00000       0.00000    
      4557 IM1H     228      IM1H     N2       ND2R5C    2.04220       13.6070           0 -0.803000       1.00000    
      4558 IM1H     228      IM1H     DN2      DRUD     -2.19920      0.400000           0   0.00000       0.00000    
      4559 IM1H     228      IM1H     H7       HDP1A    0.363000       1.00800           0   0.00000       0.00000    
      4560 IM1H     228      IM1H     LPN21    LPD       0.00000       0.00000          -1   0.00000       0.00000    
      4561 IM1H     229      IM1H     C1       CD33F     2.48500       11.6110           0  -1.18100       1.10000    
      4562 IM1H     229      IM1H     DC1      DRUD     -2.66700      0.400000           0   0.00000       0.00000    
      4563 IM1H     229      IM1H     H1       HDA3A    0.135000       1.00800           0   0.00000       0.00000    
      4564 IM1H     229      IM1H     H2       HDA3A    0.135000       1.00800           0   0.00000       0.00000    
      4565 IM1H     229      IM1H     H3       HDA3A    0.135000       1.00800           0   0.00000       0.00000    
      4566 IM1H     229      IM1H     N1       ND2R5C    2.35720       13.6070           0 -0.803000       1.00000    
      4567 IM1H     229      IM1H     DN1      DRUD     -2.19920      0.400000           0   0.00000       0.00000    
      4568 IM1H     229      IM1H     C2       CD2R5D    2.44700       11.6110           0  -1.08300       1.10000    
      4569 IM1H     229      IM1H     DC2      DRUD     -2.55400      0.400000           0   0.00000       0.00000    
      4570 IM1H     229      IM1H     H4       HDR5D    0.195000       1.00800           0   0.00000       0.00000    
      4571 IM1H     229      IM1H     C3       CD2R5D    2.50700       11.6110           0  -1.08300       1.10000    
      4572 IM1H     229      IM1H     DC3      DRUD     -2.55400      0.400000           0   0.00000       0.00000    
      4573 IM1H     229      IM1H     H5       HDR5D    0.192000       1.00800           0   0.00000       0.00000    
      4574 IM1H     229      IM1H     C4       CD2R5E    2.72410       11.6110           0  -1.25300       1.20000    
      4575 IM1H     229      IM1H     DC4      DRUD     -2.74710      0.400000           0   0.00000       0.00000    
      4576 IM1H     229      IM1H     H6       HDR5E    0.203000       1.00800           0   0.00000       0.00000    
      4577 IM1H     229      IM1H     N2       ND2R5C    2.04220       13.6070           0 -0.803000       1.00000    
      4578 IM1H     229      IM1H     DN2      DRUD     -2.19920      0.400000           0   0.00000       0.00000    
      4579 IM1H     229      IM1H     H7       HDP1A    0.363000       1.00800           0   0.00000       0.00000    
      4580 IM1H     229      IM1H     LPN21    LPD       0.00000       0.00000          -1   0.00000       0.00000    
      4581 IM1H     230      IM1H     C1       CD33F     2.48500       11.6110           0  -1.18100       1.10000    
      4582 IM1H     230      IM1H     DC1      DRUD     -2.66700      0.400000           0   0.00000       0.00000    
      4583 IM1H     230      IM1H     H1       HDA3A    0.135000       1.00800           0   0.00000       0.00000    
      4584 IM1H     230      IM1H     H2       HDA3A    0.135000       1.00800           0   0.00000       0.00000    
      4585 IM1H     230      IM1H     H3       HDA3A    0.135000       1.00800           0   0.00000       0.00000    
      4586 IM1H     230      IM1H     N1       ND2R5C    2.35720       13.6070           0 -0.803000       1.00000    
      4587 IM1H     230      IM1H     DN1      DRUD     -2.19920      0.400000           0   0.00000       0.00000    
      4588 IM1H     230      IM1H     C2       CD2R5D    2.44700       11.6110           0  -1.08300       1.10000    
      4589 IM1H     230      IM1H     DC2      DRUD     -2.55400      0.400000           0   0.00000       0.00000    
      4590 IM1H     230      IM1H     H4       HDR5D    0.195000       1.00800           0   0.00000       0.00000    
      4591 IM1H     230      IM1H     C3       CD2R5D    2.50700       11.6110           0  -1.08300       1.10000    
      4592 IM1H     230      IM1H     DC3      DRUD     -2.55400      0.400000           0   0.00000       0.00000    
      4593 IM1H     230      IM1H     H5       HDR5D    0.192000       1.00800           0   0.00000       0.00000    
      4594 IM1H     230      IM1H     C4       CD2R5E    2.72410       11.6110           0  -1.25300       1.20000    
      4595 IM1H     230      IM1H     DC4      DRUD     -2.74710      0.400000           0   0.00000       0.00000    
      4596 IM1H     230      IM1H     H6       HDR5E    0.203000       1.00800           0   0.00000       0.00000    
      4597 IM1H     230      IM1H     N2       ND2R5C    2.04220       13.6070           0 -0.803000       1.00000    
      4598 IM1H     230      IM1H     DN2      DRUD     -2.19920      0.400000           0   0.00000       0.00000    
      4599 IM1H     230      IM1H     H7       HDP1A    0.363000       1.00800           0   0.00000       0.00000    
      4600 IM1H     230      IM1H     LPN21    LPD       0.00000       0.00000          -1   0.00000       0.00000    
      4601 IM1H     231      IM1H     C1       CD33F     2.48500       11.6110           0  -1.18100       1.10000    
      4602 IM1H     231      IM1H     DC1      DRUD     -2.66700      0.400000           0   0.00000       0.00000    
      4603 IM1H     231      IM1H     H1       HDA3A    0.135000       1.00800           0   0.00000       0.00000    
      4604 IM1H     231      IM1H     H2       HDA3A    0.135000       1.00800           0   0.00000       0.00000    
      4605 IM1H     231      IM1H     H3       HDA3A    0.135000       1.00800           0   0.00000       0.00000    
      4606 IM1H     231      IM1H     N1       ND2R5C    2.35720       13.6070           0 -0.803000       1.00000    
      4607 IM1H     231      IM1H     DN1      DRUD     -2.19920      0.400000           0   0.00000       0.00000    
      4608 IM1H     231      IM1H     C2       CD2R5D    2.44700       11.6110           0  -1.08300       1.10000    
      4609 IM1H     231      IM1H     DC2      DRUD     -2.55400      0.400000           0   0.00000       0.00000    
      4610 IM1H     231      IM1H     H4       HDR5D    0.195000       1.00800           0   0.00000       0.00000    
      4611 IM1H     231      IM1H     C3       CD2R5D    2.50700       11.6110           0  -1.08300       1.10000    
      4612 IM1H     231      IM1H     DC3      DRUD     -2.55400      0.400000           0   0.00000       0.00000    
      4613 IM1H     231      IM1H     H5       HDR5D    0.192000       1.00800           0   0.00000       0.00000    
      4614 IM1H     231      IM1H     C4       CD2R5E    2.72410       11.6110           0  -1.25300       1.20000    
      4615 IM1H     231      IM1H     DC4      DRUD     -2.74710      0.400000           0   0.00000       0.00000    
      4616 IM1H     231      IM1H     H6       HDR5E    0.203000       1.00800           0   0.00000       0.00000    
      4617 IM1H     231      IM1H     N2       ND2R5C    2.04220       13.6070           0 -0.803000       1.00000    
      4618 IM1H     231      IM1H     DN2      DRUD     -2.19920      0.400000           0   0.00000       0.00000    
      4619 IM1H     231      IM1H     H7       HDP1A    0.363000       1.00800           0   0.00000       0.00000    
      4620 IM1H     231      IM1H     LPN21    LPD       0.00000       0.00000          -1   0.00000       0.00000    
      4621 IM1H     232      IM1H     C1       CD33F     2.48500       11.6110           0  -1.18100       1.10000    
      4622 IM1H     232      IM1H     DC1      DRUD     -2.66700      0.400000           0   0.00000       0.00000    
      4623 IM1H     232      IM1H     H1       HDA3A    0.135000       1.00800           0   0.00000       0.00000    
      4624 IM1H     232      IM1H     H2       HDA3A    0.135000       1.00800           0   0.00000       0.00000    
      4625 IM1H     232      IM1H     H3       HDA3A    0.135000       1.00800           0   0.00000       0.00000    
      4626 IM1H     232      IM1H     N1       ND2R5C    2.35720       13.6070           0 -0.803000       1.00000    
      4627 IM1H     232      IM1H     DN1      DRUD     -2.19920      0.400000           0   0.00000       0.00000    
      4628 IM1H     232      IM1H     C2       CD2R5D    2.44700       11.6110           0  -1.08300       1.10000    
      4629 IM1H     232      IM1H     DC2      DRUD     -2.55400      0.400000           0   0.00000       0.00000    
      4630 IM1H     232      IM1H     H4       HDR5D    0.195000       1.00800           0   0.00000       0.00000    
      4631 IM1H     232      IM1H     C3       CD2R5D    2.50700       11.6110           0  -1.08300       1.10000    
      4632 IM1H     232      IM1H     DC3      DRUD     -2.55400      0.400000           0   0.00000       0.00000    
      4633 IM1H     232      IM1H     H5       HDR5D    0.192000       1.00800           0   0.00000       0.00000    
      4634 IM1H     232      IM1H     C4       CD2R5E    2.72410       11.6110           0  -1.25300       1.20000    
      4635 IM1H     232      IM1H     DC4      DRUD     -2.74710      0.400000           0   0.00000       0.00000    
      4636 IM1H     232      IM1H     H6       HDR5E    0.203000       1.00800           0   0.00000       0.00000    
      4637 IM1H     232      IM1H     N2       ND2R5C    2.04220       13.6070           0 -0.803000       1.00000    
      4638 IM1H     232      IM1H     DN2      DRUD     -2.19920      0.400000           0   0.00000       0.00000    
      4639 IM1H     232      IM1H     H7       HDP1A    0.363000       1.00800           0   0.00000       0.00000    
      4640 IM1H     232      IM1H     LPN21    LPD       0.00000       0.00000          -1   0.00000       0.00000    
      4641 IM1H     233      IM1H     C1       CD33F     2.48500       11.6110           0  -1.18100       1.10000    
      4642 IM1H     233      IM1H     DC1      DRUD     -2.66700      0.400000           0   0.00000       0.00000    
      4643 IM1H     233      IM1H     H1       HDA3A    0.135000       1.00800           0   0.00000       0.00000    
      4644 IM1H     233      IM1H     H2       HDA3A    0.135000       1.00800           0   0.00000       0.00000    
      4645 IM1H     233      IM1H     H3       HDA3A    0.135000       1.00800           0   0.00000       0.00000    
      4646 IM1H     233      IM1H     N1       ND2R5C    2.35720       13.6070           0 -0.803000       1.00000    
      4647 IM1H     233      IM1H     DN1      DRUD     -2.19920      0.400000           0   0.00000       0.00000    
      4648 IM1H     233      IM1H     C2       CD2R5D    2.44700       11.6110           0  -1.08300       1.10000    
      4649 IM1H     233      IM1H     DC2      DRUD     -2.55400      0.400000           0   0.00000       0.00000    
      4650 IM1H     233      IM1H     H4       HDR5D    0.195000       1.00800           0   0.00000       0.00000    
      4651 IM1H     233      IM1H     C3       CD2R5D    2.50700       11.6110           0  -1.08300       1.10000    
      4652 IM1H     233      IM1H     DC3      DRUD     -2.55400      0.400000           0   0.00000       0.00000    
      4653 IM1H     233      IM1H     H5       HDR5D    0.192000       1.00800           0   0.00000       0.00000    
      4654 IM1H     233      IM1H     C4       CD2R5E    2.72410       11.6110           0  -1.25300       1.20000    
      4655 IM1H     233      IM1H     DC4      DRUD     -2.74710      0.400000           0   0.00000       0.00000    
      4656 IM1H     233      IM1H     H6       HDR5E    0.203000       1.00800           0   0.00000       0.00000    
      4657 IM1H     233      IM1H     N2       ND2R5C    2.04220       13.6070           0 -0.803000       1.00000    
      4658 IM1H     233      IM1H     DN2      DRUD     -2.19920      0.400000           0   0.00000       0.00000    
      4659 IM1H     233      IM1H     H7       HDP1A    0.363000       1.00800           0   0.00000       0.00000    
      4660 IM1H     233      IM1H     LPN21    LPD       0.00000       0.00000          -1   0.00000       0.00000    
      4661 IM1H     234      IM1H     C1       CD33F     2.48500       11.6110           0  -1.18100       1.10000    
      4662 IM1H     234      IM1H     DC1      DRUD     -2.66700      0.400000           0   0.00000       0.00000    
      4663 IM1H     234      IM1H     H1       HDA3A    0.135000       1.00800           0   0.00000       0.00000    
      4664 IM1H     234      IM1H     H2       HDA3A    0.135000       1.00800           0   0.00000       0.00000    
      4665 IM1H     234      IM1H     H3       HDA3A    0.135000       1.00800           0   0.00000       0.00000    
      4666 IM1H     234      IM1H     N1       ND2R5C    2.35720       13.6070           0 -0.803000       1.00000    
      4667 IM1H     234      IM1H     DN1      DRUD     -2.19920      0.400000           0   0.00000       0.00000    
      4668 IM1H     234      IM1H     C2       CD2R5D    2.44700       11.6110           0  -1.08300       1.10000    
      4669 IM1H     234      IM1H     DC2      DRUD     -2.55400      0.400000           0   0.00000       0.00000    
      4670 IM1H     234      IM1H     H4       HDR5D    0.195000       1.00800           0   0.00000       0.00000    
      4671 IM1H     234      IM1H     C3       CD2R5D    2.50700       11.6110           0  -1.08300       1.10000    
      4672 IM1H     234      IM1H     DC3      DRUD     -2.55400      0.400000           0   0.00000       0.00000    
      4673 IM1H     234      IM1H     H5       HDR5D    0.192000       1.00800           0   0.00000       0.00000    
      4674 IM1H     234      IM1H     C4       CD2R5E    2.72410       11.6110           0  -1.25300       1.20000    
      4675 IM1H     234      IM1H     DC4      DRUD     -2.74710      0.400000           0   0.00000       0.00000    
      4676 IM1H     234      IM1H     H6       HDR5E    0.203000       1.00800           0   0.00000       0.00000    
      4677 IM1H     234      IM1H     N2       ND2R5C    2.04220       13.6070           0 -0.803000       1.00000    
      4678 IM1H     234      IM1H     DN2      DRUD     -2.19920      0.400000           0   0.00000       0.00000    
      4679 IM1H     234      IM1H     H7       HDP1A    0.363000       1.00800           0   0.00000       0.00000    
      4680 IM1H     234      IM1H     LPN21    LPD       0.00000       0.00000          -1   0.00000       0.00000    
      4681 IM1H     235      IM1H     C1       CD33F     2.48500       11.6110           0  -1.18100       1.10000    
      4682 IM1H     235      IM1H     DC1      DRUD     -2.66700      0.400000           0   0.00000       0.00000    
      4683 IM1H     235      IM1H     H1       HDA3A    0.135000       1.00800           0   0.00000       0.00000    
      4684 IM1H     235      IM1H     H2       HDA3A    0.135000       1.00800           0   0.00000       0.00000    
      4685 IM1H     235      IM1H     H3       HDA3A    0.135000       1.00800           0   0.00000       0.00000    
      4686 IM1H     235      IM1H     N1       ND2R5C    2.35720       13.6070           0 -0.803000       1.00000    
      4687 IM1H     235      IM1H     DN1      DRUD     -2.19920      0.400000           0   0.00000       0.00000    
      4688 IM1H     235      IM1H     C2       CD2R5D    2.44700       11.6110           0  -1.08300       1.10000    
      4689 IM1H     235      IM1H     DC2      DRUD     -2.55400      0.400000           0   0.00000       0.00000    
      4690 IM1H     235      IM1H     H4       HDR5D    0.195000       1.00800           0   0.00000       0.00000    
      4691 IM1H     235      IM1H     C3       CD2R5D    2.50700       11.6110           0  -1.08300       1.10000    
      4692 IM1H     235      IM1H     DC3      DRUD     -2.55400      0.400000           0   0.00000       0.00000    
      4693 IM1H     235      IM1H     H5       HDR5D    0.192000       1.00800           0   0.00000       0.00000    
      4694 IM1H     235      IM1H     C4       CD2R5E    2.72410       11.6110           0  -1.25300       1.20000    
      4695 IM1H     235      IM1H     DC4      DRUD     -2.74710      0.400000           0   0.00000       0.00000    
      4696 IM1H     235      IM1H     H6       HDR5E    0.203000       1.00800           0   0.00000       0.00000    
      4697 IM1H     235      IM1H     N2       ND2R5C    2.04220       13.6070           0 -0.803000       1.00000    
      4698 IM1H     235      IM1H     DN2      DRUD     -2.19920      0.400000           0   0.00000       0.00000    
      4699 IM1H     235      IM1H     H7       HDP1A    0.363000       1.00800           0   0.00000       0.00000    
      4700 IM1H     235      IM1H     LPN21    LPD       0.00000       0.00000          -1   0.00000       0.00000    
      4701 IM1H     236      IM1H     C1       CD33F     2.48500       11.6110           0  -1.18100       1.10000    
      4702 IM1H     236      IM1H     DC1      DRUD     -2.66700      0.400000           0   0.00000       0.00000    
      4703 IM1H     236      IM1H     H1       HDA3A    0.135000       1.00800           0   0.00000       0.00000    
      4704 IM1H     236      IM1H     H2       HDA3A    0.135000       1.00800           0   0.00000       0.00000    
      4705 IM1H     236      IM1H     H3       HDA3A    0.135000       1.00800           0   0.00000       0.00000    
      4706 IM1H     236      IM1H     N1       ND2R5C    2.35720       13.6070           0 -0.803000       1.00000    
      4707 IM1H     236      IM1H     DN1      DRUD     -2.19920      0.400000           0   0.00000       0.00000    
      4708 IM1H     236      IM1H     C2       CD2R5D    2.44700       11.6110           0  -1.08300       1.10000    
      4709 IM1H     236      IM1H     DC2      DRUD     -2.55400      0.400000           0   0.00000       0.00000    
      4710 IM1H     236      IM1H     H4       HDR5D    0.195000       1.00800           0   0.00000       0.00000    
      4711 IM1H     236      IM1H     C3       CD2R5D    2.50700       11.6110           0  -1.08300       1.10000    
      4712 IM1H     236      IM1H     DC3      DRUD     -2.55400      0.400000           0   0.00000       0.00000    
      4713 IM1H     236      IM1H     H5       HDR5D    0.192000       1.00800           0   0.00000       0.00000    
      4714 IM1H     236      IM1H     C4       CD2R5E    2.72410       11.6110           0  -1.25300       1.20000    
      4715 IM1H     236      IM1H     DC4      DRUD     -2.74710      0.400000           0   0.00000       0.00000    
      4716 IM1H     236      IM1H     H6       HDR5E    0.203000       1.00800           0   0.00000       0.00000    
      4717 IM1H     236      IM1H     N2       ND2R5C    2.04220       13.6070           0 -0.803000       1.00000    
      4718 IM1H     236      IM1H     DN2      DRUD     -2.19920      0.400000           0   0.00000       0.00000    
      4719 IM1H     236      IM1H     H7       HDP1A    0.363000       1.00800           0   0.00000       0.00000    
      4720 IM1H     236      IM1H     LPN21    LPD       0.00000       0.00000          -1   0.00000       0.00000    
      4721 IM1H     237      IM1H     C1       CD33F     2.48500       11.6110           0  -1.18100       1.10000    
      4722 IM1H     237      IM1H     DC1      DRUD     -2.66700      0.400000           0   0.00000       0.00000    
      4723 IM1H     237      IM1H     H1       HDA3A    0.135000       1.00800           0   0.00000       0.00000    
      4724 IM1H     237      IM1H     H2       HDA3A    0.135000       1.00800           0   0.00000       0.00000    
      4725 IM1H     237      IM1H     H3       HDA3A    0.135000       1.00800           0   0.00000       0.00000    
      4726 IM1H     237      IM1H     N1       ND2R5C    2.35720       13.6070           0 -0.803000       1.00000    
      4727 IM1H     237      IM1H     DN1      DRUD     -2.19920      0.400000           0   0.00000       0.00000    
      4728 IM1H     237      IM1H     C2       CD2R5D    2.44700       11.6110           0  -1.08300       1.10000    
      4729 IM1H     237      IM1H     DC2      DRUD     -2.55400      0.400000           0   0.00000       0.00000    
      4730 IM1H     237      IM1H     H4       HDR5D    0.195000       1.00800           0   0.00000       0.00000    
      4731 IM1H     237      IM1H     C3       CD2R5D    2.50700       11.6110           0  -1.08300       1.10000    
      4732 IM1H     237      IM1H     DC3      DRUD     -2.55400      0.400000           0   0.00000       0.00000    
      4733 IM1H     237      IM1H     H5       HDR5D    0.192000       1.00800           0   0.00000       0.00000    
      4734 IM1H     237      IM1H     C4       CD2R5E    2.72410       11.6110           0  -1.25300       1.20000    
      4735 IM1H     237      IM1H     DC4      DRUD     -2.74710      0.400000           0   0.00000       0.00000    
      4736 IM1H     237      IM1H     H6       HDR5E    0.203000       1.00800           0   0.00000       0.00000    
      4737 IM1H     237      IM1H     N2       ND2R5C    2.04220       13.6070           0 -0.803000       1.00000    
      4738 IM1H     237      IM1H     DN2      DRUD     -2.19920      0.400000           0   0.00000       0.00000    
      4739 IM1H     237      IM1H     H7       HDP1A    0.363000       1.00800           0   0.00000       0.00000    
      4740 IM1H     237      IM1H     LPN21    LPD       0.00000       0.00000          -1   0.00000       0.00000    
      4741 IM1H     238      IM1H     C1       CD33F     2.48500       11.6110           0  -1.18100       1.10000    
      4742 IM1H     238      IM1H     DC1      DRUD     -2.66700      0.400000           0   0.00000       0.00000    
      4743 IM1H     238      IM1H     H1       HDA3A    0.135000       1.00800           0   0.00000       0.00000    
      4744 IM1H     238      IM1H     H2       HDA3A    0.135000       1.00800           0   0.00000       0.00000    
      4745 IM1H     238      IM1H     H3       HDA3A    0.135000       1.00800           0   0.00000       0.00000    
      4746 IM1H     238      IM1H     N1       ND2R5C    2.35720       13.6070           0 -0.803000       1.00000    
      4747 IM1H     238      IM1H     DN1      DRUD     -2.19920      0.400000           0   0.00000       0.00000    
      4748 IM1H     238      IM1H     C2       CD2R5D    2.44700       11.6110           0  -1.08300       1.10000    
      4749 IM1H     238      IM1H     DC2      DRUD     -2.55400      0.400000           0   0.00000       0.00000    
      4750 IM1H     238      IM1H     H4       HDR5D    0.195000       1.00800           0   0.00000       0.00000    
      4751 IM1H     238      IM1H     C3       CD2R5D    2.50700       11.6110           0  -1.08300       1.10000    
      4752 IM1H     238      IM1H     DC3      DRUD     -2.55400      0.400000           0   0.00000       0.00000    
      4753 IM1H     238      IM1H     H5       HDR5D    0.192000       1.00800           0   0.00000       0.00000    
      4754 IM1H     238      IM1H     C4       CD2R5E    2.72410       11.6110           0  -1.25300       1.20000    
      4755 IM1H     238      IM1H     DC4      DRUD     -2.74710      0.400000           0   0.00000       0.00000    
      4756 IM1H     238      IM1H     H6       HDR5E    0.203000       1.00800           0   0.00000       0.00000    
      4757 IM1H     238      IM1H     N2       ND2R5C    2.04220       13.6070           0 -0.803000       1.00000    
      4758 IM1H     238      IM1H     DN2      DRUD     -2.19920      0.400000           0   0.00000       0.00000    
      4759 IM1H     238      IM1H     H7       HDP1A    0.363000       1.00800           0   0.00000       0.00000    
      4760 IM1H     238      IM1H     LPN21    LPD       0.00000       0.00000          -1   0.00000       0.00000    
      4761 IM1H     239      IM1H     C1       CD33F     2.48500       11.6110           0  -1.18100       1.10000    
      4762 IM1H     239      IM1H     DC1      DRUD     -2.66700      0.400000           0   0.00000       0.00000    
      4763 IM1H     239      IM1H     H1       HDA3A    0.135000       1.00800           0   0.00000       0.00000    
      4764 IM1H     239      IM1H     H2       HDA3A    0.135000       1.00800           0   0.00000       0.00000    
      4765 IM1H     239      IM1H     H3       HDA3A    0.135000       1.00800           0   0.00000       0.00000    
      4766 IM1H     239      IM1H     N1       ND2R5C    2.35720       13.6070           0 -0.803000       1.00000    
      4767 IM1H     239      IM1H     DN1      DRUD     -2.19920      0.400000           0   0.00000       0.00000    
      4768 IM1H     239      IM1H     C2       CD2R5D    2.44700       11.6110           0  -1.08300       1.10000    
      4769 IM1H     239      IM1H     DC2      DRUD     -2.55400      0.400000           0   0.00000       0.00000    
      4770 IM1H     239      IM1H     H4       HDR5D    0.195000       1.00800           0   0.00000       0.00000    
      4771 IM1H     239      IM1H     C3       CD2R5D    2.50700       11.6110           0  -1.08300       1.10000    
      4772 IM1H     239      IM1H     DC3      DRUD     -2.55400      0.400000           0   0.00000       0.00000    
      4773 IM1H     239      IM1H     H5       HDR5D    0.192000       1.00800           0   0.00000       0.00000    
      4774 IM1H     239      IM1H     C4       CD2R5E    2.72410       11.6110           0  -1.25300       1.20000    
      4775 IM1H     239      IM1H     DC4      DRUD     -2.74710      0.400000           0   0.00000       0.00000    
      4776 IM1H     239      IM1H     H6       HDR5E    0.203000       1.00800           0   0.00000       0.00000    
      4777 IM1H     239      IM1H     N2       ND2R5C    2.04220       13.6070           0 -0.803000       1.00000    
      4778 IM1H     239      IM1H     DN2      DRUD     -2.19920      0.400000           0   0.00000       0.00000    
      4779 IM1H     239      IM1H     H7       HDP1A    0.363000       1.00800           0   0.00000       0.00000    
      4780 IM1H     239      IM1H     LPN21    LPD       0.00000       0.00000          -1   0.00000       0.00000    
      4781 IM1H     240      IM1H     C1       CD33F     2.48500       11.6110           0  -1.18100       1.10000    
      4782 IM1H     240      IM1H     DC1      DRUD     -2.66700      0.400000           0   0.00000       0.00000    
      4783 IM1H     240      IM1H     H1       HDA3A    0.135000       1.00800           0   0.00000       0.00000    
      4784 IM1H     240      IM1H     H2       HDA3A    0.135000       1.00800           0   0.00000       0.00000    
      4785 IM1H     240      IM1H     H3       HDA3A    0.135000       1.00800           0   0.00000       0.00000    
      4786 IM1H     240      IM1H     N1       ND2R5C    2.35720       13.6070           0 -0.803000       1.00000    
      4787 IM1H     240      IM1H     DN1      DRUD     -2.19920      0.400000           0   0.00000       0.00000    
      4788 IM1H     240      IM1H     C2       CD2R5D    2.44700       11.6110           0  -1.08300       1.10000    
      4789 IM1H     240      IM1H     DC2      DRUD     -2.55400      0.400000           0   0.00000       0.00000    
      4790 IM1H     240      IM1H     H4       HDR5D    0.195000       1.00800           0   0.00000       0.00000    
      4791 IM1H     240      IM1H     C3       CD2R5D    2.50700       11.6110           0  -1.08300       1.10000    
      4792 IM1H     240      IM1H     DC3      DRUD     -2.55400      0.400000           0   0.00000       0.00000    
      4793 IM1H     240      IM1H     H5       HDR5D    0.192000       1.00800           0   0.00000       0.00000    
      4794 IM1H     240      IM1H     C4       CD2R5E    2.72410       11.6110           0  -1.25300       1.20000    
      4795 IM1H     240      IM1H     DC4      DRUD     -2.74710      0.400000           0   0.00000       0.00000    
      4796 IM1H     240      IM1H     H6       HDR5E    0.203000       1.00800           0   0.00000       0.00000    
      4797 IM1H     240      IM1H     N2       ND2R5C    2.04220       13.6070           0 -0.803000       1.00000    
      4798 IM1H     240      IM1H     DN2      DRUD     -2.19920      0.400000           0   0.00000       0.00000    
      4799 IM1H     240      IM1H     H7       HDP1A    0.363000       1.00800           0   0.00000       0.00000    
      4800 IM1H     240      IM1H     LPN21    LPD       0.00000       0.00000          -1   0.00000       0.00000    
      4801 IM1H     241      IM1H     C1       CD33F     2.48500       11.6110           0  -1.18100       1.10000    
      4802 IM1H     241      IM1H     DC1      DRUD     -2.66700      0.400000           0   0.00000       0.00000    
      4803 IM1H     241      IM1H     H1       HDA3A    0.135000       1.00800           0   0.00000       0.00000    
      4804 IM1H     241      IM1H     H2       HDA3A    0.135000       1.00800           0   0.00000       0.00000    
      4805 IM1H     241      IM1H     H3       HDA3A    0.135000       1.00800           0   0.00000       0.00000    
      4806 IM1H     241      IM1H     N1       ND2R5C    2.35720       13.6070           0 -0.803000       1.00000    
      4807 IM1H     241      IM1H     DN1      DRUD     -2.19920      0.400000           0   0.00000       0.00000    
      4808 IM1H     241      IM1H     C2       CD2R5D    2.44700       11.6110           0  -1.08300       1.10000    
      4809 IM1H     241      IM1H     DC2      DRUD     -2.55400      0.400000           0   0.00000       0.00000    
      4810 IM1H     241      IM1H     H4       HDR5D    0.195000       1.00800           0   0.00000       0.00000    
      4811 IM1H     241      IM1H     C3       CD2R5D    2.50700       11.6110           0  -1.08300       1.10000    
      4812 IM1H     241      IM1H     DC3      DRUD     -2.55400      0.400000           0   0.00000       0.00000    
      4813 IM1H     241      IM1H     H5       HDR5D    0.192000       1.00800           0   0.00000       0.00000    
      4814 IM1H     241      IM1H     C4       CD2R5E    2.72410       11.6110           0  -1.25300       1.20000    
      4815 IM1H     241      IM1H     DC4      DRUD     -2.74710      0.400000           0   0.00000       0.00000    
      4816 IM1H     241      IM1H     H6       HDR5E    0.203000       1.00800           0   0.00000       0.00000    
      4817 IM1H     241      IM1H     N2       ND2R5C    2.04220       13.6070           0 -0.803000       1.00000    
      4818 IM1H     241      IM1H     DN2      DRUD     -2.19920      0.400000           0   0.00000       0.00000    
      4819 IM1H     241      IM1H     H7       HDP1A    0.363000       1.00800           0   0.00000       0.00000    
      4820 IM1H     241      IM1H     LPN21    LPD       0.00000       0.00000          -1   0.00000       0.00000    
      4821 IM1H     242      IM1H     C1       CD33F     2.48500       11.6110           0  -1.18100       1.10000    
      4822 IM1H     242      IM1H     DC1      DRUD     -2.66700      0.400000           0   0.00000       0.00000    
      4823 IM1H     242      IM1H     H1       HDA3A    0.135000       1.00800           0   0.00000       0.00000    
      4824 IM1H     242      IM1H     H2       HDA3A    0.135000       1.00800           0   0.00000       0.00000    
      4825 IM1H     242      IM1H     H3       HDA3A    0.135000       1.00800           0   0.00000       0.00000    
      4826 IM1H     242      IM1H     N1       ND2R5C    2.35720       13.6070           0 -0.803000       1.00000    
      4827 IM1H     242      IM1H     DN1      DRUD     -2.19920      0.400000           0   0.00000       0.00000    
      4828 IM1H     242      IM1H     C2       CD2R5D    2.44700       11.6110           0  -1.08300       1.10000    
      4829 IM1H     242      IM1H     DC2      DRUD     -2.55400      0.400000           0   0.00000       0.00000    
      4830 IM1H     242      IM1H     H4       HDR5D    0.195000       1.00800           0   0.00000       0.00000    
      4831 IM1H     242      IM1H     C3       CD2R5D    2.50700       11.6110           0  -1.08300       1.10000    
      4832 IM1H     242      IM1H     DC3      DRUD     -2.55400      0.400000           0   0.00000       0.00000    
      4833 IM1H     242      IM1H     H5       HDR5D    0.192000       1.00800           0   0.00000       0.00000    
      4834 IM1H     242      IM1H     C4       CD2R5E    2.72410       11.6110           0  -1.25300       1.20000    
      4835 IM1H     242      IM1H     DC4      DRUD     -2.74710      0.400000           0   0.00000       0.00000    
      4836 IM1H     242      IM1H     H6       HDR5E    0.203000       1.00800           0   0.00000       0.00000    
      4837 IM1H     242      IM1H     N2       ND2R5C    2.04220       13.6070           0 -0.803000       1.00000    
      4838 IM1H     242      IM1H     DN2      DRUD     -2.19920      0.400000           0   0.00000       0.00000    
      4839 IM1H     242      IM1H     H7       HDP1A    0.363000       1.00800           0   0.00000       0.00000    
      4840 IM1H     242      IM1H     LPN21    LPD       0.00000       0.00000          -1   0.00000       0.00000    
      4841 IM1H     243      IM1H     C1       CD33F     2.48500       11.6110           0  -1.18100       1.10000    
      4842 IM1H     243      IM1H     DC1      DRUD     -2.66700      0.400000           0   0.00000       0.00000    
      4843 IM1H     243      IM1H     H1       HDA3A    0.135000       1.00800           0   0.00000       0.00000    
      4844 IM1H     243      IM1H     H2       HDA3A    0.135000       1.00800           0   0.00000       0.00000    
      4845 IM1H     243      IM1H     H3       HDA3A    0.135000       1.00800           0   0.00000       0.00000    
      4846 IM1H     243      IM1H     N1       ND2R5C    2.35720       13.6070           0 -0.803000       1.00000    
      4847 IM1H     243      IM1H     DN1      DRUD     -2.19920      0.400000           0   0.00000       0.00000    
      4848 IM1H     243      IM1H     C2       CD2R5D    2.44700       11.6110           0  -1.08300       1.10000    
      4849 IM1H     243      IM1H     DC2      DRUD     -2.55400      0.400000           0   0.00000       0.00000    
      4850 IM1H     243      IM1H     H4       HDR5D    0.195000       1.00800           0   0.00000       0.00000    
      4851 IM1H     243      IM1H     C3       CD2R5D    2.50700       11.6110           0  -1.08300       1.10000    
      4852 IM1H     243      IM1H     DC3      DRUD     -2.55400      0.400000           0   0.00000       0.00000    
      4853 IM1H     243      IM1H     H5       HDR5D    0.192000       1.00800           0   0.00000       0.00000    
      4854 IM1H     243      IM1H     C4       CD2R5E    2.72410       11.6110           0  -1.25300       1.20000    
      4855 IM1H     243      IM1H     DC4      DRUD     -2.74710      0.400000           0   0.00000       0.00000    
      4856 IM1H     243      IM1H     H6       HDR5E    0.203000       1.00800           0   0.00000       0.00000    
      4857 IM1H     243      IM1H     N2       ND2R5C    2.04220       13.6070           0 -0.803000       1.00000    
      4858 IM1H     243      IM1H     DN2      DRUD     -2.19920      0.400000           0   0.00000       0.00000    
      4859 IM1H     243      IM1H     H7       HDP1A    0.363000       1.00800           0   0.00000       0.00000    
      4860 IM1H     243      IM1H     LPN21    LPD       0.00000       0.00000          -1   0.00000       0.00000    
      4861 IM1H     244      IM1H     C1       CD33F     2.48500       11.6110           0  -1.18100       1.10000    
      4862 IM1H     244      IM1H     DC1      DRUD     -2.66700      0.400000           0   0.00000       0.00000    
      4863 IM1H     244      IM1H     H1       HDA3A    0.135000       1.00800           0   0.00000       0.00000    
      4864 IM1H     244      IM1H     H2       HDA3A    0.135000       1.00800           0   0.00000       0.00000    
      4865 IM1H     244      IM1H     H3       HDA3A    0.135000       1.00800           0   0.00000       0.00000    
      4866 IM1H     244      IM1H     N1       ND2R5C    2.35720       13.6070           0 -0.803000       1.00000    
      4867 IM1H     244      IM1H     DN1      DRUD     -2.19920      0.400000           0   0.00000       0.00000    
      4868 IM1H     244      IM1H     C2       CD2R5D    2.44700       11.6110           0  -1.08300       1.10000    
      4869 IM1H     244      IM1H     DC2      DRUD     -2.55400      0.400000           0   0.00000       0.00000    
      4870 IM1H     244      IM1H     H4       HDR5D    0.195000       1.00800           0   0.00000       0.00000    
      4871 IM1H     244      IM1H     C3       CD2R5D    2.50700       11.6110           0  -1.08300       1.10000    
      4872 IM1H     244      IM1H     DC3      DRUD     -2.55400      0.400000           0   0.00000       0.00000    
      4873 IM1H     244      IM1H     H5       HDR5D    0.192000       1.00800           0   0.00000       0.00000    
      4874 IM1H     244      IM1H     C4       CD2R5E    2.72410       11.6110           0  -1.25300       1.20000    
      4875 IM1H     244      IM1H     DC4      DRUD     -2.74710      0.400000           0   0.00000       0.00000    
      4876 IM1H     244      IM1H     H6       HDR5E    0.203000       1.00800           0   0.00000       0.00000    
      4877 IM1H     244      IM1H     N2       ND2R5C    2.04220       13.6070           0 -0.803000       1.00000    
      4878 IM1H     244      IM1H     DN2      DRUD     -2.19920      0.400000           0   0.00000       0.00000    
      4879 IM1H     244      IM1H     H7       HDP1A    0.363000       1.00800           0   0.00000       0.00000    
      4880 IM1H     244      IM1H     LPN21    LPD       0.00000       0.00000          -1   0.00000       0.00000    
      4881 IM1H     245      IM1H     C1       CD33F     2.48500       11.6110           0  -1.18100       1.10000    
      4882 IM1H     245      IM1H     DC1      DRUD     -2.66700      0.400000           0   0.00000       0.00000    
      4883 IM1H     245      IM1H     H1       HDA3A    0.135000       1.00800           0   0.00000       0.00000    
      4884 IM1H     245      IM1H     H2       HDA3A    0.135000       1.00800           0   0.00000       0.00000    
      4885 IM1H     245      IM1H     H3       HDA3A    0.135000       1.00800           0   0.00000       0.00000    
      4886 IM1H     245      IM1H     N1       ND2R5C    2.35720       13.6070           0 -0.803000       1.00000    
      4887 IM1H     245      IM1H     DN1      DRUD     -2.19920      0.400000           0   0.00000       0.00000    
      4888 IM1H     245      IM1H     C2       CD2R5D    2.44700       11.6110           0  -1.08300       1.10000    
      4889 IM1H     245      IM1H     DC2      DRUD     -2.55400      0.400000           0   0.00000       0.00000    
      4890 IM1H     245      IM1H     H4       HDR5D    0.195000       1.00800           0   0.00000       0.00000    
      4891 IM1H     245      IM1H     C3       CD2R5D    2.50700       11.6110           0  -1.08300       1.10000    
      4892 IM1H     245      IM1H     DC3      DRUD     -2.55400      0.400000           0   0.00000       0.00000    
      4893 IM1H     245      IM1H     H5       HDR5D    0.192000       1.00800           0   0.00000       0.00000    
      4894 IM1H     245      IM1H     C4       CD2R5E    2.72410       11.6110           0  -1.25300       1.20000    
      4895 IM1H     245      IM1H     DC4      DRUD     -2.74710      0.400000           0   0.00000       0.00000    
      4896 IM1H     245      IM1H     H6       HDR5E    0.203000       1.00800           0   0.00000       0.00000    
      4897 IM1H     245      IM1H     N2       ND2R5C    2.04220       13.6070           0 -0.803000       1.00000    
      4898 IM1H     245      IM1H     DN2      DRUD     -2.19920      0.400000           0   0.00000       0.00000    
      4899 IM1H     245      IM1H     H7       HDP1A    0.363000       1.00800           0   0.00000       0.00000    
      4900 IM1H     245      IM1H     LPN21    LPD       0.00000       0.00000          -1   0.00000       0.00000    
      4901 IM1H     246      IM1H     C1       CD33F     2.48500       11.6110           0  -1.18100       1.10000    
      4902 IM1H     246      IM1H     DC1      DRUD     -2.66700      0.400000           0   0.00000       0.00000    
      4903 IM1H     246      IM1H     H1       HDA3A    0.135000       1.00800           0   0.00000       0.00000    
      4904 IM1H     246      IM1H     H2       HDA3A    0.135000       1.00800           0   0.00000       0.00000    
      4905 IM1H     246      IM1H     H3       HDA3A    0.135000       1.00800           0   0.00000       0.00000    
      4906 IM1H     246      IM1H     N1       ND2R5C    2.35720       13.6070           0 -0.803000       1.00000    
      4907 IM1H     246      IM1H     DN1      DRUD     -2.19920      0.400000           0   0.00000       0.00000    
      4908 IM1H     246      IM1H     C2       CD2R5D    2.44700       11.6110           0  -1.08300       1.10000    
      4909 IM1H     246      IM1H     DC2      DRUD     -2.55400      0.400000           0   0.00000       0.00000    
      4910 IM1H     246      IM1H     H4       HDR5D    0.195000       1.00800           0   0.00000       0.00000    
      4911 IM1H     246      IM1H     C3       CD2R5D    2.50700       11.6110           0  -1.08300       1.10000    
      4912 IM1H     246      IM1H     DC3      DRUD     -2.55400      0.400000           0   0.00000       0.00000    
      4913 IM1H     246      IM1H     H5       HDR5D    0.192000       1.00800           0   0.00000       0.00000    
      4914 IM1H     246      IM1H     C4       CD2R5E    2.72410       11.6110           0  -1.25300       1.20000    
      4915 IM1H     246      IM1H     DC4      DRUD     -2.74710      0.400000           0   0.00000       0.00000    
      4916 IM1H     246      IM1H     H6       HDR5E    0.203000       1.00800           0   0.00000       0.00000    
      4917 IM1H     246      IM1H     N2       ND2R5C    2.04220       13.6070           0 -0.803000       1.00000    
      4918 IM1H     246      IM1H     DN2      DRUD     -2.19920      0.400000           0   0.00000       0.00000    
      4919 IM1H     246      IM1H     H7       HDP1A    0.363000       1.00800           0   0.00000       0.00000    
      4920 IM1H     246      IM1H     LPN21    LPD       0.00000       0.00000          -1   0.00000       0.00000    
      4921 IM1H     247      IM1H     C1       CD33F     2.48500       11.6110           0  -1.18100       1.10000    
      4922 IM1H     247      IM1H     DC1      DRUD     -2.66700      0.400000           0   0.00000       0.00000    
      4923 IM1H     247      IM1H     H1       HDA3A    0.135000       1.00800           0   0.00000       0.00000    
      4924 IM1H     247      IM1H     H2       HDA3A    0.135000       1.00800           0   0.00000       0.00000    
      4925 IM1H     247      IM1H     H3       HDA3A    0.135000       1.00800           0   0.00000       0.00000    
      4926 IM1H     247      IM1H     N1       ND2R5C    2.35720       13.6070           0 -0.803000       1.00000    
      4927 IM1H     247      IM1H     DN1      DRUD     -2.19920      0.400000           0   0.00000       0.00000    
      4928 IM1H     247      IM1H     C2       CD2R5D    2.44700       11.6110           0  -1.08300       1.10000    
      4929 IM1H     247      IM1H     DC2      DRUD     -2.55400      0.400000           0   0.00000       0.00000    
      4930 IM1H     247      IM1H     H4       HDR5D    0.195000       1.00800           0   0.00000       0.00000    
      4931 IM1H     247      IM1H     C3       CD2R5D    2.50700       11.6110           0  -1.08300       1.10000    
      4932 IM1H     247      IM1H     DC3      DRUD     -2.55400      0.400000           0   0.00000       0.00000    
      4933 IM1H     247      IM1H     H5       HDR5D    0.192000       1.00800           0   0.00000       0.00000    
      4934 IM1H     247      IM1H     C4       CD2R5E    2.72410       11.6110           0  -1.25300       1.20000    
      4935 IM1H     247      IM1H     DC4      DRUD     -2.74710      0.400000           0   0.00000       0.00000    
      4936 IM1H     247      IM1H     H6       HDR5E    0.203000       1.00800           0   0.00000       0.00000    
      4937 IM1H     247      IM1H     N2       ND2R5C    2.04220       13.6070           0 -0.803000       1.00000    
      4938 IM1H     247      IM1H     DN2      DRUD     -2.19920      0.400000           0   0.00000       0.00000    
      4939 IM1H     247      IM1H     H7       HDP1A    0.363000       1.00800           0   0.00000       0.00000    
      4940 IM1H     247      IM1H     LPN21    LPD       0.00000       0.00000          -1   0.00000       0.00000    
      4941 IM1H     248      IM1H     C1       CD33F     2.48500       11.6110           0  -1.18100       1.10000    
      4942 IM1H     248      IM1H     DC1      DRUD     -2.66700      0.400000           0   0.00000       0.00000    
      4943 IM1H     248      IM1H     H1       HDA3A    0.135000       1.00800           0   0.00000       0.00000    
      4944 IM1H     248      IM1H     H2       HDA3A    0.135000       1.00800           0   0.00000       0.00000    
      4945 IM1H     248      IM1H     H3       HDA3A    0.135000       1.00800           0   0.00000       0.00000    
      4946 IM1H     248      IM1H     N1       ND2R5C    2.35720       13.6070           0 -0.803000       1.00000    
      4947 IM1H     248      IM1H     DN1      DRUD     -2.19920      0.400000           0   0.00000       0.00000    
      4948 IM1H     248      IM1H     C2       CD2R5D    2.44700       11.6110           0  -1.08300       1.10000    
      4949 IM1H     248      IM1H     DC2      DRUD     -2.55400      0.400000           0   0.00000       0.00000    
      4950 IM1H     248      IM1H     H4       HDR5D    0.195000       1.00800           0   0.00000       0.00000    
      4951 IM1H     248      IM1H     C3       CD2R5D    2.50700       11.6110           0  -1.08300       1.10000    
      4952 IM1H     248      IM1H     DC3      DRUD     -2.55400      0.400000           0   0.00000       0.00000    
      4953 IM1H     248      IM1H     H5       HDR5D    0.192000       1.00800           0   0.00000       0.00000    
      4954 IM1H     248      IM1H     C4       CD2R5E    2.72410       11.6110           0  -1.25300       1.20000    
      4955 IM1H     248      IM1H     DC4      DRUD     -2.74710      0.400000           0   0.00000       0.00000    
      4956 IM1H     248      IM1H     H6       HDR5E    0.203000       1.00800           0   0.00000       0.00000    
      4957 IM1H     248      IM1H     N2       ND2R5C    2.04220       13.6070           0 -0.803000       1.00000    
      4958 IM1H     248      IM1H     DN2      DRUD     -2.19920      0.400000           0   0.00000       0.00000    
      4959 IM1H     248      IM1H     H7       HDP1A    0.363000       1.00800           0   0.00000       0.00000    
      4960 IM1H     248      IM1H     LPN21    LPD       0.00000       0.00000          -1   0.00000       0.00000    
      4961 IM1H     249      IM1H     C1       CD33F     2.48500       11.6110           0  -1.18100       1.10000    
      4962 IM1H     249      IM1H     DC1      DRUD     -2.66700      0.400000           0   0.00000       0.00000    
      4963 IM1H     249      IM1H     H1       HDA3A    0.135000       1.00800           0   0.00000       0.00000    
      4964 IM1H     249      IM1H     H2       HDA3A    0.135000       1.00800           0   0.00000       0.00000    
      4965 IM1H     249      IM1H     H3       HDA3A    0.135000       1.00800           0   0.00000       0.00000    
      4966 IM1H     249      IM1H     N1       ND2R5C    2.35720       13.6070           0 -0.803000       1.00000    
      4967 IM1H     249      IM1H     DN1      DRUD     -2.19920      0.400000           0   0.00000       0.00000    
      4968 IM1H     249      IM1H     C2       CD2R5D    2.44700       11.6110           0  -1.08300       1.10000    
      4969 IM1H     249      IM1H     DC2      DRUD     -2.55400      0.400000           0   0.00000       0.00000    
      4970 IM1H     249      IM1H     H4       HDR5D    0.195000       1.00800           0   0.00000       0.00000    
      4971 IM1H     249      IM1H     C3       CD2R5D    2.50700       11.6110           0  -1.08300       1.10000    
      4972 IM1H     249      IM1H     DC3      DRUD     -2.55400      0.400000           0   0.00000       0.00000    
      4973 IM1H     249      IM1H     H5       HDR5D    0.192000       1.00800           0   0.00000       0.00000    
      4974 IM1H     249      IM1H     C4       CD2R5E    2.72410       11.6110           0  -1.25300       1.20000    
      4975 IM1H     249      IM1H     DC4      DRUD     -2.74710      0.400000           0   0.00000       0.00000    
      4976 IM1H     249      IM1H     H6       HDR5E    0.203000       1.00800           0   0.00000       0.00000    
      4977 IM1H     249      IM1H     N2       ND2R5C    2.04220       13.6070           0 -0.803000       1.00000    
      4978 IM1H     249      IM1H     DN2      DRUD     -2.19920      0.400000           0   0.00000       0.00000    
      4979 IM1H     249      IM1H     H7       HDP1A    0.363000       1.00800           0   0.00000       0.00000    
      4980 IM1H     249      IM1H     LPN21    LPD       0.00000       0.00000          -1   0.00000       0.00000    
      4981 IM1H     250      IM1H     C1       CD33F     2.48500       11.6110           0  -1.18100       1.10000    
      4982 IM1H     250      IM1H     DC1      DRUD     -2.66700      0.400000           0   0.00000       0.00000    
      4983 IM1H     250      IM1H     H1       HDA3A    0.135000       1.00800           0   0.00000       0.00000    
      4984 IM1H     250      IM1H     H2       HDA3A    0.135000       1.00800           0   0.00000       0.00000    
      4985 IM1H     250      IM1H     H3       HDA3A    0.135000       1.00800           0   0.00000       0.00000    
      4986 IM1H     250      IM1H     N1       ND2R5C    2.35720       13.6070           0 -0.803000       1.00000    
      4987 IM1H     250      IM1H     DN1      DRUD     -2.19920      0.400000           0   0.00000       0.00000    
      4988 IM1H     250      IM1H     C2       CD2R5D    2.44700       11.6110           0  -1.08300       1.10000    
      4989 IM1H     250      IM1H     DC2      DRUD     -2.55400      0.400000           0   0.00000       0.00000    
      4990 IM1H     250      IM1H     H4       HDR5D    0.195000       1.00800           0   0.00000       0.00000    
      4991 IM1H     250      IM1H     C3       CD2R5D    2.50700       11.6110           0  -1.08300       1.10000    
      4992 IM1H     250      IM1H     DC3      DRUD     -2.55400      0.400000           0   0.00000       0.00000    
      4993 IM1H     250      IM1H     H5       HDR5D    0.192000       1.00800           0   0.00000       0.00000    
      4994 IM1H     250      IM1H     C4       CD2R5E    2.72410       11.6110           0  -1.25300       1.20000    
      4995 IM1H     250      IM1H     DC4      DRUD     -2.74710      0.400000           0   0.00000       0.00000    
      4996 IM1H     250      IM1H     H6       HDR5E    0.203000       1.00800           0   0.00000       0.00000    
      4997 IM1H     250      IM1H     N2       ND2R5C    2.04220       13.6070           0 -0.803000       1.00000    
      4998 IM1H     250      IM1H     DN2      DRUD     -2.19920      0.400000           0   0.00000       0.00000    
      4999 IM1H     250      IM1H     H7       HDP1A    0.363000       1.00800           0   0.00000       0.00000    
      5000 IM1H     250      IM1H     LPN21    LPD       0.00000       0.00000          -1   0.00000       0.00000    
      5001 IM1H     251      IM1H     C1       CD33F     2.48500       11.6110           0  -1.18100       1.10000    
      5002 IM1H     251      IM1H     DC1      DRUD     -2.66700      0.400000           0   0.00000       0.00000    
      5003 IM1H     251      IM1H     H1       HDA3A    0.135000       1.00800           0   0.00000       0.00000    
      5004 IM1H     251      IM1H     H2       HDA3A    0.135000       1.00800           0   0.00000       0.00000    
      5005 IM1H     251      IM1H     H3       HDA3A    0.135000       1.00800           0   0.00000       0.00000    
      5006 IM1H     251      IM1H     N1       ND2R5C    2.35720       13.6070           0 -0.803000       1.00000    
      5007 IM1H     251      IM1H     DN1      DRUD     -2.19920      0.400000           0   0.00000       0.00000    
      5008 IM1H     251      IM1H     C2       CD2R5D    2.44700       11.6110           0  -1.08300       1.10000    
      5009 IM1H     251      IM1H     DC2      DRUD     -2.55400      0.400000           0   0.00000       0.00000    
      5010 IM1H     251      IM1H     H4       HDR5D    0.195000       1.00800           0   0.00000       0.00000    
      5011 IM1H     251      IM1H     C3       CD2R5D    2.50700       11.6110           0  -1.08300       1.10000    
      5012 IM1H     251      IM1H     DC3      DRUD     -2.55400      0.400000           0   0.00000       0.00000    
      5013 IM1H     251      IM1H     H5       HDR5D    0.192000       1.00800           0   0.00000       0.00000    
      5014 IM1H     251      IM1H     C4       CD2R5E    2.72410       11.6110           0  -1.25300       1.20000    
      5015 IM1H     251      IM1H     DC4      DRUD     -2.74710      0.400000           0   0.00000       0.00000    
      5016 IM1H     251      IM1H     H6       HDR5E    0.203000       1.00800           0   0.00000       0.00000    
      5017 IM1H     251      IM1H     N2       ND2R5C    2.04220       13.6070           0 -0.803000       1.00000    
      5018 IM1H     251      IM1H     DN2      DRUD     -2.19920      0.400000           0   0.00000       0.00000    
      5019 IM1H     251      IM1H     H7       HDP1A    0.363000       1.00800           0   0.00000       0.00000    
      5020 IM1H     251      IM1H     LPN21    LPD       0.00000       0.00000          -1   0.00000       0.00000    
      5021 IM1H     252      IM1H     C1       CD33F     2.48500       11.6110           0  -1.18100       1.10000    
      5022 IM1H     252      IM1H     DC1      DRUD     -2.66700      0.400000           0   0.00000       0.00000    
      5023 IM1H     252      IM1H     H1       HDA3A    0.135000       1.00800           0   0.00000       0.00000    
      5024 IM1H     252      IM1H     H2       HDA3A    0.135000       1.00800           0   0.00000       0.00000    
      5025 IM1H     252      IM1H     H3       HDA3A    0.135000       1.00800           0   0.00000       0.00000    
      5026 IM1H     252      IM1H     N1       ND2R5C    2.35720       13.6070           0 -0.803000       1.00000    
      5027 IM1H     252      IM1H     DN1      DRUD     -2.19920      0.400000           0   0.00000       0.00000    
      5028 IM1H     252      IM1H     C2       CD2R5D    2.44700       11.6110           0  -1.08300       1.10000    
      5029 IM1H     252      IM1H     DC2      DRUD     -2.55400      0.400000           0   0.00000       0.00000    
      5030 IM1H     252      IM1H     H4       HDR5D    0.195000       1.00800           0   0.00000       0.00000    
      5031 IM1H     252      IM1H     C3       CD2R5D    2.50700       11.6110           0  -1.08300       1.10000    
      5032 IM1H     252      IM1H     DC3      DRUD     -2.55400      0.400000           0   0.00000       0.00000    
      5033 IM1H     252      IM1H     H5       HDR5D    0.192000       1.00800           0   0.00000       0.00000    
      5034 IM1H     252      IM1H     C4       CD2R5E    2.72410       11.6110           0  -1.25300       1.20000    
      5035 IM1H     252      IM1H     DC4      DRUD     -2.74710      0.400000           0   0.00000       0.00000    
      5036 IM1H     252      IM1H     H6       HDR5E    0.203000       1.00800           0   0.00000       0.00000    
      5037 IM1H     252      IM1H     N2       ND2R5C    2.04220       13.6070           0 -0.803000       1.00000    
      5038 IM1H     252      IM1H     DN2      DRUD     -2.19920      0.400000           0   0.00000       0.00000    
      5039 IM1H     252      IM1H     H7       HDP1A    0.363000       1.00800           0   0.00000       0.00000    
      5040 IM1H     252      IM1H     LPN21    LPD       0.00000       0.00000          -1   0.00000       0.00000    
      5041 IM1H     253      IM1H     C1       CD33F     2.48500       11.6110           0  -1.18100       1.10000    
      5042 IM1H     253      IM1H     DC1      DRUD     -2.66700      0.400000           0   0.00000       0.00000    
      5043 IM1H     253      IM1H     H1       HDA3A    0.135000       1.00800           0   0.00000       0.00000    
      5044 IM1H     253      IM1H     H2       HDA3A    0.135000       1.00800           0   0.00000       0.00000    
      5045 IM1H     253      IM1H     H3       HDA3A    0.135000       1.00800           0   0.00000       0.00000    
      5046 IM1H     253      IM1H     N1       ND2R5C    2.35720       13.6070           0 -0.803000       1.00000    
      5047 IM1H     253      IM1H     DN1      DRUD     -2.19920      0.400000           0   0.00000       0.00000    
      5048 IM1H     253      IM1H     C2       CD2R5D    2.44700       11.6110           0  -1.08300       1.10000    
      5049 IM1H     253      IM1H     DC2      DRUD     -2.55400      0.400000           0   0.00000       0.00000    
      5050 IM1H     253      IM1H     H4       HDR5D    0.195000       1.00800           0   0.00000       0.00000    
      5051 IM1H     253      IM1H     C3       CD2R5D    2.50700       11.6110           0  -1.08300       1.10000    
      5052 IM1H     253      IM1H     DC3      DRUD     -2.55400      0.400000           0   0.00000       0.00000    
      5053 IM1H     253      IM1H     H5       HDR5D    0.192000       1.00800           0   0.00000       0.00000    
      5054 IM1H     253      IM1H     C4       CD2R5E    2.72410       11.6110           0  -1.25300       1.20000    
      5055 IM1H     253      IM1H     DC4      DRUD     -2.74710      0.400000           0   0.00000       0.00000    
      5056 IM1H     253      IM1H     H6       HDR5E    0.203000       1.00800           0   0.00000       0.00000    
      5057 IM1H     253      IM1H     N2       ND2R5C    2.04220       13.6070           0 -0.803000       1.00000    
      5058 IM1H     253      IM1H     DN2      DRUD     -2.19920      0.400000           0   0.00000       0.00000    
      5059 IM1H     253      IM1H     H7       HDP1A    0.363000       1.00800           0   0.00000       0.00000    
      5060 IM1H     253      IM1H     LPN21    LPD       0.00000       0.00000          -1   0.00000       0.00000    
      5061 IM1H     254      IM1H     C1       CD33F     2.48500       11.6110           0  -1.18100       1.10000    
      5062 IM1H     254      IM1H     DC1      DRUD     -2.66700      0.400000           0   0.00000       0.00000    
      5063 IM1H     254      IM1H     H1       HDA3A    0.135000       1.00800           0   0.00000       0.00000    
      5064 IM1H     254      IM1H     H2       HDA3A    0.135000       1.00800           0   0.00000       0.00000    
      5065 IM1H     254      IM1H     H3       HDA3A    0.135000       1.00800           0   0.00000       0.00000    
      5066 IM1H     254      IM1H     N1       ND2R5C    2.35720       13.6070           0 -0.803000       1.00000    
      5067 IM1H     254      IM1H     DN1      DRUD     -2.19920      0.400000           0   0.00000       0.00000    
      5068 IM1H     254      IM1H     C2       CD2R5D    2.44700       11.6110           0  -1.08300       1.10000    
      5069 IM1H     254      IM1H     DC2      DRUD     -2.55400      0.400000           0   0.00000       0.00000    
      5070 IM1H     254      IM1H     H4       HDR5D    0.195000       1.00800           0   0.00000       0.00000    
      5071 IM1H     254      IM1H     C3       CD2R5D    2.50700       11.6110           0  -1.08300       1.10000    
      5072 IM1H     254      IM1H     DC3      DRUD     -2.55400      0.400000           0   0.00000       0.00000    
      5073 IM1H     254      IM1H     H5       HDR5D    0.192000       1.00800           0   0.00000       0.00000    
      5074 IM1H     254      IM1H     C4       CD2R5E    2.72410       11.6110           0  -1.25300       1.20000    
      5075 IM1H     254      IM1H     DC4      DRUD     -2.74710      0.400000           0   0.00000       0.00000    
      5076 IM1H     254      IM1H     H6       HDR5E    0.203000       1.00800           0   0.00000       0.00000    
      5077 IM1H     254      IM1H     N2       ND2R5C    2.04220       13.6070           0 -0.803000       1.00000    
      5078 IM1H     254      IM1H     DN2      DRUD     -2.19920      0.400000           0   0.00000       0.00000    
      5079 IM1H     254      IM1H     H7       HDP1A    0.363000       1.00800           0   0.00000       0.00000    
      5080 IM1H     254      IM1H     LPN21    LPD       0.00000       0.00000          -1   0.00000       0.00000    
      5081 IM1H     255      IM1H     C1       CD33F     2.48500       11.6110           0  -1.18100       1.10000    
      5082 IM1H     255      IM1H     DC1      DRUD     -2.66700      0.400000           0   0.00000       0.00000    
      5083 IM1H     255      IM1H     H1       HDA3A    0.135000       1.00800           0   0.00000       0.00000    
      5084 IM1H     255      IM1H     H2       HDA3A    0.135000       1.00800           0   0.00000       0.00000    
      5085 IM1H     255      IM1H     H3       HDA3A    0.135000       1.00800           0   0.00000       0.00000    
      5086 IM1H     255      IM1H     N1       ND2R5C    2.35720       13.6070           0 -0.803000       1.00000    
      5087 IM1H     255      IM1H     DN1      DRUD     -2.19920      0.400000           0   0.00000       0.00000    
      5088 IM1H     255      IM1H     C2       CD2R5D    2.44700       11.6110           0  -1.08300       1.10000    
      5089 IM1H     255      IM1H     DC2      DRUD     -2.55400      0.400000           0   0.00000       0.00000    
      5090 IM1H     255      IM1H     H4       HDR5D    0.195000       1.00800           0   0.00000       0.00000    
      5091 IM1H     255      IM1H     C3       CD2R5D    2.50700       11.6110           0  -1.08300       1.10000    
      5092 IM1H     255      IM1H     DC3      DRUD     -2.55400      0.400000           0   0.00000       0.00000    
      5093 IM1H     255      IM1H     H5       HDR5D    0.192000       1.00800           0   0.00000       0.00000    
      5094 IM1H     255      IM1H     C4       CD2R5E    2.72410       11.6110           0  -1.25300       1.20000    
      5095 IM1H     255      IM1H     DC4      DRUD     -2.74710      0.400000           0   0.00000       0.00000    
      5096 IM1H     255      IM1H     H6       HDR5E    0.203000       1.00800           0   0.00000       0.00000    
      5097 IM1H     255      IM1H     N2       ND2R5C    2.04220       13.6070           0 -0.803000       1.00000    
      5098 IM1H     255      IM1H     DN2      DRUD     -2.19920      0.400000           0   0.00000       0.00000    
      5099 IM1H     255      IM1H     H7       HDP1A    0.363000       1.00800           0   0.00000       0.00000    
      5100 IM1H     255      IM1H     LPN21    LPD       0.00000       0.00000          -1   0.00000       0.00000    
      5101 IM1H     256      IM1H     C1       CD33F     2.48500       11.6110           0  -1.18100       1.10000    
      5102 IM1H     256      IM1H     DC1      DRUD     -2.66700      0.400000           0   0.00000       0.00000    
      5103 IM1H     256      IM1H     H1       HDA3A    0.135000       1.00800           0   0.00000       0.00000    
      5104 IM1H     256      IM1H     H2       HDA3A    0.135000       1.00800           0   0.00000       0.00000    
      5105 IM1H     256      IM1H     H3       HDA3A    0.135000       1.00800           0   0.00000       0.00000    
      5106 IM1H     256      IM1H     N1       ND2R5C    2.35720       13.6070           0 -0.803000       1.00000    
      5107 IM1H     256      IM1H     DN1      DRUD     -2.19920      0.400000           0   0.00000       0.00000    
      5108 IM1H     256      IM1H     C2       CD2R5D    2.44700       11.6110           0  -1.08300       1.10000    
      5109 IM1H     256      IM1H     DC2      DRUD     -2.55400      0.400000           0   0.00000       0.00000    
      5110 IM1H     256      IM1H     H4       HDR5D    0.195000       1.00800           0   0.00000       0.00000    
      5111 IM1H     256      IM1H     C3       CD2R5D    2.50700       11.6110           0  -1.08300       1.10000    
      5112 IM1H     256      IM1H     DC3      DRUD     -2.55400      0.400000           0   0.00000       0.00000    
      5113 IM1H     256      IM1H     H5       HDR5D    0.192000       1.00800           0   0.00000       0.00000    
      5114 IM1H     256      IM1H     C4       CD2R5E    2.72410       11.6110           0  -1.25300       1.20000    
      5115 IM1H     256      IM1H     DC4      DRUD     -2.74710      0.400000           0   0.00000       0.00000    
      5116 IM1H     256      IM1H     H6       HDR5E    0.203000       1.00800           0   0.00000       0.00000    
      5117 IM1H     256      IM1H     N2       ND2R5C    2.04220       13.6070           0 -0.803000       1.00000    
      5118 IM1H     256      IM1H     DN2      DRUD     -2.19920      0.400000           0   0.00000       0.00000    
      5119 IM1H     256      IM1H     H7       HDP1A    0.363000       1.00800           0   0.00000       0.00000    
      5120 IM1H     256      IM1H     LPN21    LPD       0.00000       0.00000          -1   0.00000       0.00000    
      5121 IM1H     257      IM1H     C1       CD33F     2.48500       11.6110           0  -1.18100       1.10000    
      5122 IM1H     257      IM1H     DC1      DRUD     -2.66700      0.400000           0   0.00000       0.00000    
      5123 IM1H     257      IM1H     H1       HDA3A    0.135000       1.00800           0   0.00000       0.00000    
      5124 IM1H     257      IM1H     H2       HDA3A    0.135000       1.00800           0   0.00000       0.00000    
      5125 IM1H     257      IM1H     H3       HDA3A    0.135000       1.00800           0   0.00000       0.00000    
      5126 IM1H     257      IM1H     N1       ND2R5C    2.35720       13.6070           0 -0.803000       1.00000    
      5127 IM1H     257      IM1H     DN1      DRUD     -2.19920      0.400000           0   0.00000       0.00000    
      5128 IM1H     257      IM1H     C2       CD2R5D    2.44700       11.6110           0  -1.08300       1.10000    
      5129 IM1H     257      IM1H     DC2      DRUD     -2.55400      0.400000           0   0.00000       0.00000    
      5130 IM1H     257      IM1H     H4       HDR5D    0.195000       1.00800           0   0.00000       0.00000    
      5131 IM1H     257      IM1H     C3       CD2R5D    2.50700       11.6110           0  -1.08300       1.10000    
      5132 IM1H     257      IM1H     DC3      DRUD     -2.55400      0.400000           0   0.00000       0.00000    
      5133 IM1H     257      IM1H     H5       HDR5D    0.192000       1.00800           0   0.00000       0.00000    
      5134 IM1H     257      IM1H     C4       CD2R5E    2.72410       11.6110           0  -1.25300       1.20000    
      5135 IM1H     257      IM1H     DC4      DRUD     -2.74710      0.400000           0   0.00000       0.00000    
      5136 IM1H     257      IM1H     H6       HDR5E    0.203000       1.00800           0   0.00000       0.00000    
      5137 IM1H     257      IM1H     N2       ND2R5C    2.04220       13.6070           0 -0.803000       1.00000    
      5138 IM1H     257      IM1H     DN2      DRUD     -2.19920      0.400000           0   0.00000       0.00000    
      5139 IM1H     257      IM1H     H7       HDP1A    0.363000       1.00800           0   0.00000       0.00000    
      5140 IM1H     257      IM1H     LPN21    LPD       0.00000       0.00000          -1   0.00000       0.00000    
      5141 IM1H     258      IM1H     C1       CD33F     2.48500       11.6110           0  -1.18100       1.10000    
      5142 IM1H     258      IM1H     DC1      DRUD     -2.66700      0.400000           0   0.00000       0.00000    
      5143 IM1H     258      IM1H     H1       HDA3A    0.135000       1.00800           0   0.00000       0.00000    
      5144 IM1H     258      IM1H     H2       HDA3A    0.135000       1.00800           0   0.00000       0.00000    
      5145 IM1H     258      IM1H     H3       HDA3A    0.135000       1.00800           0   0.00000       0.00000    
      5146 IM1H     258      IM1H     N1       ND2R5C    2.35720       13.6070           0 -0.803000       1.00000    
      5147 IM1H     258      IM1H     DN1      DRUD     -2.19920      0.400000           0   0.00000       0.00000    
      5148 IM1H     258      IM1H     C2       CD2R5D    2.44700       11.6110           0  -1.08300       1.10000    
      5149 IM1H     258      IM1H     DC2      DRUD     -2.55400      0.400000           0   0.00000       0.00000    
      5150 IM1H     258      IM1H     H4       HDR5D    0.195000       1.00800           0   0.00000       0.00000    
      5151 IM1H     258      IM1H     C3       CD2R5D    2.50700       11.6110           0  -1.08300       1.10000    
      5152 IM1H     258      IM1H     DC3      DRUD     -2.55400      0.400000           0   0.00000       0.00000    
      5153 IM1H     258      IM1H     H5       HDR5D    0.192000       1.00800           0   0.00000       0.00000    
      5154 IM1H     258      IM1H     C4       CD2R5E    2.72410       11.6110           0  -1.25300       1.20000    
      5155 IM1H     258      IM1H     DC4      DRUD     -2.74710      0.400000           0   0.00000       0.00000    
      5156 IM1H     258      IM1H     H6       HDR5E    0.203000       1.00800           0   0.00000       0.00000    
      5157 IM1H     258      IM1H     N2       ND2R5C    2.04220       13.6070           0 -0.803000       1.00000    
      5158 IM1H     258      IM1H     DN2      DRUD     -2.19920      0.400000           0   0.00000       0.00000    
      5159 IM1H     258      IM1H     H7       HDP1A    0.363000       1.00800           0   0.00000       0.00000    
      5160 IM1H     258      IM1H     LPN21    LPD       0.00000       0.00000          -1   0.00000       0.00000    
      5161 IM1H     259      IM1H     C1       CD33F     2.48500       11.6110           0  -1.18100       1.10000    
      5162 IM1H     259      IM1H     DC1      DRUD     -2.66700      0.400000           0   0.00000       0.00000    
      5163 IM1H     259      IM1H     H1       HDA3A    0.135000       1.00800           0   0.00000       0.00000    
      5164 IM1H     259      IM1H     H2       HDA3A    0.135000       1.00800           0   0.00000       0.00000    
      5165 IM1H     259      IM1H     H3       HDA3A    0.135000       1.00800           0   0.00000       0.00000    
      5166 IM1H     259      IM1H     N1       ND2R5C    2.35720       13.6070           0 -0.803000       1.00000    
      5167 IM1H     259      IM1H     DN1      DRUD     -2.19920      0.400000           0   0.00000       0.00000    
      5168 IM1H     259      IM1H     C2       CD2R5D    2.44700       11.6110           0  -1.08300       1.10000    
      5169 IM1H     259      IM1H     DC2      DRUD     -2.55400      0.400000           0   0.00000       0.00000    
      5170 IM1H     259      IM1H     H4       HDR5D    0.195000       1.00800           0   0.00000       0.00000    
      5171 IM1H     259      IM1H     C3       CD2R5D    2.50700       11.6110           0  -1.08300       1.10000    
      5172 IM1H     259      IM1H     DC3      DRUD     -2.55400      0.400000           0   0.00000       0.00000    
      5173 IM1H     259      IM1H     H5       HDR5D    0.192000       1.00800           0   0.00000       0.00000    
      5174 IM1H     259      IM1H     C4       CD2R5E    2.72410       11.6110           0  -1.25300       1.20000    
      5175 IM1H     259      IM1H     DC4      DRUD     -2.74710      0.400000           0   0.00000       0.00000    
      5176 IM1H     259      IM1H     H6       HDR5E    0.203000       1.00800           0   0.00000       0.00000    
      5177 IM1H     259      IM1H     N2       ND2R5C    2.04220       13.6070           0 -0.803000       1.00000    
      5178 IM1H     259      IM1H     DN2      DRUD     -2.19920      0.400000           0   0.00000       0.00000    
      5179 IM1H     259      IM1H     H7       HDP1A    0.363000       1.00800           0   0.00000       0.00000    
      5180 IM1H     259      IM1H     LPN21    LPD       0.00000       0.00000          -1   0.00000       0.00000    
      5181 IM1H     260      IM1H     C1       CD33F     2.48500       11.6110           0  -1.18100       1.10000    
      5182 IM1H     260      IM1H     DC1      DRUD     -2.66700      0.400000           0   0.00000       0.00000    
      5183 IM1H     260      IM1H     H1       HDA3A    0.135000       1.00800           0   0.00000       0.00000    
      5184 IM1H     260      IM1H     H2       HDA3A    0.135000       1.00800           0   0.00000       0.00000    
      5185 IM1H     260      IM1H     H3       HDA3A    0.135000       1.00800           0   0.00000       0.00000    
      5186 IM1H     260      IM1H     N1       ND2R5C    2.35720       13.6070           0 -0.803000       1.00000    
      5187 IM1H     260      IM1H     DN1      DRUD     -2.19920      0.400000           0   0.00000       0.00000    
      5188 IM1H     260      IM1H     C2       CD2R5D    2.44700       11.6110           0  -1.08300       1.10000    
      5189 IM1H     260      IM1H     DC2      DRUD     -2.55400      0.400000           0   0.00000       0.00000    
      5190 IM1H     260      IM1H     H4       HDR5D    0.195000       1.00800           0   0.00000       0.00000    
      5191 IM1H     260      IM1H     C3       CD2R5D    2.50700       11.6110           0  -1.08300       1.10000    
      5192 IM1H     260      IM1H     DC3      DRUD     -2.55400      0.400000           0   0.00000       0.00000    
      5193 IM1H     260      IM1H     H5       HDR5D    0.192000       1.00800           0   0.00000       0.00000    
      5194 IM1H     260      IM1H     C4       CD2R5E    2.72410       11.6110           0  -1.25300       1.20000    
      5195 IM1H     260      IM1H     DC4      DRUD     -2.74710      0.400000           0   0.00000       0.00000    
      5196 IM1H     260      IM1H     H6       HDR5E    0.203000       1.00800           0   0.00000       0.00000    
      5197 IM1H     260      IM1H     N2       ND2R5C    2.04220       13.6070           0 -0.803000       1.00000    
      5198 IM1H     260      IM1H     DN2      DRUD     -2.19920      0.400000           0   0.00000       0.00000    
      5199 IM1H     260      IM1H     H7       HDP1A    0.363000       1.00800           0   0.00000       0.00000    
      5200 IM1H     260      IM1H     LPN21    LPD       0.00000       0.00000          -1   0.00000       0.00000    
      5201 IM1H     261      IM1H     C1       CD33F     2.48500       11.6110           0  -1.18100       1.10000    
      5202 IM1H     261      IM1H     DC1      DRUD     -2.66700      0.400000           0   0.00000       0.00000    
      5203 IM1H     261      IM1H     H1       HDA3A    0.135000       1.00800           0   0.00000       0.00000    
      5204 IM1H     261      IM1H     H2       HDA3A    0.135000       1.00800           0   0.00000       0.00000    
      5205 IM1H     261      IM1H     H3       HDA3A    0.135000       1.00800           0   0.00000       0.00000    
      5206 IM1H     261      IM1H     N1       ND2R5C    2.35720       13.6070           0 -0.803000       1.00000    
      5207 IM1H     261      IM1H     DN1      DRUD     -2.19920      0.400000           0   0.00000       0.00000    
      5208 IM1H     261      IM1H     C2       CD2R5D    2.44700       11.6110           0  -1.08300       1.10000    
      5209 IM1H     261      IM1H     DC2      DRUD     -2.55400      0.400000           0   0.00000       0.00000    
      5210 IM1H     261      IM1H     H4       HDR5D    0.195000       1.00800           0   0.00000       0.00000    
      5211 IM1H     261      IM1H     C3       CD2R5D    2.50700       11.6110           0  -1.08300       1.10000    
      5212 IM1H     261      IM1H     DC3      DRUD     -2.55400      0.400000           0   0.00000       0.00000    
      5213 IM1H     261      IM1H     H5       HDR5D    0.192000       1.00800           0   0.00000       0.00000    
      5214 IM1H     261      IM1H     C4       CD2R5E    2.72410       11.6110           0  -1.25300       1.20000    
      5215 IM1H     261      IM1H     DC4      DRUD     -2.74710      0.400000           0   0.00000       0.00000    
      5216 IM1H     261      IM1H     H6       HDR5E    0.203000       1.00800           0   0.00000       0.00000    
      5217 IM1H     261      IM1H     N2       ND2R5C    2.04220       13.6070           0 -0.803000       1.00000    
      5218 IM1H     261      IM1H     DN2      DRUD     -2.19920      0.400000           0   0.00000       0.00000    
      5219 IM1H     261      IM1H     H7       HDP1A    0.363000       1.00800           0   0.00000       0.00000    
      5220 IM1H     261      IM1H     LPN21    LPD       0.00000       0.00000          -1   0.00000       0.00000    
      5221 IM1H     262      IM1H     C1       CD33F     2.48500       11.6110           0  -1.18100       1.10000    
      5222 IM1H     262      IM1H     DC1      DRUD     -2.66700      0.400000           0   0.00000       0.00000    
      5223 IM1H     262      IM1H     H1       HDA3A    0.135000       1.00800           0   0.00000       0.00000    
      5224 IM1H     262      IM1H     H2       HDA3A    0.135000       1.00800           0   0.00000       0.00000    
      5225 IM1H     262      IM1H     H3       HDA3A    0.135000       1.00800           0   0.00000       0.00000    
      5226 IM1H     262      IM1H     N1       ND2R5C    2.35720       13.6070           0 -0.803000       1.00000    
      5227 IM1H     262      IM1H     DN1      DRUD     -2.19920      0.400000           0   0.00000       0.00000    
      5228 IM1H     262      IM1H     C2       CD2R5D    2.44700       11.6110           0  -1.08300       1.10000    
      5229 IM1H     262      IM1H     DC2      DRUD     -2.55400      0.400000           0   0.00000       0.00000    
      5230 IM1H     262      IM1H     H4       HDR5D    0.195000       1.00800           0   0.00000       0.00000    
      5231 IM1H     262      IM1H     C3       CD2R5D    2.50700       11.6110           0  -1.08300       1.10000    
      5232 IM1H     262      IM1H     DC3      DRUD     -2.55400      0.400000           0   0.00000       0.00000    
      5233 IM1H     262      IM1H     H5       HDR5D    0.192000       1.00800           0   0.00000       0.00000    
      5234 IM1H     262      IM1H     C4       CD2R5E    2.72410       11.6110           0  -1.25300       1.20000    
      5235 IM1H     262      IM1H     DC4      DRUD     -2.74710      0.400000           0   0.00000       0.00000    
      5236 IM1H     262      IM1H     H6       HDR5E    0.203000       1.00800           0   0.00000       0.00000    
      5237 IM1H     262      IM1H     N2       ND2R5C    2.04220       13.6070           0 -0.803000       1.00000    
      5238 IM1H     262      IM1H     DN2      DRUD     -2.19920      0.400000           0   0.00000       0.00000    
      5239 IM1H     262      IM1H     H7       HDP1A    0.363000       1.00800           0   0.00000       0.00000    
      5240 IM1H     262      IM1H     LPN21    LPD       0.00000       0.00000          -1   0.00000       0.00000    
      5241 IM1H     263      IM1H     C1       CD33F     2.48500       11.6110           0  -1.18100       1.10000    
      5242 IM1H     263      IM1H     DC1      DRUD     -2.66700      0.400000           0   0.00000       0.00000    
      5243 IM1H     263      IM1H     H1       HDA3A    0.135000       1.00800           0   0.00000       0.00000    
      5244 IM1H     263      IM1H     H2       HDA3A    0.135000       1.00800           0   0.00000       0.00000    
      5245 IM1H     263      IM1H     H3       HDA3A    0.135000       1.00800           0   0.00000       0.00000    
      5246 IM1H     263      IM1H     N1       ND2R5C    2.35720       13.6070           0 -0.803000       1.00000    
      5247 IM1H     263      IM1H     DN1      DRUD     -2.19920      0.400000           0   0.00000       0.00000    
      5248 IM1H     263      IM1H     C2       CD2R5D    2.44700       11.6110           0  -1.08300       1.10000    
      5249 IM1H     263      IM1H     DC2      DRUD     -2.55400      0.400000           0   0.00000       0.00000    
      5250 IM1H     263      IM1H     H4       HDR5D    0.195000       1.00800           0   0.00000       0.00000    
      5251 IM1H     263      IM1H     C3       CD2R5D    2.50700       11.6110           0  -1.08300       1.10000    
      5252 IM1H     263      IM1H     DC3      DRUD     -2.55400      0.400000           0   0.00000       0.00000    
      5253 IM1H     263      IM1H     H5       HDR5D    0.192000       1.00800           0   0.00000       0.00000    
      5254 IM1H     263      IM1H     C4       CD2R5E    2.72410       11.6110           0  -1.25300       1.20000    
      5255 IM1H     263      IM1H     DC4      DRUD     -2.74710      0.400000           0   0.00000       0.00000    
      5256 IM1H     263      IM1H     H6       HDR5E    0.203000       1.00800           0   0.00000       0.00000    
      5257 IM1H     263      IM1H     N2       ND2R5C    2.04220       13.6070           0 -0.803000       1.00000    
      5258 IM1H     263      IM1H     DN2      DRUD     -2.19920      0.400000           0   0.00000       0.00000    
      5259 IM1H     263      IM1H     H7       HDP1A    0.363000       1.00800           0   0.00000       0.00000    
      5260 IM1H     263      IM1H     LPN21    LPD       0.00000       0.00000          -1   0.00000       0.00000    
      5261 IM1H     264      IM1H     C1       CD33F     2.48500       11.6110           0  -1.18100       1.10000    
      5262 IM1H     264      IM1H     DC1      DRUD     -2.66700      0.400000           0   0.00000       0.00000    
      5263 IM1H     264      IM1H     H1       HDA3A    0.135000       1.00800           0   0.00000       0.00000    
      5264 IM1H     264      IM1H     H2       HDA3A    0.135000       1.00800           0   0.00000       0.00000    
      5265 IM1H     264      IM1H     H3       HDA3A    0.135000       1.00800           0   0.00000       0.00000    
      5266 IM1H     264      IM1H     N1       ND2R5C    2.35720       13.6070           0 -0.803000       1.00000    
      5267 IM1H     264      IM1H     DN1      DRUD     -2.19920      0.400000           0   0.00000       0.00000    
      5268 IM1H     264      IM1H     C2       CD2R5D    2.44700       11.6110           0  -1.08300       1.10000    
      5269 IM1H     264      IM1H     DC2      DRUD     -2.55400      0.400000           0   0.00000       0.00000    
      5270 IM1H     264      IM1H     H4       HDR5D    0.195000       1.00800           0   0.00000       0.00000    
      5271 IM1H     264      IM1H     C3       CD2R5D    2.50700       11.6110           0  -1.08300       1.10000    
      5272 IM1H     264      IM1H     DC3      DRUD     -2.55400      0.400000           0   0.00000       0.00000    
      5273 IM1H     264      IM1H     H5       HDR5D    0.192000       1.00800           0   0.00000       0.00000    
      5274 IM1H     264      IM1H     C4       CD2R5E    2.72410       11.6110           0  -1.25300       1.20000    
      5275 IM1H     264      IM1H     DC4      DRUD     -2.74710      0.400000           0   0.00000       0.00000    
      5276 IM1H     264      IM1H     H6       HDR5E    0.203000       1.00800           0   0.00000       0.00000    
      5277 IM1H     264      IM1H     N2       ND2R5C    2.04220       13.6070           0 -0.803000       1.00000    
      5278 IM1H     264      IM1H     DN2      DRUD     -2.19920      0.400000           0   0.00000       0.00000    
      5279 IM1H     264      IM1H     H7       HDP1A    0.363000       1.00800           0   0.00000       0.00000    
      5280 IM1H     264      IM1H     LPN21    LPD       0.00000       0.00000          -1   0.00000       0.00000    
      5281 IM1H     265      IM1H     C1       CD33F     2.48500       11.6110           0  -1.18100       1.10000    
      5282 IM1H     265      IM1H     DC1      DRUD     -2.66700      0.400000           0   0.00000       0.00000    
      5283 IM1H     265      IM1H     H1       HDA3A    0.135000       1.00800           0   0.00000       0.00000    
      5284 IM1H     265      IM1H     H2       HDA3A    0.135000       1.00800           0   0.00000       0.00000    
      5285 IM1H     265      IM1H     H3       HDA3A    0.135000       1.00800           0   0.00000       0.00000    
      5286 IM1H     265      IM1H     N1       ND2R5C    2.35720       13.6070           0 -0.803000       1.00000    
      5287 IM1H     265      IM1H     DN1      DRUD     -2.19920      0.400000           0   0.00000       0.00000    
      5288 IM1H     265      IM1H     C2       CD2R5D    2.44700       11.6110           0  -1.08300       1.10000    
      5289 IM1H     265      IM1H     DC2      DRUD     -2.55400      0.400000           0   0.00000       0.00000    
      5290 IM1H     265      IM1H     H4       HDR5D    0.195000       1.00800           0   0.00000       0.00000    
      5291 IM1H     265      IM1H     C3       CD2R5D    2.50700       11.6110           0  -1.08300       1.10000    
      5292 IM1H     265      IM1H     DC3      DRUD     -2.55400      0.400000           0   0.00000       0.00000    
      5293 IM1H     265      IM1H     H5       HDR5D    0.192000       1.00800           0   0.00000       0.00000    
      5294 IM1H     265      IM1H     C4       CD2R5E    2.72410       11.6110           0  -1.25300       1.20000    
      5295 IM1H     265      IM1H     DC4      DRUD     -2.74710      0.400000           0   0.00000       0.00000    
      5296 IM1H     265      IM1H     H6       HDR5E    0.203000       1.00800           0   0.00000       0.00000    
      5297 IM1H     265      IM1H     N2       ND2R5C    2.04220       13.6070           0 -0.803000       1.00000    
      5298 IM1H     265      IM1H     DN2      DRUD     -2.19920      0.400000           0   0.00000       0.00000    
      5299 IM1H     265      IM1H     H7       HDP1A    0.363000       1.00800           0   0.00000       0.00000    
      5300 IM1H     265      IM1H     LPN21    LPD       0.00000       0.00000          -1   0.00000       0.00000    
      5301 IM1H     266      IM1H     C1       CD33F     2.48500       11.6110           0  -1.18100       1.10000    
      5302 IM1H     266      IM1H     DC1      DRUD     -2.66700      0.400000           0   0.00000       0.00000    
      5303 IM1H     266      IM1H     H1       HDA3A    0.135000       1.00800           0   0.00000       0.00000    
      5304 IM1H     266      IM1H     H2       HDA3A    0.135000       1.00800           0   0.00000       0.00000    
      5305 IM1H     266      IM1H     H3       HDA3A    0.135000       1.00800           0   0.00000       0.00000    
      5306 IM1H     266      IM1H     N1       ND2R5C    2.35720       13.6070           0 -0.803000       1.00000    
      5307 IM1H     266      IM1H     DN1      DRUD     -2.19920      0.400000           0   0.00000       0.00000    
      5308 IM1H     266      IM1H     C2       CD2R5D    2.44700       11.6110           0  -1.08300       1.10000    
      5309 IM1H     266      IM1H     DC2      DRUD     -2.55400      0.400000           0   0.00000       0.00000    
      5310 IM1H     266      IM1H     H4       HDR5D    0.195000       1.00800           0   0.00000       0.00000    
      5311 IM1H     266      IM1H     C3       CD2R5D    2.50700       11.6110           0  -1.08300       1.10000    
      5312 IM1H     266      IM1H     DC3      DRUD     -2.55400      0.400000           0   0.00000       0.00000    
      5313 IM1H     266      IM1H     H5       HDR5D    0.192000       1.00800           0   0.00000       0.00000    
      5314 IM1H     266      IM1H     C4       CD2R5E    2.72410       11.6110           0  -1.25300       1.20000    
      5315 IM1H     266      IM1H     DC4      DRUD     -2.74710      0.400000           0   0.00000       0.00000    
      5316 IM1H     266      IM1H     H6       HDR5E    0.203000       1.00800           0   0.00000       0.00000    
      5317 IM1H     266      IM1H     N2       ND2R5C    2.04220       13.6070           0 -0.803000       1.00000    
      5318 IM1H     266      IM1H     DN2      DRUD     -2.19920      0.400000           0   0.00000       0.00000    
      5319 IM1H     266      IM1H     H7       HDP1A    0.363000       1.00800           0   0.00000       0.00000    
      5320 IM1H     266      IM1H     LPN21    LPD       0.00000       0.00000          -1   0.00000       0.00000    
      5321 IM1H     267      IM1H     C1       CD33F     2.48500       11.6110           0  -1.18100       1.10000    
      5322 IM1H     267      IM1H     DC1      DRUD     -2.66700      0.400000           0   0.00000       0.00000    
      5323 IM1H     267      IM1H     H1       HDA3A    0.135000       1.00800           0   0.00000       0.00000    
      5324 IM1H     267      IM1H     H2       HDA3A    0.135000       1.00800           0   0.00000       0.00000    
      5325 IM1H     267      IM1H     H3       HDA3A    0.135000       1.00800           0   0.00000       0.00000    
      5326 IM1H     267      IM1H     N1       ND2R5C    2.35720       13.6070           0 -0.803000       1.00000    
      5327 IM1H     267      IM1H     DN1      DRUD     -2.19920      0.400000           0   0.00000       0.00000    
      5328 IM1H     267      IM1H     C2       CD2R5D    2.44700       11.6110           0  -1.08300       1.10000    
      5329 IM1H     267      IM1H     DC2      DRUD     -2.55400      0.400000           0   0.00000       0.00000    
      5330 IM1H     267      IM1H     H4       HDR5D    0.195000       1.00800           0   0.00000       0.00000    
      5331 IM1H     267      IM1H     C3       CD2R5D    2.50700       11.6110           0  -1.08300       1.10000    
      5332 IM1H     267      IM1H     DC3      DRUD     -2.55400      0.400000           0   0.00000       0.00000    
      5333 IM1H     267      IM1H     H5       HDR5D    0.192000       1.00800           0   0.00000       0.00000    
      5334 IM1H     267      IM1H     C4       CD2R5E    2.72410       11.6110           0  -1.25300       1.20000    
      5335 IM1H     267      IM1H     DC4      DRUD     -2.74710      0.400000           0   0.00000       0.00000    
      5336 IM1H     267      IM1H     H6       HDR5E    0.203000       1.00800           0   0.00000       0.00000    
      5337 IM1H     267      IM1H     N2       ND2R5C    2.04220       13.6070           0 -0.803000       1.00000    
      5338 IM1H     267      IM1H     DN2      DRUD     -2.19920      0.400000           0   0.00000       0.00000    
      5339 IM1H     267      IM1H     H7       HDP1A    0.363000       1.00800           0   0.00000       0.00000    
      5340 IM1H     267      IM1H     LPN21    LPD       0.00000       0.00000          -1   0.00000       0.00000    
      5341 IM1H     268      IM1H     C1       CD33F     2.48500       11.6110           0  -1.18100       1.10000    
      5342 IM1H     268      IM1H     DC1      DRUD     -2.66700      0.400000           0   0.00000       0.00000    
      5343 IM1H     268      IM1H     H1       HDA3A    0.135000       1.00800           0   0.00000       0.00000    
      5344 IM1H     268      IM1H     H2       HDA3A    0.135000       1.00800           0   0.00000       0.00000    
      5345 IM1H     268      IM1H     H3       HDA3A    0.135000       1.00800           0   0.00000       0.00000    
      5346 IM1H     268      IM1H     N1       ND2R5C    2.35720       13.6070           0 -0.803000       1.00000    
      5347 IM1H     268      IM1H     DN1      DRUD     -2.19920      0.400000           0   0.00000       0.00000    
      5348 IM1H     268      IM1H     C2       CD2R5D    2.44700       11.6110           0  -1.08300       1.10000    
      5349 IM1H     268      IM1H     DC2      DRUD     -2.55400      0.400000           0   0.00000       0.00000    
      5350 IM1H     268      IM1H     H4       HDR5D    0.195000       1.00800           0   0.00000       0.00000    
      5351 IM1H     268      IM1H     C3       CD2R5D    2.50700       11.6110           0  -1.08300       1.10000    
      5352 IM1H     268      IM1H     DC3      DRUD     -2.55400      0.400000           0   0.00000       0.00000    
      5353 IM1H     268      IM1H     H5       HDR5D    0.192000       1.00800           0   0.00000       0.00000    
      5354 IM1H     268      IM1H     C4       CD2R5E    2.72410       11.6110           0  -1.25300       1.20000    
      5355 IM1H     268      IM1H     DC4      DRUD     -2.74710      0.400000           0   0.00000       0.00000    
      5356 IM1H     268      IM1H     H6       HDR5E    0.203000       1.00800           0   0.00000       0.00000    
      5357 IM1H     268      IM1H     N2       ND2R5C    2.04220       13.6070           0 -0.803000       1.00000    
      5358 IM1H     268      IM1H     DN2      DRUD     -2.19920      0.400000           0   0.00000       0.00000    
      5359 IM1H     268      IM1H     H7       HDP1A    0.363000       1.00800           0   0.00000       0.00000    
      5360 IM1H     268      IM1H     LPN21    LPD       0.00000       0.00000          -1   0.00000       0.00000    
      5361 IM1H     269      IM1H     C1       CD33F     2.48500       11.6110           0  -1.18100       1.10000    
      5362 IM1H     269      IM1H     DC1      DRUD     -2.66700      0.400000           0   0.00000       0.00000    
      5363 IM1H     269      IM1H     H1       HDA3A    0.135000       1.00800           0   0.00000       0.00000    
      5364 IM1H     269      IM1H     H2       HDA3A    0.135000       1.00800           0   0.00000       0.00000    
      5365 IM1H     269      IM1H     H3       HDA3A    0.135000       1.00800           0   0.00000       0.00000    
      5366 IM1H     269      IM1H     N1       ND2R5C    2.35720       13.6070           0 -0.803000       1.00000    
      5367 IM1H     269      IM1H     DN1      DRUD     -2.19920      0.400000           0   0.00000       0.00000    
      5368 IM1H     269      IM1H     C2       CD2R5D    2.44700       11.6110           0  -1.08300       1.10000    
      5369 IM1H     269      IM1H     DC2      DRUD     -2.55400      0.400000           0   0.00000       0.00000    
      5370 IM1H     269      IM1H     H4       HDR5D    0.195000       1.00800           0   0.00000       0.00000    
      5371 IM1H     269      IM1H     C3       CD2R5D    2.50700       11.6110           0  -1.08300       1.10000    
      5372 IM1H     269      IM1H     DC3      DRUD     -2.55400      0.400000           0   0.00000       0.00000    
      5373 IM1H     269      IM1H     H5       HDR5D    0.192000       1.00800           0   0.00000       0.00000    
      5374 IM1H     269      IM1H     C4       CD2R5E    2.72410       11.6110           0  -1.25300       1.20000    
      5375 IM1H     269      IM1H     DC4      DRUD     -2.74710      0.400000           0   0.00000       0.00000    
      5376 IM1H     269      IM1H     H6       HDR5E    0.203000       1.00800           0   0.00000       0.00000    
      5377 IM1H     269      IM1H     N2       ND2R5C    2.04220       13.6070           0 -0.803000       1.00000    
      5378 IM1H     269      IM1H     DN2      DRUD     -2.19920      0.400000           0   0.00000       0.00000    
      5379 IM1H     269      IM1H     H7       HDP1A    0.363000       1.00800           0   0.00000       0.00000    
      5380 IM1H     269      IM1H     LPN21    LPD       0.00000       0.00000          -1   0.00000       0.00000    
      5381 IM1H     270      IM1H     C1       CD33F     2.48500       11.6110           0  -1.18100       1.10000    
      5382 IM1H     270      IM1H     DC1      DRUD     -2.66700      0.400000           0   0.00000       0.00000    
      5383 IM1H     270      IM1H     H1       HDA3A    0.135000       1.00800           0   0.00000       0.00000    
      5384 IM1H     270      IM1H     H2       HDA3A    0.135000       1.00800           0   0.00000       0.00000    
      5385 IM1H     270      IM1H     H3       HDA3A    0.135000       1.00800           0   0.00000       0.00000    
      5386 IM1H     270      IM1H     N1       ND2R5C    2.35720       13.6070           0 -0.803000       1.00000    
      5387 IM1H     270      IM1H     DN1      DRUD     -2.19920      0.400000           0   0.00000       0.00000    
      5388 IM1H     270      IM1H     C2       CD2R5D    2.44700       11.6110           0  -1.08300       1.10000    
      5389 IM1H     270      IM1H     DC2      DRUD     -2.55400      0.400000           0   0.00000       0.00000    
      5390 IM1H     270      IM1H     H4       HDR5D    0.195000       1.00800           0   0.00000       0.00000    
      5391 IM1H     270      IM1H     C3       CD2R5D    2.50700       11.6110           0  -1.08300       1.10000    
      5392 IM1H     270      IM1H     DC3      DRUD     -2.55400      0.400000           0   0.00000       0.00000    
      5393 IM1H     270      IM1H     H5       HDR5D    0.192000       1.00800           0   0.00000       0.00000    
      5394 IM1H     270      IM1H     C4       CD2R5E    2.72410       11.6110           0  -1.25300       1.20000    
      5395 IM1H     270      IM1H     DC4      DRUD     -2.74710      0.400000           0   0.00000       0.00000    
      5396 IM1H     270      IM1H     H6       HDR5E    0.203000       1.00800           0   0.00000       0.00000    
      5397 IM1H     270      IM1H     N2       ND2R5C    2.04220       13.6070           0 -0.803000       1.00000    
      5398 IM1H     270      IM1H     DN2      DRUD     -2.19920      0.400000           0   0.00000       0.00000    
      5399 IM1H     270      IM1H     H7       HDP1A    0.363000       1.00800           0   0.00000       0.00000    
      5400 IM1H     270      IM1H     LPN21    LPD       0.00000       0.00000          -1   0.00000       0.00000    
      5401 IM1H     271      IM1H     C1       CD33F     2.48500       11.6110           0  -1.18100       1.10000    
      5402 IM1H     271      IM1H     DC1      DRUD     -2.66700      0.400000           0   0.00000       0.00000    
      5403 IM1H     271      IM1H     H1       HDA3A    0.135000       1.00800           0   0.00000       0.00000    
      5404 IM1H     271      IM1H     H2       HDA3A    0.135000       1.00800           0   0.00000       0.00000    
      5405 IM1H     271      IM1H     H3       HDA3A    0.135000       1.00800           0   0.00000       0.00000    
      5406 IM1H     271      IM1H     N1       ND2R5C    2.35720       13.6070           0 -0.803000       1.00000    
      5407 IM1H     271      IM1H     DN1      DRUD     -2.19920      0.400000           0   0.00000       0.00000    
      5408 IM1H     271      IM1H     C2       CD2R5D    2.44700       11.6110           0  -1.08300       1.10000    
      5409 IM1H     271      IM1H     DC2      DRUD     -2.55400      0.400000           0   0.00000       0.00000    
      5410 IM1H     271      IM1H     H4       HDR5D    0.195000       1.00800           0   0.00000       0.00000    
      5411 IM1H     271      IM1H     C3       CD2R5D    2.50700       11.6110           0  -1.08300       1.10000    
      5412 IM1H     271      IM1H     DC3      DRUD     -2.55400      0.400000           0   0.00000       0.00000    
      5413 IM1H     271      IM1H     H5       HDR5D    0.192000       1.00800           0   0.00000       0.00000    
      5414 IM1H     271      IM1H     C4       CD2R5E    2.72410       11.6110           0  -1.25300       1.20000    
      5415 IM1H     271      IM1H     DC4      DRUD     -2.74710      0.400000           0   0.00000       0.00000    
      5416 IM1H     271      IM1H     H6       HDR5E    0.203000       1.00800           0   0.00000       0.00000    
      5417 IM1H     271      IM1H     N2       ND2R5C    2.04220       13.6070           0 -0.803000       1.00000    
      5418 IM1H     271      IM1H     DN2      DRUD     -2.19920      0.400000           0   0.00000       0.00000    
      5419 IM1H     271      IM1H     H7       HDP1A    0.363000       1.00800           0   0.00000       0.00000    
      5420 IM1H     271      IM1H     LPN21    LPD       0.00000       0.00000          -1   0.00000       0.00000    
      5421 IM1H     272      IM1H     C1       CD33F     2.48500       11.6110           0  -1.18100       1.10000    
      5422 IM1H     272      IM1H     DC1      DRUD     -2.66700      0.400000           0   0.00000       0.00000    
      5423 IM1H     272      IM1H     H1       HDA3A    0.135000       1.00800           0   0.00000       0.00000    
      5424 IM1H     272      IM1H     H2       HDA3A    0.135000       1.00800           0   0.00000       0.00000    
      5425 IM1H     272      IM1H     H3       HDA3A    0.135000       1.00800           0   0.00000       0.00000    
      5426 IM1H     272      IM1H     N1       ND2R5C    2.35720       13.6070           0 -0.803000       1.00000    
      5427 IM1H     272      IM1H     DN1      DRUD     -2.19920      0.400000           0   0.00000       0.00000    
      5428 IM1H     272      IM1H     C2       CD2R5D    2.44700       11.6110           0  -1.08300       1.10000    
      5429 IM1H     272      IM1H     DC2      DRUD     -2.55400      0.400000           0   0.00000       0.00000    
      5430 IM1H     272      IM1H     H4       HDR5D    0.195000       1.00800           0   0.00000       0.00000    
      5431 IM1H     272      IM1H     C3       CD2R5D    2.50700       11.6110           0  -1.08300       1.10000    
      5432 IM1H     272      IM1H     DC3      DRUD     -2.55400      0.400000           0   0.00000       0.00000    
      5433 IM1H     272      IM1H     H5       HDR5D    0.192000       1.00800           0   0.00000       0.00000    
      5434 IM1H     272      IM1H     C4       CD2R5E    2.72410       11.6110           0  -1.25300       1.20000    
      5435 IM1H     272      IM1H     DC4      DRUD     -2.74710      0.400000           0   0.00000       0.00000    
      5436 IM1H     272      IM1H     H6       HDR5E    0.203000       1.00800           0   0.00000       0.00000    
      5437 IM1H     272      IM1H     N2       ND2R5C    2.04220       13.6070           0 -0.803000       1.00000    
      5438 IM1H     272      IM1H     DN2      DRUD     -2.19920      0.400000           0   0.00000       0.00000    
      5439 IM1H     272      IM1H     H7       HDP1A    0.363000       1.00800           0   0.00000       0.00000    
      5440 IM1H     272      IM1H     LPN21    LPD       0.00000       0.00000          -1   0.00000       0.00000    
      5441 IM1H     273      IM1H     C1       CD33F     2.48500       11.6110           0  -1.18100       1.10000    
      5442 IM1H     273      IM1H     DC1      DRUD     -2.66700      0.400000           0   0.00000       0.00000    
      5443 IM1H     273      IM1H     H1       HDA3A    0.135000       1.00800           0   0.00000       0.00000    
      5444 IM1H     273      IM1H     H2       HDA3A    0.135000       1.00800           0   0.00000       0.00000    
      5445 IM1H     273      IM1H     H3       HDA3A    0.135000       1.00800           0   0.00000       0.00000    
      5446 IM1H     273      IM1H     N1       ND2R5C    2.35720       13.6070           0 -0.803000       1.00000    
      5447 IM1H     273      IM1H     DN1      DRUD     -2.19920      0.400000           0   0.00000       0.00000    
      5448 IM1H     273      IM1H     C2       CD2R5D    2.44700       11.6110           0  -1.08300       1.10000    
      5449 IM1H     273      IM1H     DC2      DRUD     -2.55400      0.400000           0   0.00000       0.00000    
      5450 IM1H     273      IM1H     H4       HDR5D    0.195000       1.00800           0   0.00000       0.00000    
      5451 IM1H     273      IM1H     C3       CD2R5D    2.50700       11.6110           0  -1.08300       1.10000    
      5452 IM1H     273      IM1H     DC3      DRUD     -2.55400      0.400000           0   0.00000       0.00000    
      5453 IM1H     273      IM1H     H5       HDR5D    0.192000       1.00800           0   0.00000       0.00000    
      5454 IM1H     273      IM1H     C4       CD2R5E    2.72410       11.6110           0  -1.25300       1.20000    
      5455 IM1H     273      IM1H     DC4      DRUD     -2.74710      0.400000           0   0.00000       0.00000    
      5456 IM1H     273      IM1H     H6       HDR5E    0.203000       1.00800           0   0.00000       0.00000    
      5457 IM1H     273      IM1H     N2       ND2R5C    2.04220       13.6070           0 -0.803000       1.00000    
      5458 IM1H     273      IM1H     DN2      DRUD     -2.19920      0.400000           0   0.00000       0.00000    
      5459 IM1H     273      IM1H     H7       HDP1A    0.363000       1.00800           0   0.00000       0.00000    
      5460 IM1H     273      IM1H     LPN21    LPD       0.00000       0.00000          -1   0.00000       0.00000    
      5461 IM1H     274      IM1H     C1       CD33F     2.48500       11.6110           0  -1.18100       1.10000    
      5462 IM1H     274      IM1H     DC1      DRUD     -2.66700      0.400000           0   0.00000       0.00000    
      5463 IM1H     274      IM1H     H1       HDA3A    0.135000       1.00800           0   0.00000       0.00000    
      5464 IM1H     274      IM1H     H2       HDA3A    0.135000       1.00800           0   0.00000       0.00000    
      5465 IM1H     274      IM1H     H3       HDA3A    0.135000       1.00800           0   0.00000       0.00000    
      5466 IM1H     274      IM1H     N1       ND2R5C    2.35720       13.6070           0 -0.803000       1.00000    
      5467 IM1H     274      IM1H     DN1      DRUD     -2.19920      0.400000           0   0.00000       0.00000    
      5468 IM1H     274      IM1H     C2       CD2R5D    2.44700       11.6110           0  -1.08300       1.10000    
      5469 IM1H     274      IM1H     DC2      DRUD     -2.55400      0.400000           0   0.00000       0.00000    
      5470 IM1H     274      IM1H     H4       HDR5D    0.195000       1.00800           0   0.00000       0.00000    
      5471 IM1H     274      IM1H     C3       CD2R5D    2.50700       11.6110           0  -1.08300       1.10000    
      5472 IM1H     274      IM1H     DC3      DRUD     -2.55400      0.400000           0   0.00000       0.00000    
      5473 IM1H     274      IM1H     H5       HDR5D    0.192000       1.00800           0   0.00000       0.00000    
      5474 IM1H     274      IM1H     C4       CD2R5E    2.72410       11.6110           0  -1.25300       1.20000    
      5475 IM1H     274      IM1H     DC4      DRUD     -2.74710      0.400000           0   0.00000       0.00000    
      5476 IM1H     274      IM1H     H6       HDR5E    0.203000       1.00800           0   0.00000       0.00000    
      5477 IM1H     274      IM1H     N2       ND2R5C    2.04220       13.6070           0 -0.803000       1.00000    
      5478 IM1H     274      IM1H     DN2      DRUD     -2.19920      0.400000           0   0.00000       0.00000    
      5479 IM1H     274      IM1H     H7       HDP1A    0.363000       1.00800           0   0.00000       0.00000    
      5480 IM1H     274      IM1H     LPN21    LPD       0.00000       0.00000          -1   0.00000       0.00000    
      5481 IM1H     275      IM1H     C1       CD33F     2.48500       11.6110           0  -1.18100       1.10000    
      5482 IM1H     275      IM1H     DC1      DRUD     -2.66700      0.400000           0   0.00000       0.00000    
      5483 IM1H     275      IM1H     H1       HDA3A    0.135000       1.00800           0   0.00000       0.00000    
      5484 IM1H     275      IM1H     H2       HDA3A    0.135000       1.00800           0   0.00000       0.00000    
      5485 IM1H     275      IM1H     H3       HDA3A    0.135000       1.00800           0   0.00000       0.00000    
      5486 IM1H     275      IM1H     N1       ND2R5C    2.35720       13.6070           0 -0.803000       1.00000    
      5487 IM1H     275      IM1H     DN1      DRUD     -2.19920      0.400000           0   0.00000       0.00000    
      5488 IM1H     275      IM1H     C2       CD2R5D    2.44700       11.6110           0  -1.08300       1.10000    
      5489 IM1H     275      IM1H     DC2      DRUD     -2.55400      0.400000           0   0.00000       0.00000    
      5490 IM1H     275      IM1H     H4       HDR5D    0.195000       1.00800           0   0.00000       0.00000    
      5491 IM1H     275      IM1H     C3       CD2R5D    2.50700       11.6110           0  -1.08300       1.10000    
      5492 IM1H     275      IM1H     DC3      DRUD     -2.55400      0.400000           0   0.00000       0.00000    
      5493 IM1H     275      IM1H     H5       HDR5D    0.192000       1.00800           0   0.00000       0.00000    
      5494 IM1H     275      IM1H     C4       CD2R5E    2.72410       11.6110           0  -1.25300       1.20000    
      5495 IM1H     275      IM1H     DC4      DRUD     -2.74710      0.400000           0   0.00000       0.00000    
      5496 IM1H     275      IM1H     H6       HDR5E    0.203000       1.00800           0   0.00000       0.00000    
      5497 IM1H     275      IM1H     N2       ND2R5C    2.04220       13.6070           0 -0.803000       1.00000    
      5498 IM1H     275      IM1H     DN2      DRUD     -2.19920      0.400000           0   0.00000       0.00000    
      5499 IM1H     275      IM1H     H7       HDP1A    0.363000       1.00800           0   0.00000       0.00000    
      5500 IM1H     275      IM1H     LPN21    LPD       0.00000       0.00000          -1   0.00000       0.00000    
      5501 IM1H     276      IM1H     C1       CD33F     2.48500       11.6110           0  -1.18100       1.10000    
      5502 IM1H     276      IM1H     DC1      DRUD     -2.66700      0.400000           0   0.00000       0.00000    
      5503 IM1H     276      IM1H     H1       HDA3A    0.135000       1.00800           0   0.00000       0.00000    
      5504 IM1H     276      IM1H     H2       HDA3A    0.135000       1.00800           0   0.00000       0.00000    
      5505 IM1H     276      IM1H     H3       HDA3A    0.135000       1.00800           0   0.00000       0.00000    
      5506 IM1H     276      IM1H     N1       ND2R5C    2.35720       13.6070           0 -0.803000       1.00000    
      5507 IM1H     276      IM1H     DN1      DRUD     -2.19920      0.400000           0   0.00000       0.00000    
      5508 IM1H     276      IM1H     C2       CD2R5D    2.44700       11.6110           0  -1.08300       1.10000    
      5509 IM1H     276      IM1H     DC2      DRUD     -2.55400      0.400000           0   0.00000       0.00000    
      5510 IM1H     276      IM1H     H4       HDR5D    0.195000       1.00800           0   0.00000       0.00000    
      5511 IM1H     276      IM1H     C3       CD2R5D    2.50700       11.6110           0  -1.08300       1.10000    
      5512 IM1H     276      IM1H     DC3      DRUD     -2.55400      0.400000           0   0.00000       0.00000    
      5513 IM1H     276      IM1H     H5       HDR5D    0.192000       1.00800           0   0.00000       0.00000    
      5514 IM1H     276      IM1H     C4       CD2R5E    2.72410       11.6110           0  -1.25300       1.20000    
      5515 IM1H     276      IM1H     DC4      DRUD     -2.74710      0.400000           0   0.00000       0.00000    
      5516 IM1H     276      IM1H     H6       HDR5E    0.203000       1.00800           0   0.00000       0.00000    
      5517 IM1H     276      IM1H     N2       ND2R5C    2.04220       13.6070           0 -0.803000       1.00000    
      5518 IM1H     276      IM1H     DN2      DRUD     -2.19920      0.400000           0   0.00000       0.00000    
      5519 IM1H     276      IM1H     H7       HDP1A    0.363000       1.00800           0   0.00000       0.00000    
      5520 IM1H     276      IM1H     LPN21    LPD       0.00000       0.00000          -1   0.00000       0.00000    
      5521 IM1H     277      IM1H     C1       CD33F     2.48500       11.6110           0  -1.18100       1.10000    
      5522 IM1H     277      IM1H     DC1      DRUD     -2.66700      0.400000           0   0.00000       0.00000    
      5523 IM1H     277      IM1H     H1       HDA3A    0.135000       1.00800           0   0.00000       0.00000    
      5524 IM1H     277      IM1H     H2       HDA3A    0.135000       1.00800           0   0.00000       0.00000    
      5525 IM1H     277      IM1H     H3       HDA3A    0.135000       1.00800           0   0.00000       0.00000    
      5526 IM1H     277      IM1H     N1       ND2R5C    2.35720       13.6070           0 -0.803000       1.00000    
      5527 IM1H     277      IM1H     DN1      DRUD     -2.19920      0.400000           0   0.00000       0.00000    
      5528 IM1H     277      IM1H     C2       CD2R5D    2.44700       11.6110           0  -1.08300       1.10000    
      5529 IM1H     277      IM1H     DC2      DRUD     -2.55400      0.400000           0   0.00000       0.00000    
      5530 IM1H     277      IM1H     H4       HDR5D    0.195000       1.00800           0   0.00000       0.00000    
      5531 IM1H     277      IM1H     C3       CD2R5D    2.50700       11.6110           0  -1.08300       1.10000    
      5532 IM1H     277      IM1H     DC3      DRUD     -2.55400      0.400000           0   0.00000       0.00000    
      5533 IM1H     277      IM1H     H5       HDR5D    0.192000       1.00800           0   0.00000       0.00000    
      5534 IM1H     277      IM1H     C4       CD2R5E    2.72410       11.6110           0  -1.25300       1.20000    
      5535 IM1H     277      IM1H     DC4      DRUD     -2.74710      0.400000           0   0.00000       0.00000    
      5536 IM1H     277      IM1H     H6       HDR5E    0.203000       1.00800           0   0.00000       0.00000    
      5537 IM1H     277      IM1H     N2       ND2R5C    2.04220       13.6070           0 -0.803000       1.00000    
      5538 IM1H     277      IM1H     DN2      DRUD     -2.19920      0.400000           0   0.00000       0.00000    
      5539 IM1H     277      IM1H     H7       HDP1A    0.363000       1.00800           0   0.00000       0.00000    
      5540 IM1H     277      IM1H     LPN21    LPD       0.00000       0.00000          -1   0.00000       0.00000    
      5541 IM1H     278      IM1H     C1       CD33F     2.48500       11.6110           0  -1.18100       1.10000    
      5542 IM1H     278      IM1H     DC1      DRUD     -2.66700      0.400000           0   0.00000       0.00000    
      5543 IM1H     278      IM1H     H1       HDA3A    0.135000       1.00800           0   0.00000       0.00000    
      5544 IM1H     278      IM1H     H2       HDA3A    0.135000       1.00800           0   0.00000       0.00000    
      5545 IM1H     278      IM1H     H3       HDA3A    0.135000       1.00800           0   0.00000       0.00000    
      5546 IM1H     278      IM1H     N1       ND2R5C    2.35720       13.6070           0 -0.803000       1.00000    
      5547 IM1H     278      IM1H     DN1      DRUD     -2.19920      0.400000           0   0.00000       0.00000    
      5548 IM1H     278      IM1H     C2       CD2R5D    2.44700       11.6110           0  -1.08300       1.10000    
      5549 IM1H     278      IM1H     DC2      DRUD     -2.55400      0.400000           0   0.00000       0.00000    
      5550 IM1H     278      IM1H     H4       HDR5D    0.195000       1.00800           0   0.00000       0.00000    
      5551 IM1H     278      IM1H     C3       CD2R5D    2.50700       11.6110           0  -1.08300       1.10000    
      5552 IM1H     278      IM1H     DC3      DRUD     -2.55400      0.400000           0   0.00000       0.00000    
      5553 IM1H     278      IM1H     H5       HDR5D    0.192000       1.00800           0   0.00000       0.00000    
      5554 IM1H     278      IM1H     C4       CD2R5E    2.72410       11.6110           0  -1.25300       1.20000    
      5555 IM1H     278      IM1H     DC4      DRUD     -2.74710      0.400000           0   0.00000       0.00000    
      5556 IM1H     278      IM1H     H6       HDR5E    0.203000       1.00800           0   0.00000       0.00000    
      5557 IM1H     278      IM1H     N2       ND2R5C    2.04220       13.6070           0 -0.803000       1.00000    
      5558 IM1H     278      IM1H     DN2      DRUD     -2.19920      0.400000           0   0.00000       0.00000    
      5559 IM1H     278      IM1H     H7       HDP1A    0.363000       1.00800           0   0.00000       0.00000    
      5560 IM1H     278      IM1H     LPN21    LPD       0.00000       0.00000          -1   0.00000       0.00000    
      5561 IM1H     279      IM1H     C1       CD33F     2.48500       11.6110           0  -1.18100       1.10000    
      5562 IM1H     279      IM1H     DC1      DRUD     -2.66700      0.400000           0   0.00000       0.00000    
      5563 IM1H     279      IM1H     H1       HDA3A    0.135000       1.00800           0   0.00000       0.00000    
      5564 IM1H     279      IM1H     H2       HDA3A    0.135000       1.00800           0   0.00000       0.00000    
      5565 IM1H     279      IM1H     H3       HDA3A    0.135000       1.00800           0   0.00000       0.00000    
      5566 IM1H     279      IM1H     N1       ND2R5C    2.35720       13.6070           0 -0.803000       1.00000    
      5567 IM1H     279      IM1H     DN1      DRUD     -2.19920      0.400000           0   0.00000       0.00000    
      5568 IM1H     279      IM1H     C2       CD2R5D    2.44700       11.6110           0  -1.08300       1.10000    
      5569 IM1H     279      IM1H     DC2      DRUD     -2.55400      0.400000           0   0.00000       0.00000    
      5570 IM1H     279      IM1H     H4       HDR5D    0.195000       1.00800           0   0.00000       0.00000    
      5571 IM1H     279      IM1H     C3       CD2R5D    2.50700       11.6110           0  -1.08300       1.10000    
      5572 IM1H     279      IM1H     DC3      DRUD     -2.55400      0.400000           0   0.00000       0.00000    
      5573 IM1H     279      IM1H     H5       HDR5D    0.192000       1.00800           0   0.00000       0.00000    
      5574 IM1H     279      IM1H     C4       CD2R5E    2.72410       11.6110           0  -1.25300       1.20000    
      5575 IM1H     279      IM1H     DC4      DRUD     -2.74710      0.400000           0   0.00000       0.00000    
      5576 IM1H     279      IM1H     H6       HDR5E    0.203000       1.00800           0   0.00000       0.00000    
      5577 IM1H     279      IM1H     N2       ND2R5C    2.04220       13.6070           0 -0.803000       1.00000    
      5578 IM1H     279      IM1H     DN2      DRUD     -2.19920      0.400000           0   0.00000       0.00000    
      5579 IM1H     279      IM1H     H7       HDP1A    0.363000       1.00800           0   0.00000       0.00000    
      5580 IM1H     279      IM1H     LPN21    LPD       0.00000       0.00000          -1   0.00000       0.00000    
      5581 IM1H     280      IM1H     C1       CD33F     2.48500       11.6110           0  -1.18100       1.10000    
      5582 IM1H     280      IM1H     DC1      DRUD     -2.66700      0.400000           0   0.00000       0.00000    
      5583 IM1H     280      IM1H     H1       HDA3A    0.135000       1.00800           0   0.00000       0.00000    
      5584 IM1H     280      IM1H     H2       HDA3A    0.135000       1.00800           0   0.00000       0.00000    
      5585 IM1H     280      IM1H     H3       HDA3A    0.135000       1.00800           0   0.00000       0.00000    
      5586 IM1H     280      IM1H     N1       ND2R5C    2.35720       13.6070           0 -0.803000       1.00000    
      5587 IM1H     280      IM1H     DN1      DRUD     -2.19920      0.400000           0   0.00000       0.00000    
      5588 IM1H     280      IM1H     C2       CD2R5D    2.44700       11.6110           0  -1.08300       1.10000    
      5589 IM1H     280      IM1H     DC2      DRUD     -2.55400      0.400000           0   0.00000       0.00000    
      5590 IM1H     280      IM1H     H4       HDR5D    0.195000       1.00800           0   0.00000       0.00000    
      5591 IM1H     280      IM1H     C3       CD2R5D    2.50700       11.6110           0  -1.08300       1.10000    
      5592 IM1H     280      IM1H     DC3      DRUD     -2.55400      0.400000           0   0.00000       0.00000    
      5593 IM1H     280      IM1H     H5       HDR5D    0.192000       1.00800           0   0.00000       0.00000    
      5594 IM1H     280      IM1H     C4       CD2R5E    2.72410       11.6110           0  -1.25300       1.20000    
      5595 IM1H     280      IM1H     DC4      DRUD     -2.74710      0.400000           0   0.00000       0.00000    
      5596 IM1H     280      IM1H     H6       HDR5E    0.203000       1.00800           0   0.00000       0.00000    
      5597 IM1H     280      IM1H     N2       ND2R5C    2.04220       13.6070           0 -0.803000       1.00000    
      5598 IM1H     280      IM1H     DN2      DRUD     -2.19920      0.400000           0   0.00000       0.00000    
      5599 IM1H     280      IM1H     H7       HDP1A    0.363000       1.00800           0   0.00000       0.00000    
      5600 IM1H     280      IM1H     LPN21    LPD       0.00000       0.00000          -1   0.00000       0.00000    
      5601 IM1H     281      IM1H     C1       CD33F     2.48500       11.6110           0  -1.18100       1.10000    
      5602 IM1H     281      IM1H     DC1      DRUD     -2.66700      0.400000           0   0.00000       0.00000    
      5603 IM1H     281      IM1H     H1       HDA3A    0.135000       1.00800           0   0.00000       0.00000    
      5604 IM1H     281      IM1H     H2       HDA3A    0.135000       1.00800           0   0.00000       0.00000    
      5605 IM1H     281      IM1H     H3       HDA3A    0.135000       1.00800           0   0.00000       0.00000    
      5606 IM1H     281      IM1H     N1       ND2R5C    2.35720       13.6070           0 -0.803000       1.00000    
      5607 IM1H     281      IM1H     DN1      DRUD     -2.19920      0.400000           0   0.00000       0.00000    
      5608 IM1H     281      IM1H     C2       CD2R5D    2.44700       11.6110           0  -1.08300       1.10000    
      5609 IM1H     281      IM1H     DC2      DRUD     -2.55400      0.400000           0   0.00000       0.00000    
      5610 IM1H     281      IM1H     H4       HDR5D    0.195000       1.00800           0   0.00000       0.00000    
      5611 IM1H     281      IM1H     C3       CD2R5D    2.50700       11.6110           0  -1.08300       1.10000    
      5612 IM1H     281      IM1H     DC3      DRUD     -2.55400      0.400000           0   0.00000       0.00000    
      5613 IM1H     281      IM1H     H5       HDR5D    0.192000       1.00800           0   0.00000       0.00000    
      5614 IM1H     281      IM1H     C4       CD2R5E    2.72410       11.6110           0  -1.25300       1.20000    
      5615 IM1H     281      IM1H     DC4      DRUD     -2.74710      0.400000           0   0.00000       0.00000    
      5616 IM1H     281      IM1H     H6       HDR5E    0.203000       1.00800           0   0.00000       0.00000    
      5617 IM1H     281      IM1H     N2       ND2R5C    2.04220       13.6070           0 -0.803000       1.00000    
      5618 IM1H     281      IM1H     DN2      DRUD     -2.19920      0.400000           0   0.00000       0.00000    
      5619 IM1H     281      IM1H     H7       HDP1A    0.363000       1.00800           0   0.00000       0.00000    
      5620 IM1H     281      IM1H     LPN21    LPD       0.00000       0.00000          -1   0.00000       0.00000    
      5621 IM1H     282      IM1H     C1       CD33F     2.48500       11.6110           0  -1.18100       1.10000    
      5622 IM1H     282      IM1H     DC1      DRUD     -2.66700      0.400000           0   0.00000       0.00000    
      5623 IM1H     282      IM1H     H1       HDA3A    0.135000       1.00800           0   0.00000       0.00000    
      5624 IM1H     282      IM1H     H2       HDA3A    0.135000       1.00800           0   0.00000       0.00000    
      5625 IM1H     282      IM1H     H3       HDA3A    0.135000       1.00800           0   0.00000       0.00000    
      5626 IM1H     282      IM1H     N1       ND2R5C    2.35720       13.6070           0 -0.803000       1.00000    
      5627 IM1H     282      IM1H     DN1      DRUD     -2.19920      0.400000           0   0.00000       0.00000    
      5628 IM1H     282      IM1H     C2       CD2R5D    2.44700       11.6110           0  -1.08300       1.10000    
      5629 IM1H     282      IM1H     DC2      DRUD     -2.55400      0.400000           0   0.00000       0.00000    
      5630 IM1H     282      IM1H     H4       HDR5D    0.195000       1.00800           0   0.00000       0.00000    
      5631 IM1H     282      IM1H     C3       CD2R5D    2.50700       11.6110           0  -1.08300       1.10000    
      5632 IM1H     282      IM1H     DC3      DRUD     -2.55400      0.400000           0   0.00000       0.00000    
      5633 IM1H     282      IM1H     H5       HDR5D    0.192000       1.00800           0   0.00000       0.00000    
      5634 IM1H     282      IM1H     C4       CD2R5E    2.72410       11.6110           0  -1.25300       1.20000    
      5635 IM1H     282      IM1H     DC4      DRUD     -2.74710      0.400000           0   0.00000       0.00000    
      5636 IM1H     282      IM1H     H6       HDR5E    0.203000       1.00800           0   0.00000       0.00000    
      5637 IM1H     282      IM1H     N2       ND2R5C    2.04220       13.6070           0 -0.803000       1.00000    
      5638 IM1H     282      IM1H     DN2      DRUD     -2.19920      0.400000           0   0.00000       0.00000    
      5639 IM1H     282      IM1H     H7       HDP1A    0.363000       1.00800           0   0.00000       0.00000    
      5640 IM1H     282      IM1H     LPN21    LPD       0.00000       0.00000          -1   0.00000       0.00000    
      5641 IM1H     283      IM1H     C1       CD33F     2.48500       11.6110           0  -1.18100       1.10000    
      5642 IM1H     283      IM1H     DC1      DRUD     -2.66700      0.400000           0   0.00000       0.00000    
      5643 IM1H     283      IM1H     H1       HDA3A    0.135000       1.00800           0   0.00000       0.00000    
      5644 IM1H     283      IM1H     H2       HDA3A    0.135000       1.00800           0   0.00000       0.00000    
      5645 IM1H     283      IM1H     H3       HDA3A    0.135000       1.00800           0   0.00000       0.00000    
      5646 IM1H     283      IM1H     N1       ND2R5C    2.35720       13.6070           0 -0.803000       1.00000    
      5647 IM1H     283      IM1H     DN1      DRUD     -2.19920      0.400000           0   0.00000       0.00000    
      5648 IM1H     283      IM1H     C2       CD2R5D    2.44700       11.6110           0  -1.08300       1.10000    
      5649 IM1H     283      IM1H     DC2      DRUD     -2.55400      0.400000           0   0.00000       0.00000    
      5650 IM1H     283      IM1H     H4       HDR5D    0.195000       1.00800           0   0.00000       0.00000    
      5651 IM1H     283      IM1H     C3       CD2R5D    2.50700       11.6110           0  -1.08300       1.10000    
      5652 IM1H     283      IM1H     DC3      DRUD     -2.55400      0.400000           0   0.00000       0.00000    
      5653 IM1H     283      IM1H     H5       HDR5D    0.192000       1.00800           0   0.00000       0.00000    
      5654 IM1H     283      IM1H     C4       CD2R5E    2.72410       11.6110           0  -1.25300       1.20000    
      5655 IM1H     283      IM1H     DC4      DRUD     -2.74710      0.400000           0   0.00000       0.00000    
      5656 IM1H     283      IM1H     H6       HDR5E    0.203000       1.00800           0   0.00000       0.00000    
      5657 IM1H     283      IM1H     N2       ND2R5C    2.04220       13.6070           0 -0.803000       1.00000    
      5658 IM1H     283      IM1H     DN2      DRUD     -2.19920      0.400000           0   0.00000       0.00000    
      5659 IM1H     283      IM1H     H7       HDP1A    0.363000       1.00800           0   0.00000       0.00000    
      5660 IM1H     283      IM1H     LPN21    LPD       0.00000       0.00000          -1   0.00000       0.00000    
      5661 IM1H     284      IM1H     C1       CD33F     2.48500       11.6110           0  -1.18100       1.10000    
      5662 IM1H     284      IM1H     DC1      DRUD     -2.66700      0.400000           0   0.00000       0.00000    
      5663 IM1H     284      IM1H     H1       HDA3A    0.135000       1.00800           0   0.00000       0.00000    
      5664 IM1H     284      IM1H     H2       HDA3A    0.135000       1.00800           0   0.00000       0.00000    
      5665 IM1H     284      IM1H     H3       HDA3A    0.135000       1.00800           0   0.00000       0.00000    
      5666 IM1H     284      IM1H     N1       ND2R5C    2.35720       13.6070           0 -0.803000       1.00000    
      5667 IM1H     284      IM1H     DN1      DRUD     -2.19920      0.400000           0   0.00000       0.00000    
      5668 IM1H     284      IM1H     C2       CD2R5D    2.44700       11.6110           0  -1.08300       1.10000    
      5669 IM1H     284      IM1H     DC2      DRUD     -2.55400      0.400000           0   0.00000       0.00000    
      5670 IM1H     284      IM1H     H4       HDR5D    0.195000       1.00800           0   0.00000       0.00000    
      5671 IM1H     284      IM1H     C3       CD2R5D    2.50700       11.6110           0  -1.08300       1.10000    
      5672 IM1H     284      IM1H     DC3      DRUD     -2.55400      0.400000           0   0.00000       0.00000    
      5673 IM1H     284      IM1H     H5       HDR5D    0.192000       1.00800           0   0.00000       0.00000    
      5674 IM1H     284      IM1H     C4       CD2R5E    2.72410       11.6110           0  -1.25300       1.20000    
      5675 IM1H     284      IM1H     DC4      DRUD     -2.74710      0.400000           0   0.00000       0.00000    
      5676 IM1H     284      IM1H     H6       HDR5E    0.203000       1.00800           0   0.00000       0.00000    
      5677 IM1H     284      IM1H     N2       ND2R5C    2.04220       13.6070           0 -0.803000       1.00000    
      5678 IM1H     284      IM1H     DN2      DRUD     -2.19920      0.400000           0   0.00000       0.00000    
      5679 IM1H     284      IM1H     H7       HDP1A    0.363000       1.00800           0   0.00000       0.00000    
      5680 IM1H     284      IM1H     LPN21    LPD       0.00000       0.00000          -1   0.00000       0.00000    
      5681 IM1H     285      IM1H     C1       CD33F     2.48500       11.6110           0  -1.18100       1.10000    
      5682 IM1H     285      IM1H     DC1      DRUD     -2.66700      0.400000           0   0.00000       0.00000    
      5683 IM1H     285      IM1H     H1       HDA3A    0.135000       1.00800           0   0.00000       0.00000    
      5684 IM1H     285      IM1H     H2       HDA3A    0.135000       1.00800           0   0.00000       0.00000    
      5685 IM1H     285      IM1H     H3       HDA3A    0.135000       1.00800           0   0.00000       0.00000    
      5686 IM1H     285      IM1H     N1       ND2R5C    2.35720       13.6070           0 -0.803000       1.00000    
      5687 IM1H     285      IM1H     DN1      DRUD     -2.19920      0.400000           0   0.00000       0.00000    
      5688 IM1H     285      IM1H     C2       CD2R5D    2.44700       11.6110           0  -1.08300       1.10000    
      5689 IM1H     285      IM1H     DC2      DRUD     -2.55400      0.400000           0   0.00000       0.00000    
      5690 IM1H     285      IM1H     H4       HDR5D    0.195000       1.00800           0   0.00000       0.00000    
      5691 IM1H     285      IM1H     C3       CD2R5D    2.50700       11.6110           0  -1.08300       1.10000    
      5692 IM1H     285      IM1H     DC3      DRUD     -2.55400      0.400000           0   0.00000       0.00000    
      5693 IM1H     285      IM1H     H5       HDR5D    0.192000       1.00800           0   0.00000       0.00000    
      5694 IM1H     285      IM1H     C4       CD2R5E    2.72410       11.6110           0  -1.25300       1.20000    
      5695 IM1H     285      IM1H     DC4      DRUD     -2.74710      0.400000           0   0.00000       0.00000    
      5696 IM1H     285      IM1H     H6       HDR5E    0.203000       1.00800           0   0.00000       0.00000    
      5697 IM1H     285      IM1H     N2       ND2R5C    2.04220       13.6070           0 -0.803000       1.00000    
      5698 IM1H     285      IM1H     DN2      DRUD     -2.19920      0.400000           0   0.00000       0.00000    
      5699 IM1H     285      IM1H     H7       HDP1A    0.363000       1.00800           0   0.00000       0.00000    
      5700 IM1H     285      IM1H     LPN21    LPD       0.00000       0.00000          -1   0.00000       0.00000    
      5701 IM1H     286      IM1H     C1       CD33F     2.48500       11.6110           0  -1.18100       1.10000    
      5702 IM1H     286      IM1H     DC1      DRUD     -2.66700      0.400000           0   0.00000       0.00000    
      5703 IM1H     286      IM1H     H1       HDA3A    0.135000       1.00800           0   0.00000       0.00000    
      5704 IM1H     286      IM1H     H2       HDA3A    0.135000       1.00800           0   0.00000       0.00000    
      5705 IM1H     286      IM1H     H3       HDA3A    0.135000       1.00800           0   0.00000       0.00000    
      5706 IM1H     286      IM1H     N1       ND2R5C    2.35720       13.6070           0 -0.803000       1.00000    
      5707 IM1H     286      IM1H     DN1      DRUD     -2.19920      0.400000           0   0.00000       0.00000    
      5708 IM1H     286      IM1H     C2       CD2R5D    2.44700       11.6110           0  -1.08300       1.10000    
      5709 IM1H     286      IM1H     DC2      DRUD     -2.55400      0.400000           0   0.00000       0.00000    
      5710 IM1H     286      IM1H     H4       HDR5D    0.195000       1.00800           0   0.00000       0.00000    
      5711 IM1H     286      IM1H     C3       CD2R5D    2.50700       11.6110           0  -1.08300       1.10000    
      5712 IM1H     286      IM1H     DC3      DRUD     -2.55400      0.400000           0   0.00000       0.00000    
      5713 IM1H     286      IM1H     H5       HDR5D    0.192000       1.00800           0   0.00000       0.00000    
      5714 IM1H     286      IM1H     C4       CD2R5E    2.72410       11.6110           0  -1.25300       1.20000    
      5715 IM1H     286      IM1H     DC4      DRUD     -2.74710      0.400000           0   0.00000       0.00000    
      5716 IM1H     286      IM1H     H6       HDR5E    0.203000       1.00800           0   0.00000       0.00000    
      5717 IM1H     286      IM1H     N2       ND2R5C    2.04220       13.6070           0 -0.803000       1.00000    
      5718 IM1H     286      IM1H     DN2      DRUD     -2.19920      0.400000           0   0.00000       0.00000    
      5719 IM1H     286      IM1H     H7       HDP1A    0.363000       1.00800           0   0.00000       0.00000    
      5720 IM1H     286      IM1H     LPN21    LPD       0.00000       0.00000          -1   0.00000       0.00000    
      5721 IM1H     287      IM1H     C1       CD33F     2.48500       11.6110           0  -1.18100       1.10000    
      5722 IM1H     287      IM1H     DC1      DRUD     -2.66700      0.400000           0   0.00000       0.00000    
      5723 IM1H     287      IM1H     H1       HDA3A    0.135000       1.00800           0   0.00000       0.00000    
      5724 IM1H     287      IM1H     H2       HDA3A    0.135000       1.00800           0   0.00000       0.00000    
      5725 IM1H     287      IM1H     H3       HDA3A    0.135000       1.00800           0   0.00000       0.00000    
      5726 IM1H     287      IM1H     N1       ND2R5C    2.35720       13.6070           0 -0.803000       1.00000    
      5727 IM1H     287      IM1H     DN1      DRUD     -2.19920      0.400000           0   0.00000       0.00000    
      5728 IM1H     287      IM1H     C2       CD2R5D    2.44700       11.6110           0  -1.08300       1.10000    
      5729 IM1H     287      IM1H     DC2      DRUD     -2.55400      0.400000           0   0.00000       0.00000    
      5730 IM1H     287      IM1H     H4       HDR5D    0.195000       1.00800           0   0.00000       0.00000    
      5731 IM1H     287      IM1H     C3       CD2R5D    2.50700       11.6110           0  -1.08300       1.10000    
      5732 IM1H     287      IM1H     DC3      DRUD     -2.55400      0.400000           0   0.00000       0.00000    
      5733 IM1H     287      IM1H     H5       HDR5D    0.192000       1.00800           0   0.00000       0.00000    
      5734 IM1H     287      IM1H     C4       CD2R5E    2.72410       11.6110           0  -1.25300       1.20000    
      5735 IM1H     287      IM1H     DC4      DRUD     -2.74710      0.400000           0   0.00000       0.00000    
      5736 IM1H     287      IM1H     H6       HDR5E    0.203000       1.00800           0   0.00000       0.00000    
      5737 IM1H     287      IM1H     N2       ND2R5C    2.04220       13.6070           0 -0.803000       1.00000    
      5738 IM1H     287      IM1H     DN2      DRUD     -2.19920      0.400000           0   0.00000       0.00000    
      5739 IM1H     287      IM1H     H7       HDP1A    0.363000       1.00800           0   0.00000       0.00000    
      5740 IM1H     287      IM1H     LPN21    LPD       0.00000       0.00000          -1   0.00000       0.00000    
      5741 IM1H     288      IM1H     C1       CD33F     2.48500       11.6110           0  -1.18100       1.10000    
      5742 IM1H     288      IM1H     DC1      DRUD     -2.66700      0.400000           0   0.00000       0.00000    
      5743 IM1H     288      IM1H     H1       HDA3A    0.135000       1.00800           0   0.00000       0.00000    
      5744 IM1H     288      IM1H     H2       HDA3A    0.135000       1.00800           0   0.00000       0.00000    
      5745 IM1H     288      IM1H     H3       HDA3A    0.135000       1.00800           0   0.00000       0.00000    
      5746 IM1H     288      IM1H     N1       ND2R5C    2.35720       13.6070           0 -0.803000       1.00000    
      5747 IM1H     288      IM1H     DN1      DRUD     -2.19920      0.400000           0   0.00000       0.00000    
      5748 IM1H     288      IM1H     C2       CD2R5D    2.44700       11.6110           0  -1.08300       1.10000    
      5749 IM1H     288      IM1H     DC2      DRUD     -2.55400      0.400000           0   0.00000       0.00000    
      5750 IM1H     288      IM1H     H4       HDR5D    0.195000       1.00800           0   0.00000       0.00000    
      5751 IM1H     288      IM1H     C3       CD2R5D    2.50700       11.6110           0  -1.08300       1.10000    
      5752 IM1H     288      IM1H     DC3      DRUD     -2.55400      0.400000           0   0.00000       0.00000    
      5753 IM1H     288      IM1H     H5       HDR5D    0.192000       1.00800           0   0.00000       0.00000    
      5754 IM1H     288      IM1H     C4       CD2R5E    2.72410       11.6110           0  -1.25300       1.20000    
      5755 IM1H     288      IM1H     DC4      DRUD     -2.74710      0.400000           0   0.00000       0.00000    
      5756 IM1H     288      IM1H     H6       HDR5E    0.203000       1.00800           0   0.00000       0.00000    
      5757 IM1H     288      IM1H     N2       ND2R5C    2.04220       13.6070           0 -0.803000       1.00000    
      5758 IM1H     288      IM1H     DN2      DRUD     -2.19920      0.400000           0   0.00000       0.00000    
      5759 IM1H     288      IM1H     H7       HDP1A    0.363000       1.00800           0   0.00000       0.00000    
      5760 IM1H     288      IM1H     LPN21    LPD       0.00000       0.00000          -1   0.00000       0.00000    
      5761 IM1H     289      IM1H     C1       CD33F     2.48500       11.6110           0  -1.18100       1.10000    
      5762 IM1H     289      IM1H     DC1      DRUD     -2.66700      0.400000           0   0.00000       0.00000    
      5763 IM1H     289      IM1H     H1       HDA3A    0.135000       1.00800           0   0.00000       0.00000    
      5764 IM1H     289      IM1H     H2       HDA3A    0.135000       1.00800           0   0.00000       0.00000    
      5765 IM1H     289      IM1H     H3       HDA3A    0.135000       1.00800           0   0.00000       0.00000    
      5766 IM1H     289      IM1H     N1       ND2R5C    2.35720       13.6070           0 -0.803000       1.00000    
      5767 IM1H     289      IM1H     DN1      DRUD     -2.19920      0.400000           0   0.00000       0.00000    
      5768 IM1H     289      IM1H     C2       CD2R5D    2.44700       11.6110           0  -1.08300       1.10000    
      5769 IM1H     289      IM1H     DC2      DRUD     -2.55400      0.400000           0   0.00000       0.00000    
      5770 IM1H     289      IM1H     H4       HDR5D    0.195000       1.00800           0   0.00000       0.00000    
      5771 IM1H     289      IM1H     C3       CD2R5D    2.50700       11.6110           0  -1.08300       1.10000    
      5772 IM1H     289      IM1H     DC3      DRUD     -2.55400      0.400000           0   0.00000       0.00000    
      5773 IM1H     289      IM1H     H5       HDR5D    0.192000       1.00800           0   0.00000       0.00000    
      5774 IM1H     289      IM1H     C4       CD2R5E    2.72410       11.6110           0  -1.25300       1.20000    
      5775 IM1H     289      IM1H     DC4      DRUD     -2.74710      0.400000           0   0.00000       0.00000    
      5776 IM1H     289      IM1H     H6       HDR5E    0.203000       1.00800           0   0.00000       0.00000    
      5777 IM1H     289      IM1H     N2       ND2R5C    2.04220       13.6070           0 -0.803000       1.00000    
      5778 IM1H     289      IM1H     DN2      DRUD     -2.19920      0.400000           0   0.00000       0.00000    
      5779 IM1H     289      IM1H     H7       HDP1A    0.363000       1.00800           0   0.00000       0.00000    
      5780 IM1H     289      IM1H     LPN21    LPD       0.00000       0.00000          -1   0.00000       0.00000    
      5781 IM1H     290      IM1H     C1       CD33F     2.48500       11.6110           0  -1.18100       1.10000    
      5782 IM1H     290      IM1H     DC1      DRUD     -2.66700      0.400000           0   0.00000       0.00000    
      5783 IM1H     290      IM1H     H1       HDA3A    0.135000       1.00800           0   0.00000       0.00000    
      5784 IM1H     290      IM1H     H2       HDA3A    0.135000       1.00800           0   0.00000       0.00000    
      5785 IM1H     290      IM1H     H3       HDA3A    0.135000       1.00800           0   0.00000       0.00000    
      5786 IM1H     290      IM1H     N1       ND2R5C    2.35720       13.6070           0 -0.803000       1.00000    
      5787 IM1H     290      IM1H     DN1      DRUD     -2.19920      0.400000           0   0.00000       0.00000    
      5788 IM1H     290      IM1H     C2       CD2R5D    2.44700       11.6110           0  -1.08300       1.10000    
      5789 IM1H     290      IM1H     DC2      DRUD     -2.55400      0.400000           0   0.00000       0.00000    
      5790 IM1H     290      IM1H     H4       HDR5D    0.195000       1.00800           0   0.00000       0.00000    
      5791 IM1H     290      IM1H     C3       CD2R5D    2.50700       11.6110           0  -1.08300       1.10000    
      5792 IM1H     290      IM1H     DC3      DRUD     -2.55400      0.400000           0   0.00000       0.00000    
      5793 IM1H     290      IM1H     H5       HDR5D    0.192000       1.00800           0   0.00000       0.00000    
      5794 IM1H     290      IM1H     C4       CD2R5E    2.72410       11.6110           0  -1.25300       1.20000    
      5795 IM1H     290      IM1H     DC4      DRUD     -2.74710      0.400000           0   0.00000       0.00000    
      5796 IM1H     290      IM1H     H6       HDR5E    0.203000       1.00800           0   0.00000       0.00000    
      5797 IM1H     290      IM1H     N2       ND2R5C    2.04220       13.6070           0 -0.803000       1.00000    
      5798 IM1H     290      IM1H     DN2      DRUD     -2.19920      0.400000           0   0.00000       0.00000    
      5799 IM1H     290      IM1H     H7       HDP1A    0.363000       1.00800           0   0.00000       0.00000    
      5800 IM1H     290      IM1H     LPN21    LPD       0.00000       0.00000          -1   0.00000       0.00000    
      5801 IM1H     291      IM1H     C1       CD33F     2.48500       11.6110           0  -1.18100       1.10000    
      5802 IM1H     291      IM1H     DC1      DRUD     -2.66700      0.400000           0   0.00000       0.00000    
      5803 IM1H     291      IM1H     H1       HDA3A    0.135000       1.00800           0   0.00000       0.00000    
      5804 IM1H     291      IM1H     H2       HDA3A    0.135000       1.00800           0   0.00000       0.00000    
      5805 IM1H     291      IM1H     H3       HDA3A    0.135000       1.00800           0   0.00000       0.00000    
      5806 IM1H     291      IM1H     N1       ND2R5C    2.35720       13.6070           0 -0.803000       1.00000    
      5807 IM1H     291      IM1H     DN1      DRUD     -2.19920      0.400000           0   0.00000       0.00000    
      5808 IM1H     291      IM1H     C2       CD2R5D    2.44700       11.6110           0  -1.08300       1.10000    
      5809 IM1H     291      IM1H     DC2      DRUD     -2.55400      0.400000           0   0.00000       0.00000    
      5810 IM1H     291      IM1H     H4       HDR5D    0.195000       1.00800           0   0.00000       0.00000    
      5811 IM1H     291      IM1H     C3       CD2R5D    2.50700       11.6110           0  -1.08300       1.10000    
      5812 IM1H     291      IM1H     DC3      DRUD     -2.55400      0.400000           0   0.00000       0.00000    
      5813 IM1H     291      IM1H     H5       HDR5D    0.192000       1.00800           0   0.00000       0.00000    
      5814 IM1H     291      IM1H     C4       CD2R5E    2.72410       11.6110           0  -1.25300       1.20000    
      5815 IM1H     291      IM1H     DC4      DRUD     -2.74710      0.400000           0   0.00000       0.00000    
      5816 IM1H     291      IM1H     H6       HDR5E    0.203000       1.00800           0   0.00000       0.00000    
      5817 IM1H     291      IM1H     N2       ND2R5C    2.04220       13.6070           0 -0.803000       1.00000    
      5818 IM1H     291      IM1H     DN2      DRUD     -2.19920      0.400000           0   0.00000       0.00000    
      5819 IM1H     291      IM1H     H7       HDP1A    0.363000       1.00800           0   0.00000       0.00000    
      5820 IM1H     291      IM1H     LPN21    LPD       0.00000       0.00000          -1   0.00000       0.00000    
      5821 IM1H     292      IM1H     C1       CD33F     2.48500       11.6110           0  -1.18100       1.10000    
      5822 IM1H     292      IM1H     DC1      DRUD     -2.66700      0.400000           0   0.00000       0.00000    
      5823 IM1H     292      IM1H     H1       HDA3A    0.135000       1.00800           0   0.00000       0.00000    
      5824 IM1H     292      IM1H     H2       HDA3A    0.135000       1.00800           0   0.00000       0.00000    
      5825 IM1H     292      IM1H     H3       HDA3A    0.135000       1.00800           0   0.00000       0.00000    
      5826 IM1H     292      IM1H     N1       ND2R5C    2.35720       13.6070           0 -0.803000       1.00000    
      5827 IM1H     292      IM1H     DN1      DRUD     -2.19920      0.400000           0   0.00000       0.00000    
      5828 IM1H     292      IM1H     C2       CD2R5D    2.44700       11.6110           0  -1.08300       1.10000    
      5829 IM1H     292      IM1H     DC2      DRUD     -2.55400      0.400000           0   0.00000       0.00000    
      5830 IM1H     292      IM1H     H4       HDR5D    0.195000       1.00800           0   0.00000       0.00000    
      5831 IM1H     292      IM1H     C3       CD2R5D    2.50700       11.6110           0  -1.08300       1.10000    
      5832 IM1H     292      IM1H     DC3      DRUD     -2.55400      0.400000           0   0.00000       0.00000    
      5833 IM1H     292      IM1H     H5       HDR5D    0.192000       1.00800           0   0.00000       0.00000    
      5834 IM1H     292      IM1H     C4       CD2R5E    2.72410       11.6110           0  -1.25300       1.20000    
      5835 IM1H     292      IM1H     DC4      DRUD     -2.74710      0.400000           0   0.00000       0.00000    
      5836 IM1H     292      IM1H     H6       HDR5E    0.203000       1.00800           0   0.00000       0.00000    
      5837 IM1H     292      IM1H     N2       ND2R5C    2.04220       13.6070           0 -0.803000       1.00000    
      5838 IM1H     292      IM1H     DN2      DRUD     -2.19920      0.400000           0   0.00000       0.00000    
      5839 IM1H     292      IM1H     H7       HDP1A    0.363000       1.00800           0   0.00000       0.00000    
      5840 IM1H     292      IM1H     LPN21    LPD       0.00000       0.00000          -1   0.00000       0.00000    
      5841 IM1H     293      IM1H     C1       CD33F     2.48500       11.6110           0  -1.18100       1.10000    
      5842 IM1H     293      IM1H     DC1      DRUD     -2.66700      0.400000           0   0.00000       0.00000    
      5843 IM1H     293      IM1H     H1       HDA3A    0.135000       1.00800           0   0.00000       0.00000    
      5844 IM1H     293      IM1H     H2       HDA3A    0.135000       1.00800           0   0.00000       0.00000    
      5845 IM1H     293      IM1H     H3       HDA3A    0.135000       1.00800           0   0.00000       0.00000    
      5846 IM1H     293      IM1H     N1       ND2R5C    2.35720       13.6070           0 -0.803000       1.00000    
      5847 IM1H     293      IM1H     DN1      DRUD     -2.19920      0.400000           0   0.00000       0.00000    
      5848 IM1H     293      IM1H     C2       CD2R5D    2.44700       11.6110           0  -1.08300       1.10000    
      5849 IM1H     293      IM1H     DC2      DRUD     -2.55400      0.400000           0   0.00000       0.00000    
      5850 IM1H     293      IM1H     H4       HDR5D    0.195000       1.00800           0   0.00000       0.00000    
      5851 IM1H     293      IM1H     C3       CD2R5D    2.50700       11.6110           0  -1.08300       1.10000    
      5852 IM1H     293      IM1H     DC3      DRUD     -2.55400      0.400000           0   0.00000       0.00000    
      5853 IM1H     293      IM1H     H5       HDR5D    0.192000       1.00800           0   0.00000       0.00000    
      5854 IM1H     293      IM1H     C4       CD2R5E    2.72410       11.6110           0  -1.25300       1.20000    
      5855 IM1H     293      IM1H     DC4      DRUD     -2.74710      0.400000           0   0.00000       0.00000    
      5856 IM1H     293      IM1H     H6       HDR5E    0.203000       1.00800           0   0.00000       0.00000    
      5857 IM1H     293      IM1H     N2       ND2R5C    2.04220       13.6070           0 -0.803000       1.00000    
      5858 IM1H     293      IM1H     DN2      DRUD     -2.19920      0.400000           0   0.00000       0.00000    
      5859 IM1H     293      IM1H     H7       HDP1A    0.363000       1.00800           0   0.00000       0.00000    
      5860 IM1H     293      IM1H     LPN21    LPD       0.00000       0.00000          -1   0.00000       0.00000    
      5861 IM1H     294      IM1H     C1       CD33F     2.48500       11.6110           0  -1.18100       1.10000    
      5862 IM1H     294      IM1H     DC1      DRUD     -2.66700      0.400000           0   0.00000       0.00000    
      5863 IM1H     294      IM1H     H1       HDA3A    0.135000       1.00800           0   0.00000       0.00000    
      5864 IM1H     294      IM1H     H2       HDA3A    0.135000       1.00800           0   0.00000       0.00000    
      5865 IM1H     294      IM1H     H3       HDA3A    0.135000       1.00800           0   0.00000       0.00000    
      5866 IM1H     294      IM1H     N1       ND2R5C    2.35720       13.6070           0 -0.803000       1.00000    
      5867 IM1H     294      IM1H     DN1      DRUD     -2.19920      0.400000           0   0.00000       0.00000    
      5868 IM1H     294      IM1H     C2       CD2R5D    2.44700       11.6110           0  -1.08300       1.10000    
      5869 IM1H     294      IM1H     DC2      DRUD     -2.55400      0.400000           0   0.00000       0.00000    
      5870 IM1H     294      IM1H     H4       HDR5D    0.195000       1.00800           0   0.00000       0.00000    
      5871 IM1H     294      IM1H     C3       CD2R5D    2.50700       11.6110           0  -1.08300       1.10000    
      5872 IM1H     294      IM1H     DC3      DRUD     -2.55400      0.400000           0   0.00000       0.00000    
      5873 IM1H     294      IM1H     H5       HDR5D    0.192000       1.00800           0   0.00000       0.00000    
      5874 IM1H     294      IM1H     C4       CD2R5E    2.72410       11.6110           0  -1.25300       1.20000    
      5875 IM1H     294      IM1H     DC4      DRUD     -2.74710      0.400000           0   0.00000       0.00000    
      5876 IM1H     294      IM1H     H6       HDR5E    0.203000       1.00800           0   0.00000       0.00000    
      5877 IM1H     294      IM1H     N2       ND2R5C    2.04220       13.6070           0 -0.803000       1.00000    
      5878 IM1H     294      IM1H     DN2      DRUD     -2.19920      0.400000           0   0.00000       0.00000    
      5879 IM1H     294      IM1H     H7       HDP1A    0.363000       1.00800           0   0.00000       0.00000    
      5880 IM1H     294      IM1H     LPN21    LPD       0.00000       0.00000          -1   0.00000       0.00000    
      5881 IM1H     295      IM1H     C1       CD33F     2.48500       11.6110           0  -1.18100       1.10000    
      5882 IM1H     295      IM1H     DC1      DRUD     -2.66700      0.400000           0   0.00000       0.00000    
      5883 IM1H     295      IM1H     H1       HDA3A    0.135000       1.00800           0   0.00000       0.00000    
      5884 IM1H     295      IM1H     H2       HDA3A    0.135000       1.00800           0   0.00000       0.00000    
      5885 IM1H     295      IM1H     H3       HDA3A    0.135000       1.00800           0   0.00000       0.00000    
      5886 IM1H     295      IM1H     N1       ND2R5C    2.35720       13.6070           0 -0.803000       1.00000    
      5887 IM1H     295      IM1H     DN1      DRUD     -2.19920      0.400000           0   0.00000       0.00000    
      5888 IM1H     295      IM1H     C2       CD2R5D    2.44700       11.6110           0  -1.08300       1.10000    
      5889 IM1H     295      IM1H     DC2      DRUD     -2.55400      0.400000           0   0.00000       0.00000    
      5890 IM1H     295      IM1H     H4       HDR5D    0.195000       1.00800           0   0.00000       0.00000    
      5891 IM1H     295      IM1H     C3       CD2R5D    2.50700       11.6110           0  -1.08300       1.10000    
      5892 IM1H     295      IM1H     DC3      DRUD     -2.55400      0.400000           0   0.00000       0.00000    
      5893 IM1H     295      IM1H     H5       HDR5D    0.192000       1.00800           0   0.00000       0.00000    
      5894 IM1H     295      IM1H     C4       CD2R5E    2.72410       11.6110           0  -1.25300       1.20000    
      5895 IM1H     295      IM1H     DC4      DRUD     -2.74710      0.400000           0   0.00000       0.00000    
      5896 IM1H     295      IM1H     H6       HDR5E    0.203000       1.00800           0   0.00000       0.00000    
      5897 IM1H     295      IM1H     N2       ND2R5C    2.04220       13.6070           0 -0.803000       1.00000    
      5898 IM1H     295      IM1H     DN2      DRUD     -2.19920      0.400000           0   0.00000       0.00000    
      5899 IM1H     295      IM1H     H7       HDP1A    0.363000       1.00800           0   0.00000       0.00000    
      5900 IM1H     295      IM1H     LPN21    LPD       0.00000       0.00000          -1   0.00000       0.00000    
      5901 IM1H     296      IM1H     C1       CD33F     2.48500       11.6110           0  -1.18100       1.10000    
      5902 IM1H     296      IM1H     DC1      DRUD     -2.66700      0.400000           0   0.00000       0.00000    
      5903 IM1H     296      IM1H     H1       HDA3A    0.135000       1.00800           0   0.00000       0.00000    
      5904 IM1H     296      IM1H     H2       HDA3A    0.135000       1.00800           0   0.00000       0.00000    
      5905 IM1H     296      IM1H     H3       HDA3A    0.135000       1.00800           0   0.00000       0.00000    
      5906 IM1H     296      IM1H     N1       ND2R5C    2.35720       13.6070           0 -0.803000       1.00000    
      5907 IM1H     296      IM1H     DN1      DRUD     -2.19920      0.400000           0   0.00000       0.00000    
      5908 IM1H     296      IM1H     C2       CD2R5D    2.44700       11.6110           0  -1.08300       1.10000    
      5909 IM1H     296      IM1H     DC2      DRUD     -2.55400      0.400000           0   0.00000       0.00000    
      5910 IM1H     296      IM1H     H4       HDR5D    0.195000       1.00800           0   0.00000       0.00000    
      5911 IM1H     296      IM1H     C3       CD2R5D    2.50700       11.6110           0  -1.08300       1.10000    
      5912 IM1H     296      IM1H     DC3      DRUD     -2.55400      0.400000           0   0.00000       0.00000    
      5913 IM1H     296      IM1H     H5       HDR5D    0.192000       1.00800           0   0.00000       0.00000    
      5914 IM1H     296      IM1H     C4       CD2R5E    2.72410       11.6110           0  -1.25300       1.20000    
      5915 IM1H     296      IM1H     DC4      DRUD     -2.74710      0.400000           0   0.00000       0.00000    
      5916 IM1H     296      IM1H     H6       HDR5E    0.203000       1.00800           0   0.00000       0.00000    
      5917 IM1H     296      IM1H     N2       ND2R5C    2.04220       13.6070           0 -0.803000       1.00000    
      5918 IM1H     296      IM1H     DN2      DRUD     -2.19920      0.400000           0   0.00000       0.00000    
      5919 IM1H     296      IM1H     H7       HDP1A    0.363000       1.00800           0   0.00000       0.00000    
      5920 IM1H     296      IM1H     LPN21    LPD       0.00000       0.00000          -1   0.00000       0.00000    
      5921 IM1H     297      IM1H     C1       CD33F     2.48500       11.6110           0  -1.18100       1.10000    
      5922 IM1H     297      IM1H     DC1      DRUD     -2.66700      0.400000           0   0.00000       0.00000    
      5923 IM1H     297      IM1H     H1       HDA3A    0.135000       1.00800           0   0.00000       0.00000    
      5924 IM1H     297      IM1H     H2       HDA3A    0.135000       1.00800           0   0.00000       0.00000    
      5925 IM1H     297      IM1H     H3       HDA3A    0.135000       1.00800           0   0.00000       0.00000    
      5926 IM1H     297      IM1H     N1       ND2R5C    2.35720       13.6070           0 -0.803000       1.00000    
      5927 IM1H     297      IM1H     DN1      DRUD     -2.19920      0.400000           0   0.00000       0.00000    
      5928 IM1H     297      IM1H     C2       CD2R5D    2.44700       11.6110           0  -1.08300       1.10000    
      5929 IM1H     297      IM1H     DC2      DRUD     -2.55400      0.400000           0   0.00000       0.00000    
      5930 IM1H     297      IM1H     H4       HDR5D    0.195000       1.00800           0   0.00000       0.00000    
      5931 IM1H     297      IM1H     C3       CD2R5D    2.50700       11.6110           0  -1.08300       1.10000    
      5932 IM1H     297      IM1H     DC3      DRUD     -2.55400      0.400000           0   0.00000       0.00000    
      5933 IM1H     297      IM1H     H5       HDR5D    0.192000       1.00800           0   0.00000       0.00000    
      5934 IM1H     297      IM1H     C4       CD2R5E    2.72410       11.6110           0  -1.25300       1.20000    
      5935 IM1H     297      IM1H     DC4      DRUD     -2.74710      0.400000           0   0.00000       0.00000    
      5936 IM1H     297      IM1H     H6       HDR5E    0.203000       1.00800           0   0.00000       0.00000    
      5937 IM1H     297      IM1H     N2       ND2R5C    2.04220       13.6070           0 -0.803000       1.00000    
      5938 IM1H     297      IM1H     DN2      DRUD     -2.19920      0.400000           0   0.00000       0.00000    
      5939 IM1H     297      IM1H     H7       HDP1A    0.363000       1.00800           0   0.00000       0.00000    
      5940 IM1H     297      IM1H     LPN21    LPD       0.00000       0.00000          -1   0.00000       0.00000    
      5941 IM1H     298      IM1H     C1       CD33F     2.48500       11.6110           0  -1.18100       1.10000    
      5942 IM1H     298      IM1H     DC1      DRUD     -2.66700      0.400000           0   0.00000       0.00000    
      5943 IM1H     298      IM1H     H1       HDA3A    0.135000       1.00800           0   0.00000       0.00000    
      5944 IM1H     298      IM1H     H2       HDA3A    0.135000       1.00800           0   0.00000       0.00000    
      5945 IM1H     298      IM1H     H3       HDA3A    0.135000       1.00800           0   0.00000       0.00000    
      5946 IM1H     298      IM1H     N1       ND2R5C    2.35720       13.6070           0 -0.803000       1.00000    
      5947 IM1H     298      IM1H     DN1      DRUD     -2.19920      0.400000           0   0.00000       0.00000    
      5948 IM1H     298      IM1H     C2       CD2R5D    2.44700       11.6110           0  -1.08300       1.10000    
      5949 IM1H     298      IM1H     DC2      DRUD     -2.55400      0.400000           0   0.00000       0.00000    
      5950 IM1H     298      IM1H     H4       HDR5D    0.195000       1.00800           0   0.00000       0.00000    
      5951 IM1H     298      IM1H     C3       CD2R5D    2.50700       11.6110           0  -1.08300       1.10000    
      5952 IM1H     298      IM1H     DC3      DRUD     -2.55400      0.400000           0   0.00000       0.00000    
      5953 IM1H     298      IM1H     H5       HDR5D    0.192000       1.00800           0   0.00000       0.00000    
      5954 IM1H     298      IM1H     C4       CD2R5E    2.72410       11.6110           0  -1.25300       1.20000    
      5955 IM1H     298      IM1H     DC4      DRUD     -2.74710      0.400000           0   0.00000       0.00000    
      5956 IM1H     298      IM1H     H6       HDR5E    0.203000       1.00800           0   0.00000       0.00000    
      5957 IM1H     298      IM1H     N2       ND2R5C    2.04220       13.6070           0 -0.803000       1.00000    
      5958 IM1H     298      IM1H     DN2      DRUD     -2.19920      0.400000           0   0.00000       0.00000    
      5959 IM1H     298      IM1H     H7       HDP1A    0.363000       1.00800           0   0.00000       0.00000    
      5960 IM1H     298      IM1H     LPN21    LPD       0.00000       0.00000          -1   0.00000       0.00000    
      5961 IM1H     299      IM1H     C1       CD33F     2.48500       11.6110           0  -1.18100       1.10000    
      5962 IM1H     299      IM1H     DC1      DRUD     -2.66700      0.400000           0   0.00000       0.00000    
      5963 IM1H     299      IM1H     H1       HDA3A    0.135000       1.00800           0   0.00000       0.00000    
      5964 IM1H     299      IM1H     H2       HDA3A    0.135000       1.00800           0   0.00000       0.00000    
      5965 IM1H     299      IM1H     H3       HDA3A    0.135000       1.00800           0   0.00000       0.00000    
      5966 IM1H     299      IM1H     N1       ND2R5C    2.35720       13.6070           0 -0.803000       1.00000    
      5967 IM1H     299      IM1H     DN1      DRUD     -2.19920      0.400000           0   0.00000       0.00000    
      5968 IM1H     299      IM1H     C2       CD2R5D    2.44700       11.6110           0  -1.08300       1.10000    
      5969 IM1H     299      IM1H     DC2      DRUD     -2.55400      0.400000           0   0.00000       0.00000    
      5970 IM1H     299      IM1H     H4       HDR5D    0.195000       1.00800           0   0.00000       0.00000    
      5971 IM1H     299      IM1H     C3       CD2R5D    2.50700       11.6110           0  -1.08300       1.10000    
      5972 IM1H     299      IM1H     DC3      DRUD     -2.55400      0.400000           0   0.00000       0.00000    
      5973 IM1H     299      IM1H     H5       HDR5D    0.192000       1.00800           0   0.00000       0.00000    
      5974 IM1H     299      IM1H     C4       CD2R5E    2.72410       11.6110           0  -1.25300       1.20000    
      5975 IM1H     299      IM1H     DC4      DRUD     -2.74710      0.400000           0   0.00000       0.00000    
      5976 IM1H     299      IM1H     H6       HDR5E    0.203000       1.00800           0   0.00000       0.00000    
      5977 IM1H     299      IM1H     N2       ND2R5C    2.04220       13.6070           0 -0.803000       1.00000    
      5978 IM1H     299      IM1H     DN2      DRUD     -2.19920      0.400000           0   0.00000       0.00000    
      5979 IM1H     299      IM1H     H7       HDP1A    0.363000       1.00800           0   0.00000       0.00000    
      5980 IM1H     299      IM1H     LPN21    LPD       0.00000       0.00000          -1   0.00000       0.00000    
      5981 IM1H     300      IM1H     C1       CD33F     2.48500       11.6110           0  -1.18100       1.10000    
      5982 IM1H     300      IM1H     DC1      DRUD     -2.66700      0.400000           0   0.00000       0.00000    
      5983 IM1H     300      IM1H     H1       HDA3A    0.135000       1.00800           0   0.00000       0.00000    
      5984 IM1H     300      IM1H     H2       HDA3A    0.135000       1.00800           0   0.00000       0.00000    
      5985 IM1H     300      IM1H     H3       HDA3A    0.135000       1.00800           0   0.00000       0.00000    
      5986 IM1H     300      IM1H     N1       ND2R5C    2.35720       13.6070           0 -0.803000       1.00000    
      5987 IM1H     300      IM1H     DN1      DRUD     -2.19920      0.400000           0   0.00000       0.00000    
      5988 IM1H     300      IM1H     C2       CD2R5D    2.44700       11.6110           0  -1.08300       1.10000    
      5989 IM1H     300      IM1H     DC2      DRUD     -2.55400      0.400000           0   0.00000       0.00000    
      5990 IM1H     300      IM1H     H4       HDR5D    0.195000       1.00800           0   0.00000       0.00000    
      5991 IM1H     300      IM1H     C3       CD2R5D    2.50700       11.6110           0  -1.08300       1.10000    
      5992 IM1H     300      IM1H     DC3      DRUD     -2.55400      0.400000           0   0.00000       0.00000    
      5993 IM1H     300      IM1H     H5       HDR5D    0.192000       1.00800           0   0.00000       0.00000    
      5994 IM1H     300      IM1H     C4       CD2R5E    2.72410       11.6110           0  -1.25300       1.20000    
      5995 IM1H     300      IM1H     DC4      DRUD     -2.74710      0.400000           0   0.00000       0.00000    
      5996 IM1H     300      IM1H     H6       HDR5E    0.203000       1.00800           0   0.00000       0.00000    
      5997 IM1H     300      IM1H     N2       ND2R5C    2.04220       13.6070           0 -0.803000       1.00000    
      5998 IM1H     300      IM1H     DN2      DRUD     -2.19920      0.400000           0   0.00000       0.00000    
      5999 IM1H     300      IM1H     H7       HDP1A    0.363000       1.00800           0   0.00000       0.00000    
      6000 IM1H     300      IM1H     LPN21    LPD       0.00000       0.00000          -1   0.00000       0.00000    
      6001 IM1H     301      IM1H     C1       CD33F     2.48500       11.6110           0  -1.18100       1.10000    
      6002 IM1H     301      IM1H     DC1      DRUD     -2.66700      0.400000           0   0.00000       0.00000    
      6003 IM1H     301      IM1H     H1       HDA3A    0.135000       1.00800           0   0.00000       0.00000    
      6004 IM1H     301      IM1H     H2       HDA3A    0.135000       1.00800           0   0.00000       0.00000    
      6005 IM1H     301      IM1H     H3       HDA3A    0.135000       1.00800           0   0.00000       0.00000    
      6006 IM1H     301      IM1H     N1       ND2R5C    2.35720       13.6070           0 -0.803000       1.00000    
      6007 IM1H     301      IM1H     DN1      DRUD     -2.19920      0.400000           0   0.00000       0.00000    
      6008 IM1H     301      IM1H     C2       CD2R5D    2.44700       11.6110           0  -1.08300       1.10000    
      6009 IM1H     301      IM1H     DC2      DRUD     -2.55400      0.400000           0   0.00000       0.00000    
      6010 IM1H     301      IM1H     H4       HDR5D    0.195000       1.00800           0   0.00000       0.00000    
      6011 IM1H     301      IM1H     C3       CD2R5D    2.50700       11.6110           0  -1.08300       1.10000    
      6012 IM1H     301      IM1H     DC3      DRUD     -2.55400      0.400000           0   0.00000       0.00000    
      6013 IM1H     301      IM1H     H5       HDR5D    0.192000       1.00800           0   0.00000       0.00000    
      6014 IM1H     301      IM1H     C4       CD2R5E    2.72410       11.6110           0  -1.25300       1.20000    
      6015 IM1H     301      IM1H     DC4      DRUD     -2.74710      0.400000           0   0.00000       0.00000    
      6016 IM1H     301      IM1H     H6       HDR5E    0.203000       1.00800           0   0.00000       0.00000    
      6017 IM1H     301      IM1H     N2       ND2R5C    2.04220       13.6070           0 -0.803000       1.00000    
      6018 IM1H     301      IM1H     DN2      DRUD     -2.19920      0.400000           0   0.00000       0.00000    
      6019 IM1H     301      IM1H     H7       HDP1A    0.363000       1.00800           0   0.00000       0.00000    
      6020 IM1H     301      IM1H     LPN21    LPD       0.00000       0.00000          -1   0.00000       0.00000    
      6021 IM1H     302      IM1H     C1       CD33F     2.48500       11.6110           0  -1.18100       1.10000    
      6022 IM1H     302      IM1H     DC1      DRUD     -2.66700      0.400000           0   0.00000       0.00000    
      6023 IM1H     302      IM1H     H1       HDA3A    0.135000       1.00800           0   0.00000       0.00000    
      6024 IM1H     302      IM1H     H2       HDA3A    0.135000       1.00800           0   0.00000       0.00000    
      6025 IM1H     302      IM1H     H3       HDA3A    0.135000       1.00800           0   0.00000       0.00000    
      6026 IM1H     302      IM1H     N1       ND2R5C    2.35720       13.6070           0 -0.803000       1.00000    
      6027 IM1H     302      IM1H     DN1      DRUD     -2.19920      0.400000           0   0.00000       0.00000    
      6028 IM1H     302      IM1H     C2       CD2R5D    2.44700       11.6110           0  -1.08300       1.10000    
      6029 IM1H     302      IM1H     DC2      DRUD     -2.55400      0.400000           0   0.00000       0.00000    
      6030 IM1H     302      IM1H     H4       HDR5D    0.195000       1.00800           0   0.00000       0.00000    
      6031 IM1H     302      IM1H     C3       CD2R5D    2.50700       11.6110           0  -1.08300       1.10000    
      6032 IM1H     302      IM1H     DC3      DRUD     -2.55400      0.400000           0   0.00000       0.00000    
      6033 IM1H     302      IM1H     H5       HDR5D    0.192000       1.00800           0   0.00000       0.00000    
      6034 IM1H     302      IM1H     C4       CD2R5E    2.72410       11.6110           0  -1.25300       1.20000    
      6035 IM1H     302      IM1H     DC4      DRUD     -2.74710      0.400000           0   0.00000       0.00000    
      6036 IM1H     302      IM1H     H6       HDR5E    0.203000       1.00800           0   0.00000       0.00000    
      6037 IM1H     302      IM1H     N2       ND2R5C    2.04220       13.6070           0 -0.803000       1.00000    
      6038 IM1H     302      IM1H     DN2      DRUD     -2.19920      0.400000           0   0.00000       0.00000    
      6039 IM1H     302      IM1H     H7       HDP1A    0.363000       1.00800           0   0.00000       0.00000    
      6040 IM1H     302      IM1H     LPN21    LPD       0.00000       0.00000          -1   0.00000       0.00000    
      6041 IM1H     303      IM1H     C1       CD33F     2.48500       11.6110           0  -1.18100       1.10000    
      6042 IM1H     303      IM1H     DC1      DRUD     -2.66700      0.400000           0   0.00000       0.00000    
      6043 IM1H     303      IM1H     H1       HDA3A    0.135000       1.00800           0   0.00000       0.00000    
      6044 IM1H     303      IM1H     H2       HDA3A    0.135000       1.00800           0   0.00000       0.00000    
      6045 IM1H     303      IM1H     H3       HDA3A    0.135000       1.00800           0   0.00000       0.00000    
      6046 IM1H     303      IM1H     N1       ND2R5C    2.35720       13.6070           0 -0.803000       1.00000    
      6047 IM1H     303      IM1H     DN1      DRUD     -2.19920      0.400000           0   0.00000       0.00000    
      6048 IM1H     303      IM1H     C2       CD2R5D    2.44700       11.6110           0  -1.08300       1.10000    
      6049 IM1H     303      IM1H     DC2      DRUD     -2.55400      0.400000           0   0.00000       0.00000    
      6050 IM1H     303      IM1H     H4       HDR5D    0.195000       1.00800           0   0.00000       0.00000    
      6051 IM1H     303      IM1H     C3       CD2R5D    2.50700       11.6110           0  -1.08300       1.10000    
      6052 IM1H     303      IM1H     DC3      DRUD     -2.55400      0.400000           0   0.00000       0.00000    
      6053 IM1H     303      IM1H     H5       HDR5D    0.192000       1.00800           0   0.00000       0.00000    
      6054 IM1H     303      IM1H     C4       CD2R5E    2.72410       11.6110           0  -1.25300       1.20000    
      6055 IM1H     303      IM1H     DC4      DRUD     -2.74710      0.400000           0   0.00000       0.00000    
      6056 IM1H     303      IM1H     H6       HDR5E    0.203000       1.00800           0   0.00000       0.00000    
      6057 IM1H     303      IM1H     N2       ND2R5C    2.04220       13.6070           0 -0.803000       1.00000    
      6058 IM1H     303      IM1H     DN2      DRUD     -2.19920      0.400000           0   0.00000       0.00000    
      6059 IM1H     303      IM1H     H7       HDP1A    0.363000       1.00800           0   0.00000       0.00000    
      6060 IM1H     303      IM1H     LPN21    LPD       0.00000       0.00000          -1   0.00000       0.00000    
      6061 IM1H     304      IM1H     C1       CD33F     2.48500       11.6110           0  -1.18100       1.10000    
      6062 IM1H     304      IM1H     DC1      DRUD     -2.66700      0.400000           0   0.00000       0.00000    
      6063 IM1H     304      IM1H     H1       HDA3A    0.135000       1.00800           0   0.00000       0.00000    
      6064 IM1H     304      IM1H     H2       HDA3A    0.135000       1.00800           0   0.00000       0.00000    
      6065 IM1H     304      IM1H     H3       HDA3A    0.135000       1.00800           0   0.00000       0.00000    
      6066 IM1H     304      IM1H     N1       ND2R5C    2.35720       13.6070           0 -0.803000       1.00000    
      6067 IM1H     304      IM1H     DN1      DRUD     -2.19920      0.400000           0   0.00000       0.00000    
      6068 IM1H     304      IM1H     C2       CD2R5D    2.44700       11.6110           0  -1.08300       1.10000    
      6069 IM1H     304      IM1H     DC2      DRUD     -2.55400      0.400000           0   0.00000       0.00000    
      6070 IM1H     304      IM1H     H4       HDR5D    0.195000       1.00800           0   0.00000       0.00000    
      6071 IM1H     304      IM1H     C3       CD2R5D    2.50700       11.6110           0  -1.08300       1.10000    
      6072 IM1H     304      IM1H     DC3      DRUD     -2.55400      0.400000           0   0.00000       0.00000    
      6073 IM1H     304      IM1H     H5       HDR5D    0.192000       1.00800           0   0.00000       0.00000    
      6074 IM1H     304      IM1H     C4       CD2R5E    2.72410       11.6110           0  -1.25300       1.20000    
      6075 IM1H     304      IM1H     DC4      DRUD     -2.74710      0.400000           0   0.00000       0.00000    
      6076 IM1H     304      IM1H     H6       HDR5E    0.203000       1.00800           0   0.00000       0.00000    
      6077 IM1H     304      IM1H     N2       ND2R5C    2.04220       13.6070           0 -0.803000       1.00000    
      6078 IM1H     304      IM1H     DN2      DRUD     -2.19920      0.400000           0   0.00000       0.00000    
      6079 IM1H     304      IM1H     H7       HDP1A    0.363000       1.00800           0   0.00000       0.00000    
      6080 IM1H     304      IM1H     LPN21    LPD       0.00000       0.00000          -1   0.00000       0.00000    
      6081 IM1H     305      IM1H     C1       CD33F     2.48500       11.6110           0  -1.18100       1.10000    
      6082 IM1H     305      IM1H     DC1      DRUD     -2.66700      0.400000           0   0.00000       0.00000    
      6083 IM1H     305      IM1H     H1       HDA3A    0.135000       1.00800           0   0.00000       0.00000    
      6084 IM1H     305      IM1H     H2       HDA3A    0.135000       1.00800           0   0.00000       0.00000    
      6085 IM1H     305      IM1H     H3       HDA3A    0.135000       1.00800           0   0.00000       0.00000    
      6086 IM1H     305      IM1H     N1       ND2R5C    2.35720       13.6070           0 -0.803000       1.00000    
      6087 IM1H     305      IM1H     DN1      DRUD     -2.19920      0.400000           0   0.00000       0.00000    
      6088 IM1H     305      IM1H     C2       CD2R5D    2.44700       11.6110           0  -1.08300       1.10000    
      6089 IM1H     305      IM1H     DC2      DRUD     -2.55400      0.400000           0   0.00000       0.00000    
      6090 IM1H     305      IM1H     H4       HDR5D    0.195000       1.00800           0   0.00000       0.00000    
      6091 IM1H     305      IM1H     C3       CD2R5D    2.50700       11.6110           0  -1.08300       1.10000    
      6092 IM1H     305      IM1H     DC3      DRUD     -2.55400      0.400000           0   0.00000       0.00000    
      6093 IM1H     305      IM1H     H5       HDR5D    0.192000       1.00800           0   0.00000       0.00000    
      6094 IM1H     305      IM1H     C4       CD2R5E    2.72410       11.6110           0  -1.25300       1.20000    
      6095 IM1H     305      IM1H     DC4      DRUD     -2.74710      0.400000           0   0.00000       0.00000    
      6096 IM1H     305      IM1H     H6       HDR5E    0.203000       1.00800           0   0.00000       0.00000    
      6097 IM1H     305      IM1H     N2       ND2R5C    2.04220       13.6070           0 -0.803000       1.00000    
      6098 IM1H     305      IM1H     DN2      DRUD     -2.19920      0.400000           0   0.00000       0.00000    
      6099 IM1H     305      IM1H     H7       HDP1A    0.363000       1.00800           0   0.00000       0.00000    
      6100 IM1H     305      IM1H     LPN21    LPD       0.00000       0.00000          -1   0.00000       0.00000    
      6101 IM1H     306      IM1H     C1       CD33F     2.48500       11.6110           0  -1.18100       1.10000    
      6102 IM1H     306      IM1H     DC1      DRUD     -2.66700      0.400000           0   0.00000       0.00000    
      6103 IM1H     306      IM1H     H1       HDA3A    0.135000       1.00800           0   0.00000       0.00000    
      6104 IM1H     306      IM1H     H2       HDA3A    0.135000       1.00800           0   0.00000       0.00000    
      6105 IM1H     306      IM1H     H3       HDA3A    0.135000       1.00800           0   0.00000       0.00000    
      6106 IM1H     306      IM1H     N1       ND2R5C    2.35720       13.6070           0 -0.803000       1.00000    
      6107 IM1H     306      IM1H     DN1      DRUD     -2.19920      0.400000           0   0.00000       0.00000    
      6108 IM1H     306      IM1H     C2       CD2R5D    2.44700       11.6110           0  -1.08300       1.10000    
      6109 IM1H     306      IM1H     DC2      DRUD     -2.55400      0.400000           0   0.00000       0.00000    
      6110 IM1H     306      IM1H     H4       HDR5D    0.195000       1.00800           0   0.00000       0.00000    
      6111 IM1H     306      IM1H     C3       CD2R5D    2.50700       11.6110           0  -1.08300       1.10000    
      6112 IM1H     306      IM1H     DC3      DRUD     -2.55400      0.400000           0   0.00000       0.00000    
      6113 IM1H     306      IM1H     H5       HDR5D    0.192000       1.00800           0   0.00000       0.00000    
      6114 IM1H     306      IM1H     C4       CD2R5E    2.72410       11.6110           0  -1.25300       1.20000    
      6115 IM1H     306      IM1H     DC4      DRUD     -2.74710      0.400000           0   0.00000       0.00000    
      6116 IM1H     306      IM1H     H6       HDR5E    0.203000       1.00800           0   0.00000       0.00000    
      6117 IM1H     306      IM1H     N2       ND2R5C    2.04220       13.6070           0 -0.803000       1.00000    
      6118 IM1H     306      IM1H     DN2      DRUD     -2.19920      0.400000           0   0.00000       0.00000    
      6119 IM1H     306      IM1H     H7       HDP1A    0.363000       1.00800           0   0.00000       0.00000    
      6120 IM1H     306      IM1H     LPN21    LPD       0.00000       0.00000          -1   0.00000       0.00000    
      6121 IM1H     307      IM1H     C1       CD33F     2.48500       11.6110           0  -1.18100       1.10000    
      6122 IM1H     307      IM1H     DC1      DRUD     -2.66700      0.400000           0   0.00000       0.00000    
      6123 IM1H     307      IM1H     H1       HDA3A    0.135000       1.00800           0   0.00000       0.00000    
      6124 IM1H     307      IM1H     H2       HDA3A    0.135000       1.00800           0   0.00000       0.00000    
      6125 IM1H     307      IM1H     H3       HDA3A    0.135000       1.00800           0   0.00000       0.00000    
      6126 IM1H     307      IM1H     N1       ND2R5C    2.35720       13.6070           0 -0.803000       1.00000    
      6127 IM1H     307      IM1H     DN1      DRUD     -2.19920      0.400000           0   0.00000       0.00000    
      6128 IM1H     307      IM1H     C2       CD2R5D    2.44700       11.6110           0  -1.08300       1.10000    
      6129 IM1H     307      IM1H     DC2      DRUD     -2.55400      0.400000           0   0.00000       0.00000    
      6130 IM1H     307      IM1H     H4       HDR5D    0.195000       1.00800           0   0.00000       0.00000    
      6131 IM1H     307      IM1H     C3       CD2R5D    2.50700       11.6110           0  -1.08300       1.10000    
      6132 IM1H     307      IM1H     DC3      DRUD     -2.55400      0.400000           0   0.00000       0.00000    
      6133 IM1H     307      IM1H     H5       HDR5D    0.192000       1.00800           0   0.00000       0.00000    
      6134 IM1H     307      IM1H     C4       CD2R5E    2.72410       11.6110           0  -1.25300       1.20000    
      6135 IM1H     307      IM1H     DC4      DRUD     -2.74710      0.400000           0   0.00000       0.00000    
      6136 IM1H     307      IM1H     H6       HDR5E    0.203000       1.00800           0   0.00000       0.00000    
      6137 IM1H     307      IM1H     N2       ND2R5C    2.04220       13.6070           0 -0.803000       1.00000    
      6138 IM1H     307      IM1H     DN2      DRUD     -2.19920      0.400000           0   0.00000       0.00000    
      6139 IM1H     307      IM1H     H7       HDP1A    0.363000       1.00800           0   0.00000       0.00000    
      6140 IM1H     307      IM1H     LPN21    LPD       0.00000       0.00000          -1   0.00000       0.00000    
      6141 IM1H     308      IM1H     C1       CD33F     2.48500       11.6110           0  -1.18100       1.10000    
      6142 IM1H     308      IM1H     DC1      DRUD     -2.66700      0.400000           0   0.00000       0.00000    
      6143 IM1H     308      IM1H     H1       HDA3A    0.135000       1.00800           0   0.00000       0.00000    
      6144 IM1H     308      IM1H     H2       HDA3A    0.135000       1.00800           0   0.00000       0.00000    
      6145 IM1H     308      IM1H     H3       HDA3A    0.135000       1.00800           0   0.00000       0.00000    
      6146 IM1H     308      IM1H     N1       ND2R5C    2.35720       13.6070           0 -0.803000       1.00000    
      6147 IM1H     308      IM1H     DN1      DRUD     -2.19920      0.400000           0   0.00000       0.00000    
      6148 IM1H     308      IM1H     C2       CD2R5D    2.44700       11.6110           0  -1.08300       1.10000    
      6149 IM1H     308      IM1H     DC2      DRUD     -2.55400      0.400000           0   0.00000       0.00000    
      6150 IM1H     308      IM1H     H4       HDR5D    0.195000       1.00800           0   0.00000       0.00000    
      6151 IM1H     308      IM1H     C3       CD2R5D    2.50700       11.6110           0  -1.08300       1.10000    
      6152 IM1H     308      IM1H     DC3      DRUD     -2.55400      0.400000           0   0.00000       0.00000    
      6153 IM1H     308      IM1H     H5       HDR5D    0.192000       1.00800           0   0.00000       0.00000    
      6154 IM1H     308      IM1H     C4       CD2R5E    2.72410       11.6110           0  -1.25300       1.20000    
      6155 IM1H     308      IM1H     DC4      DRUD     -2.74710      0.400000           0   0.00000       0.00000    
      6156 IM1H     308      IM1H     H6       HDR5E    0.203000       1.00800           0   0.00000       0.00000    
      6157 IM1H     308      IM1H     N2       ND2R5C    2.04220       13.6070           0 -0.803000       1.00000    
      6158 IM1H     308      IM1H     DN2      DRUD     -2.19920      0.400000           0   0.00000       0.00000    
      6159 IM1H     308      IM1H     H7       HDP1A    0.363000       1.00800           0   0.00000       0.00000    
      6160 IM1H     308      IM1H     LPN21    LPD       0.00000       0.00000          -1   0.00000       0.00000    
      6161 IM1H     309      IM1H     C1       CD33F     2.48500       11.6110           0  -1.18100       1.10000    
      6162 IM1H     309      IM1H     DC1      DRUD     -2.66700      0.400000           0   0.00000       0.00000    
      6163 IM1H     309      IM1H     H1       HDA3A    0.135000       1.00800           0   0.00000       0.00000    
      6164 IM1H     309      IM1H     H2       HDA3A    0.135000       1.00800           0   0.00000       0.00000    
      6165 IM1H     309      IM1H     H3       HDA3A    0.135000       1.00800           0   0.00000       0.00000    
      6166 IM1H     309      IM1H     N1       ND2R5C    2.35720       13.6070           0 -0.803000       1.00000    
      6167 IM1H     309      IM1H     DN1      DRUD     -2.19920      0.400000           0   0.00000       0.00000    
      6168 IM1H     309      IM1H     C2       CD2R5D    2.44700       11.6110           0  -1.08300       1.10000    
      6169 IM1H     309      IM1H     DC2      DRUD     -2.55400      0.400000           0   0.00000       0.00000    
      6170 IM1H     309      IM1H     H4       HDR5D    0.195000       1.00800           0   0.00000       0.00000    
      6171 IM1H     309      IM1H     C3       CD2R5D    2.50700       11.6110           0  -1.08300       1.10000    
      6172 IM1H     309      IM1H     DC3      DRUD     -2.55400      0.400000           0   0.00000       0.00000    
      6173 IM1H     309      IM1H     H5       HDR5D    0.192000       1.00800           0   0.00000       0.00000    
      6174 IM1H     309      IM1H     C4       CD2R5E    2.72410       11.6110           0  -1.25300       1.20000    
      6175 IM1H     309      IM1H     DC4      DRUD     -2.74710      0.400000           0   0.00000       0.00000    
      6176 IM1H     309      IM1H     H6       HDR5E    0.203000       1.00800           0   0.00000       0.00000    
      6177 IM1H     309      IM1H     N2       ND2R5C    2.04220       13.6070           0 -0.803000       1.00000    
      6178 IM1H     309      IM1H     DN2      DRUD     -2.19920      0.400000           0   0.00000       0.00000    
      6179 IM1H     309      IM1H     H7       HDP1A    0.363000       1.00800           0   0.00000       0.00000    
      6180 IM1H     309      IM1H     LPN21    LPD       0.00000       0.00000          -1   0.00000       0.00000    
      6181 IM1H     310      IM1H     C1       CD33F     2.48500       11.6110           0  -1.18100       1.10000    
      6182 IM1H     310      IM1H     DC1      DRUD     -2.66700      0.400000           0   0.00000       0.00000    
      6183 IM1H     310      IM1H     H1       HDA3A    0.135000       1.00800           0   0.00000       0.00000    
      6184 IM1H     310      IM1H     H2       HDA3A    0.135000       1.00800           0   0.00000       0.00000    
      6185 IM1H     310      IM1H     H3       HDA3A    0.135000       1.00800           0   0.00000       0.00000    
      6186 IM1H     310      IM1H     N1       ND2R5C    2.35720       13.6070           0 -0.803000       1.00000    
      6187 IM1H     310      IM1H     DN1      DRUD     -2.19920      0.400000           0   0.00000       0.00000    
      6188 IM1H     310      IM1H     C2       CD2R5D    2.44700       11.6110           0  -1.08300       1.10000    
      6189 IM1H     310      IM1H     DC2      DRUD     -2.55400      0.400000           0   0.00000       0.00000    
      6190 IM1H     310      IM1H     H4       HDR5D    0.195000       1.00800           0   0.00000       0.00000    
      6191 IM1H     310      IM1H     C3       CD2R5D    2.50700       11.6110           0  -1.08300       1.10000    
      6192 IM1H     310      IM1H     DC3      DRUD     -2.55400      0.400000           0   0.00000       0.00000    
      6193 IM1H     310      IM1H     H5       HDR5D    0.192000       1.00800           0   0.00000       0.00000    
      6194 IM1H     310      IM1H     C4       CD2R5E    2.72410       11.6110           0  -1.25300       1.20000    
      6195 IM1H     310      IM1H     DC4      DRUD     -2.74710      0.400000           0   0.00000       0.00000    
      6196 IM1H     310      IM1H     H6       HDR5E    0.203000       1.00800           0   0.00000       0.00000    
      6197 IM1H     310      IM1H     N2       ND2R5C    2.04220       13.6070           0 -0.803000       1.00000    
      6198 IM1H     310      IM1H     DN2      DRUD     -2.19920      0.400000           0   0.00000       0.00000    
      6199 IM1H     310      IM1H     H7       HDP1A    0.363000       1.00800           0   0.00000       0.00000    
      6200 IM1H     310      IM1H     LPN21    LPD       0.00000       0.00000          -1   0.00000       0.00000    
      6201 IM1H     311      IM1H     C1       CD33F     2.48500       11.6110           0  -1.18100       1.10000    
      6202 IM1H     311      IM1H     DC1      DRUD     -2.66700      0.400000           0   0.00000       0.00000    
      6203 IM1H     311      IM1H     H1       HDA3A    0.135000       1.00800           0   0.00000       0.00000    
      6204 IM1H     311      IM1H     H2       HDA3A    0.135000       1.00800           0   0.00000       0.00000    
      6205 IM1H     311      IM1H     H3       HDA3A    0.135000       1.00800           0   0.00000       0.00000    
      6206 IM1H     311      IM1H     N1       ND2R5C    2.35720       13.6070           0 -0.803000       1.00000    
      6207 IM1H     311      IM1H     DN1      DRUD     -2.19920      0.400000           0   0.00000       0.00000    
      6208 IM1H     311      IM1H     C2       CD2R5D    2.44700       11.6110           0  -1.08300       1.10000    
      6209 IM1H     311      IM1H     DC2      DRUD     -2.55400      0.400000           0   0.00000       0.00000    
      6210 IM1H     311      IM1H     H4       HDR5D    0.195000       1.00800           0   0.00000       0.00000    
      6211 IM1H     311      IM1H     C3       CD2R5D    2.50700       11.6110           0  -1.08300       1.10000    
      6212 IM1H     311      IM1H     DC3      DRUD     -2.55400      0.400000           0   0.00000       0.00000    
      6213 IM1H     311      IM1H     H5       HDR5D    0.192000       1.00800           0   0.00000       0.00000    
      6214 IM1H     311      IM1H     C4       CD2R5E    2.72410       11.6110           0  -1.25300       1.20000    
      6215 IM1H     311      IM1H     DC4      DRUD     -2.74710      0.400000           0   0.00000       0.00000    
      6216 IM1H     311      IM1H     H6       HDR5E    0.203000       1.00800           0   0.00000       0.00000    
      6217 IM1H     311      IM1H     N2       ND2R5C    2.04220       13.6070           0 -0.803000       1.00000    
      6218 IM1H     311      IM1H     DN2      DRUD     -2.19920      0.400000           0   0.00000       0.00000    
      6219 IM1H     311      IM1H     H7       HDP1A    0.363000       1.00800           0   0.00000       0.00000    
      6220 IM1H     311      IM1H     LPN21    LPD       0.00000       0.00000          -1   0.00000       0.00000    
      6221 IM1H     312      IM1H     C1       CD33F     2.48500       11.6110           0  -1.18100       1.10000    
      6222 IM1H     312      IM1H     DC1      DRUD     -2.66700      0.400000           0   0.00000       0.00000    
      6223 IM1H     312      IM1H     H1       HDA3A    0.135000       1.00800           0   0.00000       0.00000    
      6224 IM1H     312      IM1H     H2       HDA3A    0.135000       1.00800           0   0.00000       0.00000    
      6225 IM1H     312      IM1H     H3       HDA3A    0.135000       1.00800           0   0.00000       0.00000    
      6226 IM1H     312      IM1H     N1       ND2R5C    2.35720       13.6070           0 -0.803000       1.00000    
      6227 IM1H     312      IM1H     DN1      DRUD     -2.19920      0.400000           0   0.00000       0.00000    
      6228 IM1H     312      IM1H     C2       CD2R5D    2.44700       11.6110           0  -1.08300       1.10000    
      6229 IM1H     312      IM1H     DC2      DRUD     -2.55400      0.400000           0   0.00000       0.00000    
      6230 IM1H     312      IM1H     H4       HDR5D    0.195000       1.00800           0   0.00000       0.00000    
      6231 IM1H     312      IM1H     C3       CD2R5D    2.50700       11.6110           0  -1.08300       1.10000    
      6232 IM1H     312      IM1H     DC3      DRUD     -2.55400      0.400000           0   0.00000       0.00000    
      6233 IM1H     312      IM1H     H5       HDR5D    0.192000       1.00800           0   0.00000       0.00000    
      6234 IM1H     312      IM1H     C4       CD2R5E    2.72410       11.6110           0  -1.25300       1.20000    
      6235 IM1H     312      IM1H     DC4      DRUD     -2.74710      0.400000           0   0.00000       0.00000    
      6236 IM1H     312      IM1H     H6       HDR5E    0.203000       1.00800           0   0.00000       0.00000    
      6237 IM1H     312      IM1H     N2       ND2R5C    2.04220       13.6070           0 -0.803000       1.00000    
      6238 IM1H     312      IM1H     DN2      DRUD     -2.19920      0.400000           0   0.00000       0.00000    
      6239 IM1H     312      IM1H     H7       HDP1A    0.363000       1.00800           0   0.00000       0.00000    
      6240 IM1H     312      IM1H     LPN21    LPD       0.00000       0.00000          -1   0.00000       0.00000    
      6241 IM1H     313      IM1H     C1       CD33F     2.48500       11.6110           0  -1.18100       1.10000    
      6242 IM1H     313      IM1H     DC1      DRUD     -2.66700      0.400000           0   0.00000       0.00000    
      6243 IM1H     313      IM1H     H1       HDA3A    0.135000       1.00800           0   0.00000       0.00000    
      6244 IM1H     313      IM1H     H2       HDA3A    0.135000       1.00800           0   0.00000       0.00000    
      6245 IM1H     313      IM1H     H3       HDA3A    0.135000       1.00800           0   0.00000       0.00000    
      6246 IM1H     313      IM1H     N1       ND2R5C    2.35720       13.6070           0 -0.803000       1.00000    
      6247 IM1H     313      IM1H     DN1      DRUD     -2.19920      0.400000           0   0.00000       0.00000    
      6248 IM1H     313      IM1H     C2       CD2R5D    2.44700       11.6110           0  -1.08300       1.10000    
      6249 IM1H     313      IM1H     DC2      DRUD     -2.55400      0.400000           0   0.00000       0.00000    
      6250 IM1H     313      IM1H     H4       HDR5D    0.195000       1.00800           0   0.00000       0.00000    
      6251 IM1H     313      IM1H     C3       CD2R5D    2.50700       11.6110           0  -1.08300       1.10000    
      6252 IM1H     313      IM1H     DC3      DRUD     -2.55400      0.400000           0   0.00000       0.00000    
      6253 IM1H     313      IM1H     H5       HDR5D    0.192000       1.00800           0   0.00000       0.00000    
      6254 IM1H     313      IM1H     C4       CD2R5E    2.72410       11.6110           0  -1.25300       1.20000    
      6255 IM1H     313      IM1H     DC4      DRUD     -2.74710      0.400000           0   0.00000       0.00000    
      6256 IM1H     313      IM1H     H6       HDR5E    0.203000       1.00800           0   0.00000       0.00000    
      6257 IM1H     313      IM1H     N2       ND2R5C    2.04220       13.6070           0 -0.803000       1.00000    
      6258 IM1H     313      IM1H     DN2      DRUD     -2.19920      0.400000           0   0.00000       0.00000    
      6259 IM1H     313      IM1H     H7       HDP1A    0.363000       1.00800           0   0.00000       0.00000    
      6260 IM1H     313      IM1H     LPN21    LPD       0.00000       0.00000          -1   0.00000       0.00000    
      6261 IM1H     314      IM1H     C1       CD33F     2.48500       11.6110           0  -1.18100       1.10000    
      6262 IM1H     314      IM1H     DC1      DRUD     -2.66700      0.400000           0   0.00000       0.00000    
      6263 IM1H     314      IM1H     H1       HDA3A    0.135000       1.00800           0   0.00000       0.00000    
      6264 IM1H     314      IM1H     H2       HDA3A    0.135000       1.00800           0   0.00000       0.00000    
      6265 IM1H     314      IM1H     H3       HDA3A    0.135000       1.00800           0   0.00000       0.00000    
      6266 IM1H     314      IM1H     N1       ND2R5C    2.35720       13.6070           0 -0.803000       1.00000    
      6267 IM1H     314      IM1H     DN1      DRUD     -2.19920      0.400000           0   0.00000       0.00000    
      6268 IM1H     314      IM1H     C2       CD2R5D    2.44700       11.6110           0  -1.08300       1.10000    
      6269 IM1H     314      IM1H     DC2      DRUD     -2.55400      0.400000           0   0.00000       0.00000    
      6270 IM1H     314      IM1H     H4       HDR5D    0.195000       1.00800           0   0.00000       0.00000    
      6271 IM1H     314      IM1H     C3       CD2R5D    2.50700       11.6110           0  -1.08300       1.10000    
      6272 IM1H     314      IM1H     DC3      DRUD     -2.55400      0.400000           0   0.00000       0.00000    
      6273 IM1H     314      IM1H     H5       HDR5D    0.192000       1.00800           0   0.00000       0.00000    
      6274 IM1H     314      IM1H     C4       CD2R5E    2.72410       11.6110           0  -1.25300       1.20000    
      6275 IM1H     314      IM1H     DC4      DRUD     -2.74710      0.400000           0   0.00000       0.00000    
      6276 IM1H     314      IM1H     H6       HDR5E    0.203000       1.00800           0   0.00000       0.00000    
      6277 IM1H     314      IM1H     N2       ND2R5C    2.04220       13.6070           0 -0.803000       1.00000    
      6278 IM1H     314      IM1H     DN2      DRUD     -2.19920      0.400000           0   0.00000       0.00000    
      6279 IM1H     314      IM1H     H7       HDP1A    0.363000       1.00800           0   0.00000       0.00000    
      6280 IM1H     314      IM1H     LPN21    LPD       0.00000       0.00000          -1   0.00000       0.00000    
      6281 IM1H     315      IM1H     C1       CD33F     2.48500       11.6110           0  -1.18100       1.10000    
      6282 IM1H     315      IM1H     DC1      DRUD     -2.66700      0.400000           0   0.00000       0.00000    
      6283 IM1H     315      IM1H     H1       HDA3A    0.135000       1.00800           0   0.00000       0.00000    
      6284 IM1H     315      IM1H     H2       HDA3A    0.135000       1.00800           0   0.00000       0.00000    
      6285 IM1H     315      IM1H     H3       HDA3A    0.135000       1.00800           0   0.00000       0.00000    
      6286 IM1H     315      IM1H     N1       ND2R5C    2.35720       13.6070           0 -0.803000       1.00000    
      6287 IM1H     315      IM1H     DN1      DRUD     -2.19920      0.400000           0   0.00000       0.00000    
      6288 IM1H     315      IM1H     C2       CD2R5D    2.44700       11.6110           0  -1.08300       1.10000    
      6289 IM1H     315      IM1H     DC2      DRUD     -2.55400      0.400000           0   0.00000       0.00000    
      6290 IM1H     315      IM1H     H4       HDR5D    0.195000       1.00800           0   0.00000       0.00000    
      6291 IM1H     315      IM1H     C3       CD2R5D    2.50700       11.6110           0  -1.08300       1.10000    
      6292 IM1H     315      IM1H     DC3      DRUD     -2.55400      0.400000           0   0.00000       0.00000    
      6293 IM1H     315      IM1H     H5       HDR5D    0.192000       1.00800           0   0.00000       0.00000    
      6294 IM1H     315      IM1H     C4       CD2R5E    2.72410       11.6110           0  -1.25300       1.20000    
      6295 IM1H     315      IM1H     DC4      DRUD     -2.74710      0.400000           0   0.00000       0.00000    
      6296 IM1H     315      IM1H     H6       HDR5E    0.203000       1.00800           0   0.00000       0.00000    
      6297 IM1H     315      IM1H     N2       ND2R5C    2.04220       13.6070           0 -0.803000       1.00000    
      6298 IM1H     315      IM1H     DN2      DRUD     -2.19920      0.400000           0   0.00000       0.00000    
      6299 IM1H     315      IM1H     H7       HDP1A    0.363000       1.00800           0   0.00000       0.00000    
      6300 IM1H     315      IM1H     LPN21    LPD       0.00000       0.00000          -1   0.00000       0.00000    
      6301 IM1H     316      IM1H     C1       CD33F     2.48500       11.6110           0  -1.18100       1.10000    
      6302 IM1H     316      IM1H     DC1      DRUD     -2.66700      0.400000           0   0.00000       0.00000    
      6303 IM1H     316      IM1H     H1       HDA3A    0.135000       1.00800           0   0.00000       0.00000    
      6304 IM1H     316      IM1H     H2       HDA3A    0.135000       1.00800           0   0.00000       0.00000    
      6305 IM1H     316      IM1H     H3       HDA3A    0.135000       1.00800           0   0.00000       0.00000    
      6306 IM1H     316      IM1H     N1       ND2R5C    2.35720       13.6070           0 -0.803000       1.00000    
      6307 IM1H     316      IM1H     DN1      DRUD     -2.19920      0.400000           0   0.00000       0.00000    
      6308 IM1H     316      IM1H     C2       CD2R5D    2.44700       11.6110           0  -1.08300       1.10000    
      6309 IM1H     316      IM1H     DC2      DRUD     -2.55400      0.400000           0   0.00000       0.00000    
      6310 IM1H     316      IM1H     H4       HDR5D    0.195000       1.00800           0   0.00000       0.00000    
      6311 IM1H     316      IM1H     C3       CD2R5D    2.50700       11.6110           0  -1.08300       1.10000    
      6312 IM1H     316      IM1H     DC3      DRUD     -2.55400      0.400000           0   0.00000       0.00000    
      6313 IM1H     316      IM1H     H5       HDR5D    0.192000       1.00800           0   0.00000       0.00000    
      6314 IM1H     316      IM1H     C4       CD2R5E    2.72410       11.6110           0  -1.25300       1.20000    
      6315 IM1H     316      IM1H     DC4      DRUD     -2.74710      0.400000           0   0.00000       0.00000    
      6316 IM1H     316      IM1H     H6       HDR5E    0.203000       1.00800           0   0.00000       0.00000    
      6317 IM1H     316      IM1H     N2       ND2R5C    2.04220       13.6070           0 -0.803000       1.00000    
      6318 IM1H     316      IM1H     DN2      DRUD     -2.19920      0.400000           0   0.00000       0.00000    
      6319 IM1H     316      IM1H     H7       HDP1A    0.363000       1.00800           0   0.00000       0.00000    
      6320 IM1H     316      IM1H     LPN21    LPD       0.00000       0.00000          -1   0.00000       0.00000    
      6321 IM1H     317      IM1H     C1       CD33F     2.48500       11.6110           0  -1.18100       1.10000    
      6322 IM1H     317      IM1H     DC1      DRUD     -2.66700      0.400000           0   0.00000       0.00000    
      6323 IM1H     317      IM1H     H1       HDA3A    0.135000       1.00800           0   0.00000       0.00000    
      6324 IM1H     317      IM1H     H2       HDA3A    0.135000       1.00800           0   0.00000       0.00000    
      6325 IM1H     317      IM1H     H3       HDA3A    0.135000       1.00800           0   0.00000       0.00000    
      6326 IM1H     317      IM1H     N1       ND2R5C    2.35720       13.6070           0 -0.803000       1.00000    
      6327 IM1H     317      IM1H     DN1      DRUD     -2.19920      0.400000           0   0.00000       0.00000    
      6328 IM1H     317      IM1H     C2       CD2R5D    2.44700       11.6110           0  -1.08300       1.10000    
      6329 IM1H     317      IM1H     DC2      DRUD     -2.55400      0.400000           0   0.00000       0.00000    
      6330 IM1H     317      IM1H     H4       HDR5D    0.195000       1.00800           0   0.00000       0.00000    
      6331 IM1H     317      IM1H     C3       CD2R5D    2.50700       11.6110           0  -1.08300       1.10000    
      6332 IM1H     317      IM1H     DC3      DRUD     -2.55400      0.400000           0   0.00000       0.00000    
      6333 IM1H     317      IM1H     H5       HDR5D    0.192000       1.00800           0   0.00000       0.00000    
      6334 IM1H     317      IM1H     C4       CD2R5E    2.72410       11.6110           0  -1.25300       1.20000    
      6335 IM1H     317      IM1H     DC4      DRUD     -2.74710      0.400000           0   0.00000       0.00000    
      6336 IM1H     317      IM1H     H6       HDR5E    0.203000       1.00800           0   0.00000       0.00000    
      6337 IM1H     317      IM1H     N2       ND2R5C    2.04220       13.6070           0 -0.803000       1.00000    
      6338 IM1H     317      IM1H     DN2      DRUD     -2.19920      0.400000           0   0.00000       0.00000    
      6339 IM1H     317      IM1H     H7       HDP1A    0.363000       1.00800           0   0.00000       0.00000    
      6340 IM1H     317      IM1H     LPN21    LPD       0.00000       0.00000          -1   0.00000       0.00000    
      6341 IM1H     318      IM1H     C1       CD33F     2.48500       11.6110           0  -1.18100       1.10000    
      6342 IM1H     318      IM1H     DC1      DRUD     -2.66700      0.400000           0   0.00000       0.00000    
      6343 IM1H     318      IM1H     H1       HDA3A    0.135000       1.00800           0   0.00000       0.00000    
      6344 IM1H     318      IM1H     H2       HDA3A    0.135000       1.00800           0   0.00000       0.00000    
      6345 IM1H     318      IM1H     H3       HDA3A    0.135000       1.00800           0   0.00000       0.00000    
      6346 IM1H     318      IM1H     N1       ND2R5C    2.35720       13.6070           0 -0.803000       1.00000    
      6347 IM1H     318      IM1H     DN1      DRUD     -2.19920      0.400000           0   0.00000       0.00000    
      6348 IM1H     318      IM1H     C2       CD2R5D    2.44700       11.6110           0  -1.08300       1.10000    
      6349 IM1H     318      IM1H     DC2      DRUD     -2.55400      0.400000           0   0.00000       0.00000    
      6350 IM1H     318      IM1H     H4       HDR5D    0.195000       1.00800           0   0.00000       0.00000    
      6351 IM1H     318      IM1H     C3       CD2R5D    2.50700       11.6110           0  -1.08300       1.10000    
      6352 IM1H     318      IM1H     DC3      DRUD     -2.55400      0.400000           0   0.00000       0.00000    
      6353 IM1H     318      IM1H     H5       HDR5D    0.192000       1.00800           0   0.00000       0.00000    
      6354 IM1H     318      IM1H     C4       CD2R5E    2.72410       11.6110           0  -1.25300       1.20000    
      6355 IM1H     318      IM1H     DC4      DRUD     -2.74710      0.400000           0   0.00000       0.00000    
      6356 IM1H     318      IM1H     H6       HDR5E    0.203000       1.00800           0   0.00000       0.00000    
      6357 IM1H     318      IM1H     N2       ND2R5C    2.04220       13.6070           0 -0.803000       1.00000    
      6358 IM1H     318      IM1H     DN2      DRUD     -2.19920      0.400000           0   0.00000       0.00000    
      6359 IM1H     318      IM1H     H7       HDP1A    0.363000       1.00800           0   0.00000       0.00000    
      6360 IM1H     318      IM1H     LPN21    LPD       0.00000       0.00000          -1   0.00000       0.00000    
      6361 IM1H     319      IM1H     C1       CD33F     2.48500       11.6110           0  -1.18100       1.10000    
      6362 IM1H     319      IM1H     DC1      DRUD     -2.66700      0.400000           0   0.00000       0.00000    
      6363 IM1H     319      IM1H     H1       HDA3A    0.135000       1.00800           0   0.00000       0.00000    
      6364 IM1H     319      IM1H     H2       HDA3A    0.135000       1.00800           0   0.00000       0.00000    
      6365 IM1H     319      IM1H     H3       HDA3A    0.135000       1.00800           0   0.00000       0.00000    
      6366 IM1H     319      IM1H     N1       ND2R5C    2.35720       13.6070           0 -0.803000       1.00000    
      6367 IM1H     319      IM1H     DN1      DRUD     -2.19920      0.400000           0   0.00000       0.00000    
      6368 IM1H     319      IM1H     C2       CD2R5D    2.44700       11.6110           0  -1.08300       1.10000    
      6369 IM1H     319      IM1H     DC2      DRUD     -2.55400      0.400000           0   0.00000       0.00000    
      6370 IM1H     319      IM1H     H4       HDR5D    0.195000       1.00800           0   0.00000       0.00000    
      6371 IM1H     319      IM1H     C3       CD2R5D    2.50700       11.6110           0  -1.08300       1.10000    
      6372 IM1H     319      IM1H     DC3      DRUD     -2.55400      0.400000           0   0.00000       0.00000    
      6373 IM1H     319      IM1H     H5       HDR5D    0.192000       1.00800           0   0.00000       0.00000    
      6374 IM1H     319      IM1H     C4       CD2R5E    2.72410       11.6110           0  -1.25300       1.20000    
      6375 IM1H     319      IM1H     DC4      DRUD     -2.74710      0.400000           0   0.00000       0.00000    
      6376 IM1H     319      IM1H     H6       HDR5E    0.203000       1.00800           0   0.00000       0.00000    
      6377 IM1H     319      IM1H     N2       ND2R5C    2.04220       13.6070           0 -0.803000       1.00000    
      6378 IM1H     319      IM1H     DN2      DRUD     -2.19920      0.400000           0   0.00000       0.00000    
      6379 IM1H     319      IM1H     H7       HDP1A    0.363000       1.00800           0   0.00000       0.00000    
      6380 IM1H     319      IM1H     LPN21    LPD       0.00000       0.00000          -1   0.00000       0.00000    
      6381 IM1H     320      IM1H     C1       CD33F     2.48500       11.6110           0  -1.18100       1.10000    
      6382 IM1H     320      IM1H     DC1      DRUD     -2.66700      0.400000           0   0.00000       0.00000    
      6383 IM1H     320      IM1H     H1       HDA3A    0.135000       1.00800           0   0.00000       0.00000    
      6384 IM1H     320      IM1H     H2       HDA3A    0.135000       1.00800           0   0.00000       0.00000    
      6385 IM1H     320      IM1H     H3       HDA3A    0.135000       1.00800           0   0.00000       0.00000    
      6386 IM1H     320      IM1H     N1       ND2R5C    2.35720       13.6070           0 -0.803000       1.00000    
      6387 IM1H     320      IM1H     DN1      DRUD     -2.19920      0.400000           0   0.00000       0.00000    
      6388 IM1H     320      IM1H     C2       CD2R5D    2.44700       11.6110           0  -1.08300       1.10000    
      6389 IM1H     320      IM1H     DC2      DRUD     -2.55400      0.400000           0   0.00000       0.00000    
      6390 IM1H     320      IM1H     H4       HDR5D    0.195000       1.00800           0   0.00000       0.00000    
      6391 IM1H     320      IM1H     C3       CD2R5D    2.50700       11.6110           0  -1.08300       1.10000    
      6392 IM1H     320      IM1H     DC3      DRUD     -2.55400      0.400000           0   0.00000       0.00000    
      6393 IM1H     320      IM1H     H5       HDR5D    0.192000       1.00800           0   0.00000       0.00000    
      6394 IM1H     320      IM1H     C4       CD2R5E    2.72410       11.6110           0  -1.25300       1.20000    
      6395 IM1H     320      IM1H     DC4      DRUD     -2.74710      0.400000           0   0.00000       0.00000    
      6396 IM1H     320      IM1H     H6       HDR5E    0.203000       1.00800           0   0.00000       0.00000    
      6397 IM1H     320      IM1H     N2       ND2R5C    2.04220       13.6070           0 -0.803000       1.00000    
      6398 IM1H     320      IM1H     DN2      DRUD     -2.19920      0.400000           0   0.00000       0.00000    
      6399 IM1H     320      IM1H     H7       HDP1A    0.363000       1.00800           0   0.00000       0.00000    
      6400 IM1H     320      IM1H     LPN21    LPD       0.00000       0.00000          -1   0.00000       0.00000    
      6401 IM1H     321      IM1H     C1       CD33F     2.48500       11.6110           0  -1.18100       1.10000    
      6402 IM1H     321      IM1H     DC1      DRUD     -2.66700      0.400000           0   0.00000       0.00000    
      6403 IM1H     321      IM1H     H1       HDA3A    0.135000       1.00800           0   0.00000       0.00000    
      6404 IM1H     321      IM1H     H2       HDA3A    0.135000       1.00800           0   0.00000       0.00000    
      6405 IM1H     321      IM1H     H3       HDA3A    0.135000       1.00800           0   0.00000       0.00000    
      6406 IM1H     321      IM1H     N1       ND2R5C    2.35720       13.6070           0 -0.803000       1.00000    
      6407 IM1H     321      IM1H     DN1      DRUD     -2.19920      0.400000           0   0.00000       0.00000    
      6408 IM1H     321      IM1H     C2       CD2R5D    2.44700       11.6110           0  -1.08300       1.10000    
      6409 IM1H     321      IM1H     DC2      DRUD     -2.55400      0.400000           0   0.00000       0.00000    
      6410 IM1H     321      IM1H     H4       HDR5D    0.195000       1.00800           0   0.00000       0.00000    
      6411 IM1H     321      IM1H     C3       CD2R5D    2.50700       11.6110           0  -1.08300       1.10000    
      6412 IM1H     321      IM1H     DC3      DRUD     -2.55400      0.400000           0   0.00000       0.00000    
      6413 IM1H     321      IM1H     H5       HDR5D    0.192000       1.00800           0   0.00000       0.00000    
      6414 IM1H     321      IM1H     C4       CD2R5E    2.72410       11.6110           0  -1.25300       1.20000    
      6415 IM1H     321      IM1H     DC4      DRUD     -2.74710      0.400000           0   0.00000       0.00000    
      6416 IM1H     321      IM1H     H6       HDR5E    0.203000       1.00800           0   0.00000       0.00000    
      6417 IM1H     321      IM1H     N2       ND2R5C    2.04220       13.6070           0 -0.803000       1.00000    
      6418 IM1H     321      IM1H     DN2      DRUD     -2.19920      0.400000           0   0.00000       0.00000    
      6419 IM1H     321      IM1H     H7       HDP1A    0.363000       1.00800           0   0.00000       0.00000    
      6420 IM1H     321      IM1H     LPN21    LPD       0.00000       0.00000          -1   0.00000       0.00000    
      6421 IM1H     322      IM1H     C1       CD33F     2.48500       11.6110           0  -1.18100       1.10000    
      6422 IM1H     322      IM1H     DC1      DRUD     -2.66700      0.400000           0   0.00000       0.00000    
      6423 IM1H     322      IM1H     H1       HDA3A    0.135000       1.00800           0   0.00000       0.00000    
      6424 IM1H     322      IM1H     H2       HDA3A    0.135000       1.00800           0   0.00000       0.00000    
      6425 IM1H     322      IM1H     H3       HDA3A    0.135000       1.00800           0   0.00000       0.00000    
      6426 IM1H     322      IM1H     N1       ND2R5C    2.35720       13.6070           0 -0.803000       1.00000    
      6427 IM1H     322      IM1H     DN1      DRUD     -2.19920      0.400000           0   0.00000       0.00000    
      6428 IM1H     322      IM1H     C2       CD2R5D    2.44700       11.6110           0  -1.08300       1.10000    
      6429 IM1H     322      IM1H     DC2      DRUD     -2.55400      0.400000           0   0.00000       0.00000    
      6430 IM1H     322      IM1H     H4       HDR5D    0.195000       1.00800           0   0.00000       0.00000    
      6431 IM1H     322      IM1H     C3       CD2R5D    2.50700       11.6110           0  -1.08300       1.10000    
      6432 IM1H     322      IM1H     DC3      DRUD     -2.55400      0.400000           0   0.00000       0.00000    
      6433 IM1H     322      IM1H     H5       HDR5D    0.192000       1.00800           0   0.00000       0.00000    
      6434 IM1H     322      IM1H     C4       CD2R5E    2.72410       11.6110           0  -1.25300       1.20000    
      6435 IM1H     322      IM1H     DC4      DRUD     -2.74710      0.400000           0   0.00000       0.00000    
      6436 IM1H     322      IM1H     H6       HDR5E    0.203000       1.00800           0   0.00000       0.00000    
      6437 IM1H     322      IM1H     N2       ND2R5C    2.04220       13.6070           0 -0.803000       1.00000    
      6438 IM1H     322      IM1H     DN2      DRUD     -2.19920      0.400000           0   0.00000       0.00000    
      6439 IM1H     322      IM1H     H7       HDP1A    0.363000       1.00800           0   0.00000       0.00000    
      6440 IM1H     322      IM1H     LPN21    LPD       0.00000       0.00000          -1   0.00000       0.00000    
      6441 IM1H     323      IM1H     C1       CD33F     2.48500       11.6110           0  -1.18100       1.10000    
      6442 IM1H     323      IM1H     DC1      DRUD     -2.66700      0.400000           0   0.00000       0.00000    
      6443 IM1H     323      IM1H     H1       HDA3A    0.135000       1.00800           0   0.00000       0.00000    
      6444 IM1H     323      IM1H     H2       HDA3A    0.135000       1.00800           0   0.00000       0.00000    
      6445 IM1H     323      IM1H     H3       HDA3A    0.135000       1.00800           0   0.00000       0.00000    
      6446 IM1H     323      IM1H     N1       ND2R5C    2.35720       13.6070           0 -0.803000       1.00000    
      6447 IM1H     323      IM1H     DN1      DRUD     -2.19920      0.400000           0   0.00000       0.00000    
      6448 IM1H     323      IM1H     C2       CD2R5D    2.44700       11.6110           0  -1.08300       1.10000    
      6449 IM1H     323      IM1H     DC2      DRUD     -2.55400      0.400000           0   0.00000       0.00000    
      6450 IM1H     323      IM1H     H4       HDR5D    0.195000       1.00800           0   0.00000       0.00000    
      6451 IM1H     323      IM1H     C3       CD2R5D    2.50700       11.6110           0  -1.08300       1.10000    
      6452 IM1H     323      IM1H     DC3      DRUD     -2.55400      0.400000           0   0.00000       0.00000    
      6453 IM1H     323      IM1H     H5       HDR5D    0.192000       1.00800           0   0.00000       0.00000    
      6454 IM1H     323      IM1H     C4       CD2R5E    2.72410       11.6110           0  -1.25300       1.20000    
      6455 IM1H     323      IM1H     DC4      DRUD     -2.74710      0.400000           0   0.00000       0.00000    
      6456 IM1H     323      IM1H     H6       HDR5E    0.203000       1.00800           0   0.00000       0.00000    
      6457 IM1H     323      IM1H     N2       ND2R5C    2.04220       13.6070           0 -0.803000       1.00000    
      6458 IM1H     323      IM1H     DN2      DRUD     -2.19920      0.400000           0   0.00000       0.00000    
      6459 IM1H     323      IM1H     H7       HDP1A    0.363000       1.00800           0   0.00000       0.00000    
      6460 IM1H     323      IM1H     LPN21    LPD       0.00000       0.00000          -1   0.00000       0.00000    
      6461 IM1H     324      IM1H     C1       CD33F     2.48500       11.6110           0  -1.18100       1.10000    
      6462 IM1H     324      IM1H     DC1      DRUD     -2.66700      0.400000           0   0.00000       0.00000    
      6463 IM1H     324      IM1H     H1       HDA3A    0.135000       1.00800           0   0.00000       0.00000    
      6464 IM1H     324      IM1H     H2       HDA3A    0.135000       1.00800           0   0.00000       0.00000    
      6465 IM1H     324      IM1H     H3       HDA3A    0.135000       1.00800           0   0.00000       0.00000    
      6466 IM1H     324      IM1H     N1       ND2R5C    2.35720       13.6070           0 -0.803000       1.00000    
      6467 IM1H     324      IM1H     DN1      DRUD     -2.19920      0.400000           0   0.00000       0.00000    
      6468 IM1H     324      IM1H     C2       CD2R5D    2.44700       11.6110           0  -1.08300       1.10000    
      6469 IM1H     324      IM1H     DC2      DRUD     -2.55400      0.400000           0   0.00000       0.00000    
      6470 IM1H     324      IM1H     H4       HDR5D    0.195000       1.00800           0   0.00000       0.00000    
      6471 IM1H     324      IM1H     C3       CD2R5D    2.50700       11.6110           0  -1.08300       1.10000    
      6472 IM1H     324      IM1H     DC3      DRUD     -2.55400      0.400000           0   0.00000       0.00000    
      6473 IM1H     324      IM1H     H5       HDR5D    0.192000       1.00800           0   0.00000       0.00000    
      6474 IM1H     324      IM1H     C4       CD2R5E    2.72410       11.6110           0  -1.25300       1.20000    
      6475 IM1H     324      IM1H     DC4      DRUD     -2.74710      0.400000           0   0.00000       0.00000    
      6476 IM1H     324      IM1H     H6       HDR5E    0.203000       1.00800           0   0.00000       0.00000    
      6477 IM1H     324      IM1H     N2       ND2R5C    2.04220       13.6070           0 -0.803000       1.00000    
      6478 IM1H     324      IM1H     DN2      DRUD     -2.19920      0.400000           0   0.00000       0.00000    
      6479 IM1H     324      IM1H     H7       HDP1A    0.363000       1.00800           0   0.00000       0.00000    
      6480 IM1H     324      IM1H     LPN21    LPD       0.00000       0.00000          -1   0.00000       0.00000    
      6481 IM1H     325      IM1H     C1       CD33F     2.48500       11.6110           0  -1.18100       1.10000    
      6482 IM1H     325      IM1H     DC1      DRUD     -2.66700      0.400000           0   0.00000       0.00000    
      6483 IM1H     325      IM1H     H1       HDA3A    0.135000       1.00800           0   0.00000       0.00000    
      6484 IM1H     325      IM1H     H2       HDA3A    0.135000       1.00800           0   0.00000       0.00000    
      6485 IM1H     325      IM1H     H3       HDA3A    0.135000       1.00800           0   0.00000       0.00000    
      6486 IM1H     325      IM1H     N1       ND2R5C    2.35720       13.6070           0 -0.803000       1.00000    
      6487 IM1H     325      IM1H     DN1      DRUD     -2.19920      0.400000           0   0.00000       0.00000    
      6488 IM1H     325      IM1H     C2       CD2R5D    2.44700       11.6110           0  -1.08300       1.10000    
      6489 IM1H     325      IM1H     DC2      DRUD     -2.55400      0.400000           0   0.00000       0.00000    
      6490 IM1H     325      IM1H     H4       HDR5D    0.195000       1.00800           0   0.00000       0.00000    
      6491 IM1H     325      IM1H     C3       CD2R5D    2.50700       11.6110           0  -1.08300       1.10000    
      6492 IM1H     325      IM1H     DC3      DRUD     -2.55400      0.400000           0   0.00000       0.00000    
      6493 IM1H     325      IM1H     H5       HDR5D    0.192000       1.00800           0   0.00000       0.00000    
      6494 IM1H     325      IM1H     C4       CD2R5E    2.72410       11.6110           0  -1.25300       1.20000    
      6495 IM1H     325      IM1H     DC4      DRUD     -2.74710      0.400000           0   0.00000       0.00000    
      6496 IM1H     325      IM1H     H6       HDR5E    0.203000       1.00800           0   0.00000       0.00000    
      6497 IM1H     325      IM1H     N2       ND2R5C    2.04220       13.6070           0 -0.803000       1.00000    
      6498 IM1H     325      IM1H     DN2      DRUD     -2.19920      0.400000           0   0.00000       0.00000    
      6499 IM1H     325      IM1H     H7       HDP1A    0.363000       1.00800           0   0.00000       0.00000    
      6500 IM1H     325      IM1H     LPN21    LPD       0.00000       0.00000          -1   0.00000       0.00000    
      6501 IM1H     326      IM1H     C1       CD33F     2.48500       11.6110           0  -1.18100       1.10000    
      6502 IM1H     326      IM1H     DC1      DRUD     -2.66700      0.400000           0   0.00000       0.00000    
      6503 IM1H     326      IM1H     H1       HDA3A    0.135000       1.00800           0   0.00000       0.00000    
      6504 IM1H     326      IM1H     H2       HDA3A    0.135000       1.00800           0   0.00000       0.00000    
      6505 IM1H     326      IM1H     H3       HDA3A    0.135000       1.00800           0   0.00000       0.00000    
      6506 IM1H     326      IM1H     N1       ND2R5C    2.35720       13.6070           0 -0.803000       1.00000    
      6507 IM1H     326      IM1H     DN1      DRUD     -2.19920      0.400000           0   0.00000       0.00000    
      6508 IM1H     326      IM1H     C2       CD2R5D    2.44700       11.6110           0  -1.08300       1.10000    
      6509 IM1H     326      IM1H     DC2      DRUD     -2.55400      0.400000           0   0.00000       0.00000    
      6510 IM1H     326      IM1H     H4       HDR5D    0.195000       1.00800           0   0.00000       0.00000    
      6511 IM1H     326      IM1H     C3       CD2R5D    2.50700       11.6110           0  -1.08300       1.10000    
      6512 IM1H     326      IM1H     DC3      DRUD     -2.55400      0.400000           0   0.00000       0.00000    
      6513 IM1H     326      IM1H     H5       HDR5D    0.192000       1.00800           0   0.00000       0.00000    
      6514 IM1H     326      IM1H     C4       CD2R5E    2.72410       11.6110           0  -1.25300       1.20000    
      6515 IM1H     326      IM1H     DC4      DRUD     -2.74710      0.400000           0   0.00000       0.00000    
      6516 IM1H     326      IM1H     H6       HDR5E    0.203000       1.00800           0   0.00000       0.00000    
      6517 IM1H     326      IM1H     N2       ND2R5C    2.04220       13.6070           0 -0.803000       1.00000    
      6518 IM1H     326      IM1H     DN2      DRUD     -2.19920      0.400000           0   0.00000       0.00000    
      6519 IM1H     326      IM1H     H7       HDP1A    0.363000       1.00800           0   0.00000       0.00000    
      6520 IM1H     326      IM1H     LPN21    LPD       0.00000       0.00000          -1   0.00000       0.00000    
      6521 IM1H     327      IM1H     C1       CD33F     2.48500       11.6110           0  -1.18100       1.10000    
      6522 IM1H     327      IM1H     DC1      DRUD     -2.66700      0.400000           0   0.00000       0.00000    
      6523 IM1H     327      IM1H     H1       HDA3A    0.135000       1.00800           0   0.00000       0.00000    
      6524 IM1H     327      IM1H     H2       HDA3A    0.135000       1.00800           0   0.00000       0.00000    
      6525 IM1H     327      IM1H     H3       HDA3A    0.135000       1.00800           0   0.00000       0.00000    
      6526 IM1H     327      IM1H     N1       ND2R5C    2.35720       13.6070           0 -0.803000       1.00000    
      6527 IM1H     327      IM1H     DN1      DRUD     -2.19920      0.400000           0   0.00000       0.00000    
      6528 IM1H     327      IM1H     C2       CD2R5D    2.44700       11.6110           0  -1.08300       1.10000    
      6529 IM1H     327      IM1H     DC2      DRUD     -2.55400      0.400000           0   0.00000       0.00000    
      6530 IM1H     327      IM1H     H4       HDR5D    0.195000       1.00800           0   0.00000       0.00000    
      6531 IM1H     327      IM1H     C3       CD2R5D    2.50700       11.6110           0  -1.08300       1.10000    
      6532 IM1H     327      IM1H     DC3      DRUD     -2.55400      0.400000           0   0.00000       0.00000    
      6533 IM1H     327      IM1H     H5       HDR5D    0.192000       1.00800           0   0.00000       0.00000    
      6534 IM1H     327      IM1H     C4       CD2R5E    2.72410       11.6110           0  -1.25300       1.20000    
      6535 IM1H     327      IM1H     DC4      DRUD     -2.74710      0.400000           0   0.00000       0.00000    
      6536 IM1H     327      IM1H     H6       HDR5E    0.203000       1.00800           0   0.00000       0.00000    
      6537 IM1H     327      IM1H     N2       ND2R5C    2.04220       13.6070           0 -0.803000       1.00000    
      6538 IM1H     327      IM1H     DN2      DRUD     -2.19920      0.400000           0   0.00000       0.00000    
      6539 IM1H     327      IM1H     H7       HDP1A    0.363000       1.00800           0   0.00000       0.00000    
      6540 IM1H     327      IM1H     LPN21    LPD       0.00000       0.00000          -1   0.00000       0.00000    
      6541 IM1H     328      IM1H     C1       CD33F     2.48500       11.6110           0  -1.18100       1.10000    
      6542 IM1H     328      IM1H     DC1      DRUD     -2.66700      0.400000           0   0.00000       0.00000    
      6543 IM1H     328      IM1H     H1       HDA3A    0.135000       1.00800           0   0.00000       0.00000    
      6544 IM1H     328      IM1H     H2       HDA3A    0.135000       1.00800           0   0.00000       0.00000    
      6545 IM1H     328      IM1H     H3       HDA3A    0.135000       1.00800           0   0.00000       0.00000    
      6546 IM1H     328      IM1H     N1       ND2R5C    2.35720       13.6070           0 -0.803000       1.00000    
      6547 IM1H     328      IM1H     DN1      DRUD     -2.19920      0.400000           0   0.00000       0.00000    
      6548 IM1H     328      IM1H     C2       CD2R5D    2.44700       11.6110           0  -1.08300       1.10000    
      6549 IM1H     328      IM1H     DC2      DRUD     -2.55400      0.400000           0   0.00000       0.00000    
      6550 IM1H     328      IM1H     H4       HDR5D    0.195000       1.00800           0   0.00000       0.00000    
      6551 IM1H     328      IM1H     C3       CD2R5D    2.50700       11.6110           0  -1.08300       1.10000    
      6552 IM1H     328      IM1H     DC3      DRUD     -2.55400      0.400000           0   0.00000       0.00000    
      6553 IM1H     328      IM1H     H5       HDR5D    0.192000       1.00800           0   0.00000       0.00000    
      6554 IM1H     328      IM1H     C4       CD2R5E    2.72410       11.6110           0  -1.25300       1.20000    
      6555 IM1H     328      IM1H     DC4      DRUD     -2.74710      0.400000           0   0.00000       0.00000    
      6556 IM1H     328      IM1H     H6       HDR5E    0.203000       1.00800           0   0.00000       0.00000    
      6557 IM1H     328      IM1H     N2       ND2R5C    2.04220       13.6070           0 -0.803000       1.00000    
      6558 IM1H     328      IM1H     DN2      DRUD     -2.19920      0.400000           0   0.00000       0.00000    
      6559 IM1H     328      IM1H     H7       HDP1A    0.363000       1.00800           0   0.00000       0.00000    
      6560 IM1H     328      IM1H     LPN21    LPD       0.00000       0.00000          -1   0.00000       0.00000    
      6561 IM1H     329      IM1H     C1       CD33F     2.48500       11.6110           0  -1.18100       1.10000    
      6562 IM1H     329      IM1H     DC1      DRUD     -2.66700      0.400000           0   0.00000       0.00000    
      6563 IM1H     329      IM1H     H1       HDA3A    0.135000       1.00800           0   0.00000       0.00000    
      6564 IM1H     329      IM1H     H2       HDA3A    0.135000       1.00800           0   0.00000       0.00000    
      6565 IM1H     329      IM1H     H3       HDA3A    0.135000       1.00800           0   0.00000       0.00000    
      6566 IM1H     329      IM1H     N1       ND2R5C    2.35720       13.6070           0 -0.803000       1.00000    
      6567 IM1H     329      IM1H     DN1      DRUD     -2.19920      0.400000           0   0.00000       0.00000    
      6568 IM1H     329      IM1H     C2       CD2R5D    2.44700       11.6110           0  -1.08300       1.10000    
      6569 IM1H     329      IM1H     DC2      DRUD     -2.55400      0.400000           0   0.00000       0.00000    
      6570 IM1H     329      IM1H     H4       HDR5D    0.195000       1.00800           0   0.00000       0.00000    
      6571 IM1H     329      IM1H     C3       CD2R5D    2.50700       11.6110           0  -1.08300       1.10000    
      6572 IM1H     329      IM1H     DC3      DRUD     -2.55400      0.400000           0   0.00000       0.00000    
      6573 IM1H     329      IM1H     H5       HDR5D    0.192000       1.00800           0   0.00000       0.00000    
      6574 IM1H     329      IM1H     C4       CD2R5E    2.72410       11.6110           0  -1.25300       1.20000    
      6575 IM1H     329      IM1H     DC4      DRUD     -2.74710      0.400000           0   0.00000       0.00000    
      6576 IM1H     329      IM1H     H6       HDR5E    0.203000       1.00800           0   0.00000       0.00000    
      6577 IM1H     329      IM1H     N2       ND2R5C    2.04220       13.6070           0 -0.803000       1.00000    
      6578 IM1H     329      IM1H     DN2      DRUD     -2.19920      0.400000           0   0.00000       0.00000    
      6579 IM1H     329      IM1H     H7       HDP1A    0.363000       1.00800           0   0.00000       0.00000    
      6580 IM1H     329      IM1H     LPN21    LPD       0.00000       0.00000          -1   0.00000       0.00000    
      6581 IM1H     330      IM1H     C1       CD33F     2.48500       11.6110           0  -1.18100       1.10000    
      6582 IM1H     330      IM1H     DC1      DRUD     -2.66700      0.400000           0   0.00000       0.00000    
      6583 IM1H     330      IM1H     H1       HDA3A    0.135000       1.00800           0   0.00000       0.00000    
      6584 IM1H     330      IM1H     H2       HDA3A    0.135000       1.00800           0   0.00000       0.00000    
      6585 IM1H     330      IM1H     H3       HDA3A    0.135000       1.00800           0   0.00000       0.00000    
      6586 IM1H     330      IM1H     N1       ND2R5C    2.35720       13.6070           0 -0.803000       1.00000    
      6587 IM1H     330      IM1H     DN1      DRUD     -2.19920      0.400000           0   0.00000       0.00000    
      6588 IM1H     330      IM1H     C2       CD2R5D    2.44700       11.6110           0  -1.08300       1.10000    
      6589 IM1H     330      IM1H     DC2      DRUD     -2.55400      0.400000           0   0.00000       0.00000    
      6590 IM1H     330      IM1H     H4       HDR5D    0.195000       1.00800           0   0.00000       0.00000    
      6591 IM1H     330      IM1H     C3       CD2R5D    2.50700       11.6110           0  -1.08300       1.10000    
      6592 IM1H     330      IM1H     DC3      DRUD     -2.55400      0.400000           0   0.00000       0.00000    
      6593 IM1H     330      IM1H     H5       HDR5D    0.192000       1.00800           0   0.00000       0.00000    
      6594 IM1H     330      IM1H     C4       CD2R5E    2.72410       11.6110           0  -1.25300       1.20000    
      6595 IM1H     330      IM1H     DC4      DRUD     -2.74710      0.400000           0   0.00000       0.00000    
      6596 IM1H     330      IM1H     H6       HDR5E    0.203000       1.00800           0   0.00000       0.00000    
      6597 IM1H     330      IM1H     N2       ND2R5C    2.04220       13.6070           0 -0.803000       1.00000    
      6598 IM1H     330      IM1H     DN2      DRUD     -2.19920      0.400000           0   0.00000       0.00000    
      6599 IM1H     330      IM1H     H7       HDP1A    0.363000       1.00800           0   0.00000       0.00000    
      6600 IM1H     330      IM1H     LPN21    LPD       0.00000       0.00000          -1   0.00000       0.00000    
      6601 IM1H     331      IM1H     C1       CD33F     2.48500       11.6110           0  -1.18100       1.10000    
      6602 IM1H     331      IM1H     DC1      DRUD     -2.66700      0.400000           0   0.00000       0.00000    
      6603 IM1H     331      IM1H     H1       HDA3A    0.135000       1.00800           0   0.00000       0.00000    
      6604 IM1H     331      IM1H     H2       HDA3A    0.135000       1.00800           0   0.00000       0.00000    
      6605 IM1H     331      IM1H     H3       HDA3A    0.135000       1.00800           0   0.00000       0.00000    
      6606 IM1H     331      IM1H     N1       ND2R5C    2.35720       13.6070           0 -0.803000       1.00000    
      6607 IM1H     331      IM1H     DN1      DRUD     -2.19920      0.400000           0   0.00000       0.00000    
      6608 IM1H     331      IM1H     C2       CD2R5D    2.44700       11.6110           0  -1.08300       1.10000    
      6609 IM1H     331      IM1H     DC2      DRUD     -2.55400      0.400000           0   0.00000       0.00000    
      6610 IM1H     331      IM1H     H4       HDR5D    0.195000       1.00800           0   0.00000       0.00000    
      6611 IM1H     331      IM1H     C3       CD2R5D    2.50700       11.6110           0  -1.08300       1.10000    
      6612 IM1H     331      IM1H     DC3      DRUD     -2.55400      0.400000           0   0.00000       0.00000    
      6613 IM1H     331      IM1H     H5       HDR5D    0.192000       1.00800           0   0.00000       0.00000    
      6614 IM1H     331      IM1H     C4       CD2R5E    2.72410       11.6110           0  -1.25300       1.20000    
      6615 IM1H     331      IM1H     DC4      DRUD     -2.74710      0.400000           0   0.00000       0.00000    
      6616 IM1H     331      IM1H     H6       HDR5E    0.203000       1.00800           0   0.00000       0.00000    
      6617 IM1H     331      IM1H     N2       ND2R5C    2.04220       13.6070           0 -0.803000       1.00000    
      6618 IM1H     331      IM1H     DN2      DRUD     -2.19920      0.400000           0   0.00000       0.00000    
      6619 IM1H     331      IM1H     H7       HDP1A    0.363000       1.00800           0   0.00000       0.00000    
      6620 IM1H     331      IM1H     LPN21    LPD       0.00000       0.00000          -1   0.00000       0.00000    
      6621 IM1H     332      IM1H     C1       CD33F     2.48500       11.6110           0  -1.18100       1.10000    
      6622 IM1H     332      IM1H     DC1      DRUD     -2.66700      0.400000           0   0.00000       0.00000    
      6623 IM1H     332      IM1H     H1       HDA3A    0.135000       1.00800           0   0.00000       0.00000    
      6624 IM1H     332      IM1H     H2       HDA3A    0.135000       1.00800           0   0.00000       0.00000    
      6625 IM1H     332      IM1H     H3       HDA3A    0.135000       1.00800           0   0.00000       0.00000    
      6626 IM1H     332      IM1H     N1       ND2R5C    2.35720       13.6070           0 -0.803000       1.00000    
      6627 IM1H     332      IM1H     DN1      DRUD     -2.19920      0.400000           0   0.00000       0.00000    
      6628 IM1H     332      IM1H     C2       CD2R5D    2.44700       11.6110           0  -1.08300       1.10000    
      6629 IM1H     332      IM1H     DC2      DRUD     -2.55400      0.400000           0   0.00000       0.00000    
      6630 IM1H     332      IM1H     H4       HDR5D    0.195000       1.00800           0   0.00000       0.00000    
      6631 IM1H     332      IM1H     C3       CD2R5D    2.50700       11.6110           0  -1.08300       1.10000    
      6632 IM1H     332      IM1H     DC3      DRUD     -2.55400      0.400000           0   0.00000       0.00000    
      6633 IM1H     332      IM1H     H5       HDR5D    0.192000       1.00800           0   0.00000       0.00000    
      6634 IM1H     332      IM1H     C4       CD2R5E    2.72410       11.6110           0  -1.25300       1.20000    
      6635 IM1H     332      IM1H     DC4      DRUD     -2.74710      0.400000           0   0.00000       0.00000    
      6636 IM1H     332      IM1H     H6       HDR5E    0.203000       1.00800           0   0.00000       0.00000    
      6637 IM1H     332      IM1H     N2       ND2R5C    2.04220       13.6070           0 -0.803000       1.00000    
      6638 IM1H     332      IM1H     DN2      DRUD     -2.19920      0.400000           0   0.00000       0.00000    
      6639 IM1H     332      IM1H     H7       HDP1A    0.363000       1.00800           0   0.00000       0.00000    
      6640 IM1H     332      IM1H     LPN21    LPD       0.00000       0.00000          -1   0.00000       0.00000    
      6641 IM1H     333      IM1H     C1       CD33F     2.48500       11.6110           0  -1.18100       1.10000    
      6642 IM1H     333      IM1H     DC1      DRUD     -2.66700      0.400000           0   0.00000       0.00000    
      6643 IM1H     333      IM1H     H1       HDA3A    0.135000       1.00800           0   0.00000       0.00000    
      6644 IM1H     333      IM1H     H2       HDA3A    0.135000       1.00800           0   0.00000       0.00000    
      6645 IM1H     333      IM1H     H3       HDA3A    0.135000       1.00800           0   0.00000       0.00000    
      6646 IM1H     333      IM1H     N1       ND2R5C    2.35720       13.6070           0 -0.803000       1.00000    
      6647 IM1H     333      IM1H     DN1      DRUD     -2.19920      0.400000           0   0.00000       0.00000    
      6648 IM1H     333      IM1H     C2       CD2R5D    2.44700       11.6110           0  -1.08300       1.10000    
      6649 IM1H     333      IM1H     DC2      DRUD     -2.55400      0.400000           0   0.00000       0.00000    
      6650 IM1H     333      IM1H     H4       HDR5D    0.195000       1.00800           0   0.00000       0.00000    
      6651 IM1H     333      IM1H     C3       CD2R5D    2.50700       11.6110           0  -1.08300       1.10000    
      6652 IM1H     333      IM1H     DC3      DRUD     -2.55400      0.400000           0   0.00000       0.00000    
      6653 IM1H     333      IM1H     H5       HDR5D    0.192000       1.00800           0   0.00000       0.00000    
      6654 IM1H     333      IM1H     C4       CD2R5E    2.72410       11.6110           0  -1.25300       1.20000    
      6655 IM1H     333      IM1H     DC4      DRUD     -2.74710      0.400000           0   0.00000       0.00000    
      6656 IM1H     333      IM1H     H6       HDR5E    0.203000       1.00800           0   0.00000       0.00000    
      6657 IM1H     333      IM1H     N2       ND2R5C    2.04220       13.6070           0 -0.803000       1.00000    
      6658 IM1H     333      IM1H     DN2      DRUD     -2.19920      0.400000           0   0.00000       0.00000    
      6659 IM1H     333      IM1H     H7       HDP1A    0.363000       1.00800           0   0.00000       0.00000    
      6660 IM1H     333      IM1H     LPN21    LPD       0.00000       0.00000          -1   0.00000       0.00000    
      6661 IM1H     334      IM1H     C1       CD33F     2.48500       11.6110           0  -1.18100       1.10000    
      6662 IM1H     334      IM1H     DC1      DRUD     -2.66700      0.400000           0   0.00000       0.00000    
      6663 IM1H     334      IM1H     H1       HDA3A    0.135000       1.00800           0   0.00000       0.00000    
      6664 IM1H     334      IM1H     H2       HDA3A    0.135000       1.00800           0   0.00000       0.00000    
      6665 IM1H     334      IM1H     H3       HDA3A    0.135000       1.00800           0   0.00000       0.00000    
      6666 IM1H     334      IM1H     N1       ND2R5C    2.35720       13.6070           0 -0.803000       1.00000    
      6667 IM1H     334      IM1H     DN1      DRUD     -2.19920      0.400000           0   0.00000       0.00000    
      6668 IM1H     334      IM1H     C2       CD2R5D    2.44700       11.6110           0  -1.08300       1.10000    
      6669 IM1H     334      IM1H     DC2      DRUD     -2.55400      0.400000           0   0.00000       0.00000    
      6670 IM1H     334      IM1H     H4       HDR5D    0.195000       1.00800           0   0.00000       0.00000    
      6671 IM1H     334      IM1H     C3       CD2R5D    2.50700       11.6110           0  -1.08300       1.10000    
      6672 IM1H     334      IM1H     DC3      DRUD     -2.55400      0.400000           0   0.00000       0.00000    
      6673 IM1H     334      IM1H     H5       HDR5D    0.192000       1.00800           0   0.00000       0.00000    
      6674 IM1H     334      IM1H     C4       CD2R5E    2.72410       11.6110           0  -1.25300       1.20000    
      6675 IM1H     334      IM1H     DC4      DRUD     -2.74710      0.400000           0   0.00000       0.00000    
      6676 IM1H     334      IM1H     H6       HDR5E    0.203000       1.00800           0   0.00000       0.00000    
      6677 IM1H     334      IM1H     N2       ND2R5C    2.04220       13.6070           0 -0.803000       1.00000    
      6678 IM1H     334      IM1H     DN2      DRUD     -2.19920      0.400000           0   0.00000       0.00000    
      6679 IM1H     334      IM1H     H7       HDP1A    0.363000       1.00800           0   0.00000       0.00000    
      6680 IM1H     334      IM1H     LPN21    LPD       0.00000       0.00000          -1   0.00000       0.00000    
      6681 IM1H     335      IM1H     C1       CD33F     2.48500       11.6110           0  -1.18100       1.10000    
      6682 IM1H     335      IM1H     DC1      DRUD     -2.66700      0.400000           0   0.00000       0.00000    
      6683 IM1H     335      IM1H     H1       HDA3A    0.135000       1.00800           0   0.00000       0.00000    
      6684 IM1H     335      IM1H     H2       HDA3A    0.135000       1.00800           0   0.00000       0.00000    
      6685 IM1H     335      IM1H     H3       HDA3A    0.135000       1.00800           0   0.00000       0.00000    
      6686 IM1H     335      IM1H     N1       ND2R5C    2.35720       13.6070           0 -0.803000       1.00000    
      6687 IM1H     335      IM1H     DN1      DRUD     -2.19920      0.400000           0   0.00000       0.00000    
      6688 IM1H     335      IM1H     C2       CD2R5D    2.44700       11.6110           0  -1.08300       1.10000    
      6689 IM1H     335      IM1H     DC2      DRUD     -2.55400      0.400000           0   0.00000       0.00000    
      6690 IM1H     335      IM1H     H4       HDR5D    0.195000       1.00800           0   0.00000       0.00000    
      6691 IM1H     335      IM1H     C3       CD2R5D    2.50700       11.6110           0  -1.08300       1.10000    
      6692 IM1H     335      IM1H     DC3      DRUD     -2.55400      0.400000           0   0.00000       0.00000    
      6693 IM1H     335      IM1H     H5       HDR5D    0.192000       1.00800           0   0.00000       0.00000    
      6694 IM1H     335      IM1H     C4       CD2R5E    2.72410       11.6110           0  -1.25300       1.20000    
      6695 IM1H     335      IM1H     DC4      DRUD     -2.74710      0.400000           0   0.00000       0.00000    
      6696 IM1H     335      IM1H     H6       HDR5E    0.203000       1.00800           0   0.00000       0.00000    
      6697 IM1H     335      IM1H     N2       ND2R5C    2.04220       13.6070           0 -0.803000       1.00000    
      6698 IM1H     335      IM1H     DN2      DRUD     -2.19920      0.400000           0   0.00000       0.00000    
      6699 IM1H     335      IM1H     H7       HDP1A    0.363000       1.00800           0   0.00000       0.00000    
      6700 IM1H     335      IM1H     LPN21    LPD       0.00000       0.00000          -1   0.00000       0.00000    
      6701 IM1H     336      IM1H     C1       CD33F     2.48500       11.6110           0  -1.18100       1.10000    
      6702 IM1H     336      IM1H     DC1      DRUD     -2.66700      0.400000           0   0.00000       0.00000    
      6703 IM1H     336      IM1H     H1       HDA3A    0.135000       1.00800           0   0.00000       0.00000    
      6704 IM1H     336      IM1H     H2       HDA3A    0.135000       1.00800           0   0.00000       0.00000    
      6705 IM1H     336      IM1H     H3       HDA3A    0.135000       1.00800           0   0.00000       0.00000    
      6706 IM1H     336      IM1H     N1       ND2R5C    2.35720       13.6070           0 -0.803000       1.00000    
      6707 IM1H     336      IM1H     DN1      DRUD     -2.19920      0.400000           0   0.00000       0.00000    
      6708 IM1H     336      IM1H     C2       CD2R5D    2.44700       11.6110           0  -1.08300       1.10000    
      6709 IM1H     336      IM1H     DC2      DRUD     -2.55400      0.400000           0   0.00000       0.00000    
      6710 IM1H     336      IM1H     H4       HDR5D    0.195000       1.00800           0   0.00000       0.00000    
      6711 IM1H     336      IM1H     C3       CD2R5D    2.50700       11.6110           0  -1.08300       1.10000    
      6712 IM1H     336      IM1H     DC3      DRUD     -2.55400      0.400000           0   0.00000       0.00000    
      6713 IM1H     336      IM1H     H5       HDR5D    0.192000       1.00800           0   0.00000       0.00000    
      6714 IM1H     336      IM1H     C4       CD2R5E    2.72410       11.6110           0  -1.25300       1.20000    
      6715 IM1H     336      IM1H     DC4      DRUD     -2.74710      0.400000           0   0.00000       0.00000    
      6716 IM1H     336      IM1H     H6       HDR5E    0.203000       1.00800           0   0.00000       0.00000    
      6717 IM1H     336      IM1H     N2       ND2R5C    2.04220       13.6070           0 -0.803000       1.00000    
      6718 IM1H     336      IM1H     DN2      DRUD     -2.19920      0.400000           0   0.00000       0.00000    
      6719 IM1H     336      IM1H     H7       HDP1A    0.363000       1.00800           0   0.00000       0.00000    
      6720 IM1H     336      IM1H     LPN21    LPD       0.00000       0.00000          -1   0.00000       0.00000    
      6721 IM1H     337      IM1H     C1       CD33F     2.48500       11.6110           0  -1.18100       1.10000    
      6722 IM1H     337      IM1H     DC1      DRUD     -2.66700      0.400000           0   0.00000       0.00000    
      6723 IM1H     337      IM1H     H1       HDA3A    0.135000       1.00800           0   0.00000       0.00000    
      6724 IM1H     337      IM1H     H2       HDA3A    0.135000       1.00800           0   0.00000       0.00000    
      6725 IM1H     337      IM1H     H3       HDA3A    0.135000       1.00800           0   0.00000       0.00000    
      6726 IM1H     337      IM1H     N1       ND2R5C    2.35720       13.6070           0 -0.803000       1.00000    
      6727 IM1H     337      IM1H     DN1      DRUD     -2.19920      0.400000           0   0.00000       0.00000    
      6728 IM1H     337      IM1H     C2       CD2R5D    2.44700       11.6110           0  -1.08300       1.10000    
      6729 IM1H     337      IM1H     DC2      DRUD     -2.55400      0.400000           0   0.00000       0.00000    
      6730 IM1H     337      IM1H     H4       HDR5D    0.195000       1.00800           0   0.00000       0.00000    
      6731 IM1H     337      IM1H     C3       CD2R5D    2.50700       11.6110           0  -1.08300       1.10000    
      6732 IM1H     337      IM1H     DC3      DRUD     -2.55400      0.400000           0   0.00000       0.00000    
      6733 IM1H     337      IM1H     H5       HDR5D    0.192000       1.00800           0   0.00000       0.00000    
      6734 IM1H     337      IM1H     C4       CD2R5E    2.72410       11.6110           0  -1.25300       1.20000    
      6735 IM1H     337      IM1H     DC4      DRUD     -2.74710      0.400000           0   0.00000       0.00000    
      6736 IM1H     337      IM1H     H6       HDR5E    0.203000       1.00800           0   0.00000       0.00000    
      6737 IM1H     337      IM1H     N2       ND2R5C    2.04220       13.6070           0 -0.803000       1.00000    
      6738 IM1H     337      IM1H     DN2      DRUD     -2.19920      0.400000           0   0.00000       0.00000    
      6739 IM1H     337      IM1H     H7       HDP1A    0.363000       1.00800           0   0.00000       0.00000    
      6740 IM1H     337      IM1H     LPN21    LPD       0.00000       0.00000          -1   0.00000       0.00000    
      6741 IM1H     338      IM1H     C1       CD33F     2.48500       11.6110           0  -1.18100       1.10000    
      6742 IM1H     338      IM1H     DC1      DRUD     -2.66700      0.400000           0   0.00000       0.00000    
      6743 IM1H     338      IM1H     H1       HDA3A    0.135000       1.00800           0   0.00000       0.00000    
      6744 IM1H     338      IM1H     H2       HDA3A    0.135000       1.00800           0   0.00000       0.00000    
      6745 IM1H     338      IM1H     H3       HDA3A    0.135000       1.00800           0   0.00000       0.00000    
      6746 IM1H     338      IM1H     N1       ND2R5C    2.35720       13.6070           0 -0.803000       1.00000    
      6747 IM1H     338      IM1H     DN1      DRUD     -2.19920      0.400000           0   0.00000       0.00000    
      6748 IM1H     338      IM1H     C2       CD2R5D    2.44700       11.6110           0  -1.08300       1.10000    
      6749 IM1H     338      IM1H     DC2      DRUD     -2.55400      0.400000           0   0.00000       0.00000    
      6750 IM1H     338      IM1H     H4       HDR5D    0.195000       1.00800           0   0.00000       0.00000    
      6751 IM1H     338      IM1H     C3       CD2R5D    2.50700       11.6110           0  -1.08300       1.10000    
      6752 IM1H     338      IM1H     DC3      DRUD     -2.55400      0.400000           0   0.00000       0.00000    
      6753 IM1H     338      IM1H     H5       HDR5D    0.192000       1.00800           0   0.00000       0.00000    
      6754 IM1H     338      IM1H     C4       CD2R5E    2.72410       11.6110           0  -1.25300       1.20000    
      6755 IM1H     338      IM1H     DC4      DRUD     -2.74710      0.400000           0   0.00000       0.00000    
      6756 IM1H     338      IM1H     H6       HDR5E    0.203000       1.00800           0   0.00000       0.00000    
      6757 IM1H     338      IM1H     N2       ND2R5C    2.04220       13.6070           0 -0.803000       1.00000    
      6758 IM1H     338      IM1H     DN2      DRUD     -2.19920      0.400000           0   0.00000       0.00000    
      6759 IM1H     338      IM1H     H7       HDP1A    0.363000       1.00800           0   0.00000       0.00000    
      6760 IM1H     338      IM1H     LPN21    LPD       0.00000       0.00000          -1   0.00000       0.00000    
      6761 IM1H     339      IM1H     C1       CD33F     2.48500       11.6110           0  -1.18100       1.10000    
      6762 IM1H     339      IM1H     DC1      DRUD     -2.66700      0.400000           0   0.00000       0.00000    
      6763 IM1H     339      IM1H     H1       HDA3A    0.135000       1.00800           0   0.00000       0.00000    
      6764 IM1H     339      IM1H     H2       HDA3A    0.135000       1.00800           0   0.00000       0.00000    
      6765 IM1H     339      IM1H     H3       HDA3A    0.135000       1.00800           0   0.00000       0.00000    
      6766 IM1H     339      IM1H     N1       ND2R5C    2.35720       13.6070           0 -0.803000       1.00000    
      6767 IM1H     339      IM1H     DN1      DRUD     -2.19920      0.400000           0   0.00000       0.00000    
      6768 IM1H     339      IM1H     C2       CD2R5D    2.44700       11.6110           0  -1.08300       1.10000    
      6769 IM1H     339      IM1H     DC2      DRUD     -2.55400      0.400000           0   0.00000       0.00000    
      6770 IM1H     339      IM1H     H4       HDR5D    0.195000       1.00800           0   0.00000       0.00000    
      6771 IM1H     339      IM1H     C3       CD2R5D    2.50700       11.6110           0  -1.08300       1.10000    
      6772 IM1H     339      IM1H     DC3      DRUD     -2.55400      0.400000           0   0.00000       0.00000    
      6773 IM1H     339      IM1H     H5       HDR5D    0.192000       1.00800           0   0.00000       0.00000    
      6774 IM1H     339      IM1H     C4       CD2R5E    2.72410       11.6110           0  -1.25300       1.20000    
      6775 IM1H     339      IM1H     DC4      DRUD     -2.74710      0.400000           0   0.00000       0.00000    
      6776 IM1H     339      IM1H     H6       HDR5E    0.203000       1.00800           0   0.00000       0.00000    
      6777 IM1H     339      IM1H     N2       ND2R5C    2.04220       13.6070           0 -0.803000       1.00000    
      6778 IM1H     339      IM1H     DN2      DRUD     -2.19920      0.400000           0   0.00000       0.00000    
      6779 IM1H     339      IM1H     H7       HDP1A    0.363000       1.00800           0   0.00000       0.00000    
      6780 IM1H     339      IM1H     LPN21    LPD       0.00000       0.00000          -1   0.00000       0.00000    
      6781 IM1H     340      IM1H     C1       CD33F     2.48500       11.6110           0  -1.18100       1.10000    
      6782 IM1H     340      IM1H     DC1      DRUD     -2.66700      0.400000           0   0.00000       0.00000    
      6783 IM1H     340      IM1H     H1       HDA3A    0.135000       1.00800           0   0.00000       0.00000    
      6784 IM1H     340      IM1H     H2       HDA3A    0.135000       1.00800           0   0.00000       0.00000    
      6785 IM1H     340      IM1H     H3       HDA3A    0.135000       1.00800           0   0.00000       0.00000    
      6786 IM1H     340      IM1H     N1       ND2R5C    2.35720       13.6070           0 -0.803000       1.00000    
      6787 IM1H     340      IM1H     DN1      DRUD     -2.19920      0.400000           0   0.00000       0.00000    
      6788 IM1H     340      IM1H     C2       CD2R5D    2.44700       11.6110           0  -1.08300       1.10000    
      6789 IM1H     340      IM1H     DC2      DRUD     -2.55400      0.400000           0   0.00000       0.00000    
      6790 IM1H     340      IM1H     H4       HDR5D    0.195000       1.00800           0   0.00000       0.00000    
      6791 IM1H     340      IM1H     C3       CD2R5D    2.50700       11.6110           0  -1.08300       1.10000    
      6792 IM1H     340      IM1H     DC3      DRUD     -2.55400      0.400000           0   0.00000       0.00000    
      6793 IM1H     340      IM1H     H5       HDR5D    0.192000       1.00800           0   0.00000       0.00000    
      6794 IM1H     340      IM1H     C4       CD2R5E    2.72410       11.6110           0  -1.25300       1.20000    
      6795 IM1H     340      IM1H     DC4      DRUD     -2.74710      0.400000           0   0.00000       0.00000    
      6796 IM1H     340      IM1H     H6       HDR5E    0.203000       1.00800           0   0.00000       0.00000    
      6797 IM1H     340      IM1H     N2       ND2R5C    2.04220       13.6070           0 -0.803000       1.00000    
      6798 IM1H     340      IM1H     DN2      DRUD     -2.19920      0.400000           0   0.00000       0.00000    
      6799 IM1H     340      IM1H     H7       HDP1A    0.363000       1.00800           0   0.00000       0.00000    
      6800 IM1H     340      IM1H     LPN21    LPD       0.00000       0.00000          -1   0.00000       0.00000    
      6801 IM1H     341      IM1H     C1       CD33F     2.48500       11.6110           0  -1.18100       1.10000    
      6802 IM1H     341      IM1H     DC1      DRUD     -2.66700      0.400000           0   0.00000       0.00000    
      6803 IM1H     341      IM1H     H1       HDA3A    0.135000       1.00800           0   0.00000       0.00000    
      6804 IM1H     341      IM1H     H2       HDA3A    0.135000       1.00800           0   0.00000       0.00000    
      6805 IM1H     341      IM1H     H3       HDA3A    0.135000       1.00800           0   0.00000       0.00000    
      6806 IM1H     341      IM1H     N1       ND2R5C    2.35720       13.6070           0 -0.803000       1.00000    
      6807 IM1H     341      IM1H     DN1      DRUD     -2.19920      0.400000           0   0.00000       0.00000    
      6808 IM1H     341      IM1H     C2       CD2R5D    2.44700       11.6110           0  -1.08300       1.10000    
      6809 IM1H     341      IM1H     DC2      DRUD     -2.55400      0.400000           0   0.00000       0.00000    
      6810 IM1H     341      IM1H     H4       HDR5D    0.195000       1.00800           0   0.00000       0.00000    
      6811 IM1H     341      IM1H     C3       CD2R5D    2.50700       11.6110           0  -1.08300       1.10000    
      6812 IM1H     341      IM1H     DC3      DRUD     -2.55400      0.400000           0   0.00000       0.00000    
      6813 IM1H     341      IM1H     H5       HDR5D    0.192000       1.00800           0   0.00000       0.00000    
      6814 IM1H     341      IM1H     C4       CD2R5E    2.72410       11.6110           0  -1.25300       1.20000    
      6815 IM1H     341      IM1H     DC4      DRUD     -2.74710      0.400000           0   0.00000       0.00000    
      6816 IM1H     341      IM1H     H6       HDR5E    0.203000       1.00800           0   0.00000       0.00000    
      6817 IM1H     341      IM1H     N2       ND2R5C    2.04220       13.6070           0 -0.803000       1.00000    
      6818 IM1H     341      IM1H     DN2      DRUD     -2.19920      0.400000           0   0.00000       0.00000    
      6819 IM1H     341      IM1H     H7       HDP1A    0.363000       1.00800           0   0.00000       0.00000    
      6820 IM1H     341      IM1H     LPN21    LPD       0.00000       0.00000          -1   0.00000       0.00000    
      6821 IM1H     342      IM1H     C1       CD33F     2.48500       11.6110           0  -1.18100       1.10000    
      6822 IM1H     342      IM1H     DC1      DRUD     -2.66700      0.400000           0   0.00000       0.00000    
      6823 IM1H     342      IM1H     H1       HDA3A    0.135000       1.00800           0   0.00000       0.00000    
      6824 IM1H     342      IM1H     H2       HDA3A    0.135000       1.00800           0   0.00000       0.00000    
      6825 IM1H     342      IM1H     H3       HDA3A    0.135000       1.00800           0   0.00000       0.00000    
      6826 IM1H     342      IM1H     N1       ND2R5C    2.35720       13.6070           0 -0.803000       1.00000    
      6827 IM1H     342      IM1H     DN1      DRUD     -2.19920      0.400000           0   0.00000       0.00000    
      6828 IM1H     342      IM1H     C2       CD2R5D    2.44700       11.6110           0  -1.08300       1.10000    
      6829 IM1H     342      IM1H     DC2      DRUD     -2.55400      0.400000           0   0.00000       0.00000    
      6830 IM1H     342      IM1H     H4       HDR5D    0.195000       1.00800           0   0.00000       0.00000    
      6831 IM1H     342      IM1H     C3       CD2R5D    2.50700       11.6110           0  -1.08300       1.10000    
      6832 IM1H     342      IM1H     DC3      DRUD     -2.55400      0.400000           0   0.00000       0.00000    
      6833 IM1H     342      IM1H     H5       HDR5D    0.192000       1.00800           0   0.00000       0.00000    
      6834 IM1H     342      IM1H     C4       CD2R5E    2.72410       11.6110           0  -1.25300       1.20000    
      6835 IM1H     342      IM1H     DC4      DRUD     -2.74710      0.400000           0   0.00000       0.00000    
      6836 IM1H     342      IM1H     H6       HDR5E    0.203000       1.00800           0   0.00000       0.00000    
      6837 IM1H     342      IM1H     N2       ND2R5C    2.04220       13.6070           0 -0.803000       1.00000    
      6838 IM1H     342      IM1H     DN2      DRUD     -2.19920      0.400000           0   0.00000       0.00000    
      6839 IM1H     342      IM1H     H7       HDP1A    0.363000       1.00800           0   0.00000       0.00000    
      6840 IM1H     342      IM1H     LPN21    LPD       0.00000       0.00000          -1   0.00000       0.00000    
      6841 IM1H     343      IM1H     C1       CD33F     2.48500       11.6110           0  -1.18100       1.10000    
      6842 IM1H     343      IM1H     DC1      DRUD     -2.66700      0.400000           0   0.00000       0.00000    
      6843 IM1H     343      IM1H     H1       HDA3A    0.135000       1.00800           0   0.00000       0.00000    
      6844 IM1H     343      IM1H     H2       HDA3A    0.135000       1.00800           0   0.00000       0.00000    
      6845 IM1H     343      IM1H     H3       HDA3A    0.135000       1.00800           0   0.00000       0.00000    
      6846 IM1H     343      IM1H     N1       ND2R5C    2.35720       13.6070           0 -0.803000       1.00000    
      6847 IM1H     343      IM1H     DN1      DRUD     -2.19920      0.400000           0   0.00000       0.00000    
      6848 IM1H     343      IM1H     C2       CD2R5D    2.44700       11.6110           0  -1.08300       1.10000    
      6849 IM1H     343      IM1H     DC2      DRUD     -2.55400      0.400000           0   0.00000       0.00000    
      6850 IM1H     343      IM1H     H4       HDR5D    0.195000       1.00800           0   0.00000       0.00000    
      6851 IM1H     343      IM1H     C3       CD2R5D    2.50700       11.6110           0  -1.08300       1.10000    
      6852 IM1H     343      IM1H     DC3      DRUD     -2.55400      0.400000           0   0.00000       0.00000    
      6853 IM1H     343      IM1H     H5       HDR5D    0.192000       1.00800           0   0.00000       0.00000    
      6854 IM1H     343      IM1H     C4       CD2R5E    2.72410       11.6110           0  -1.25300       1.20000    
      6855 IM1H     343      IM1H     DC4      DRUD     -2.74710      0.400000           0   0.00000       0.00000    
      6856 IM1H     343      IM1H     H6       HDR5E    0.203000       1.00800           0   0.00000       0.00000    
      6857 IM1H     343      IM1H     N2       ND2R5C    2.04220       13.6070           0 -0.803000       1.00000    
      6858 IM1H     343      IM1H     DN2      DRUD     -2.19920      0.400000           0   0.00000       0.00000    
      6859 IM1H     343      IM1H     H7       HDP1A    0.363000       1.00800           0   0.00000       0.00000    
      6860 IM1H     343      IM1H     LPN21    LPD       0.00000       0.00000          -1   0.00000       0.00000    
      6861 IM1H     344      IM1H     C1       CD33F     2.48500       11.6110           0  -1.18100       1.10000    
      6862 IM1H     344      IM1H     DC1      DRUD     -2.66700      0.400000           0   0.00000       0.00000    
      6863 IM1H     344      IM1H     H1       HDA3A    0.135000       1.00800           0   0.00000       0.00000    
      6864 IM1H     344      IM1H     H2       HDA3A    0.135000       1.00800           0   0.00000       0.00000    
      6865 IM1H     344      IM1H     H3       HDA3A    0.135000       1.00800           0   0.00000       0.00000    
      6866 IM1H     344      IM1H     N1       ND2R5C    2.35720       13.6070           0 -0.803000       1.00000    
      6867 IM1H     344      IM1H     DN1      DRUD     -2.19920      0.400000           0   0.00000       0.00000    
      6868 IM1H     344      IM1H     C2       CD2R5D    2.44700       11.6110           0  -1.08300       1.10000    
      6869 IM1H     344      IM1H     DC2      DRUD     -2.55400      0.400000           0   0.00000       0.00000    
      6870 IM1H     344      IM1H     H4       HDR5D    0.195000       1.00800           0   0.00000       0.00000    
      6871 IM1H     344      IM1H     C3       CD2R5D    2.50700       11.6110           0  -1.08300       1.10000    
      6872 IM1H     344      IM1H     DC3      DRUD     -2.55400      0.400000           0   0.00000       0.00000    
      6873 IM1H     344      IM1H     H5       HDR5D    0.192000       1.00800           0   0.00000       0.00000    
      6874 IM1H     344      IM1H     C4       CD2R5E    2.72410       11.6110           0  -1.25300       1.20000    
      6875 IM1H     344      IM1H     DC4      DRUD     -2.74710      0.400000           0   0.00000       0.00000    
      6876 IM1H     344      IM1H     H6       HDR5E    0.203000       1.00800           0   0.00000       0.00000    
      6877 IM1H     344      IM1H     N2       ND2R5C    2.04220       13.6070           0 -0.803000       1.00000    
      6878 IM1H     344      IM1H     DN2      DRUD     -2.19920      0.400000           0   0.00000       0.00000    
      6879 IM1H     344      IM1H     H7       HDP1A    0.363000       1.00800           0   0.00000       0.00000    
      6880 IM1H     344      IM1H     LPN21    LPD       0.00000       0.00000          -1   0.00000       0.00000    
      6881 IM1H     345      IM1H     C1       CD33F     2.48500       11.6110           0  -1.18100       1.10000    
      6882 IM1H     345      IM1H     DC1      DRUD     -2.66700      0.400000           0   0.00000       0.00000    
      6883 IM1H     345      IM1H     H1       HDA3A    0.135000       1.00800           0   0.00000       0.00000    
      6884 IM1H     345      IM1H     H2       HDA3A    0.135000       1.00800           0   0.00000       0.00000    
      6885 IM1H     345      IM1H     H3       HDA3A    0.135000       1.00800           0   0.00000       0.00000    
      6886 IM1H     345      IM1H     N1       ND2R5C    2.35720       13.6070           0 -0.803000       1.00000    
      6887 IM1H     345      IM1H     DN1      DRUD     -2.19920      0.400000           0   0.00000       0.00000    
      6888 IM1H     345      IM1H     C2       CD2R5D    2.44700       11.6110           0  -1.08300       1.10000    
      6889 IM1H     345      IM1H     DC2      DRUD     -2.55400      0.400000           0   0.00000       0.00000    
      6890 IM1H     345      IM1H     H4       HDR5D    0.195000       1.00800           0   0.00000       0.00000    
      6891 IM1H     345      IM1H     C3       CD2R5D    2.50700       11.6110           0  -1.08300       1.10000    
      6892 IM1H     345      IM1H     DC3      DRUD     -2.55400      0.400000           0   0.00000       0.00000    
      6893 IM1H     345      IM1H     H5       HDR5D    0.192000       1.00800           0   0.00000       0.00000    
      6894 IM1H     345      IM1H     C4       CD2R5E    2.72410       11.6110           0  -1.25300       1.20000    
      6895 IM1H     345      IM1H     DC4      DRUD     -2.74710      0.400000           0   0.00000       0.00000    
      6896 IM1H     345      IM1H     H6       HDR5E    0.203000       1.00800           0   0.00000       0.00000    
      6897 IM1H     345      IM1H     N2       ND2R5C    2.04220       13.6070           0 -0.803000       1.00000    
      6898 IM1H     345      IM1H     DN2      DRUD     -2.19920      0.400000           0   0.00000       0.00000    
      6899 IM1H     345      IM1H     H7       HDP1A    0.363000       1.00800           0   0.00000       0.00000    
      6900 IM1H     345      IM1H     LPN21    LPD       0.00000       0.00000          -1   0.00000       0.00000    
      6901 IM1H     346      IM1H     C1       CD33F     2.48500       11.6110           0  -1.18100       1.10000    
      6902 IM1H     346      IM1H     DC1      DRUD     -2.66700      0.400000           0   0.00000       0.00000    
      6903 IM1H     346      IM1H     H1       HDA3A    0.135000       1.00800           0   0.00000       0.00000    
      6904 IM1H     346      IM1H     H2       HDA3A    0.135000       1.00800           0   0.00000       0.00000    
      6905 IM1H     346      IM1H     H3       HDA3A    0.135000       1.00800           0   0.00000       0.00000    
      6906 IM1H     346      IM1H     N1       ND2R5C    2.35720       13.6070           0 -0.803000       1.00000    
      6907 IM1H     346      IM1H     DN1      DRUD     -2.19920      0.400000           0   0.00000       0.00000    
      6908 IM1H     346      IM1H     C2       CD2R5D    2.44700       11.6110           0  -1.08300       1.10000    
      6909 IM1H     346      IM1H     DC2      DRUD     -2.55400      0.400000           0   0.00000       0.00000    
      6910 IM1H     346      IM1H     H4       HDR5D    0.195000       1.00800           0   0.00000       0.00000    
      6911 IM1H     346      IM1H     C3       CD2R5D    2.50700       11.6110           0  -1.08300       1.10000    
      6912 IM1H     346      IM1H     DC3      DRUD     -2.55400      0.400000           0   0.00000       0.00000    
      6913 IM1H     346      IM1H     H5       HDR5D    0.192000       1.00800           0   0.00000       0.00000    
      6914 IM1H     346      IM1H     C4       CD2R5E    2.72410       11.6110           0  -1.25300       1.20000    
      6915 IM1H     346      IM1H     DC4      DRUD     -2.74710      0.400000           0   0.00000       0.00000    
      6916 IM1H     346      IM1H     H6       HDR5E    0.203000       1.00800           0   0.00000       0.00000    
      6917 IM1H     346      IM1H     N2       ND2R5C    2.04220       13.6070           0 -0.803000       1.00000    
      6918 IM1H     346      IM1H     DN2      DRUD     -2.19920      0.400000           0   0.00000       0.00000    
      6919 IM1H     346      IM1H     H7       HDP1A    0.363000       1.00800           0   0.00000       0.00000    
      6920 IM1H     346      IM1H     LPN21    LPD       0.00000       0.00000          -1   0.00000       0.00000    
      6921 IM1H     347      IM1H     C1       CD33F     2.48500       11.6110           0  -1.18100       1.10000    
      6922 IM1H     347      IM1H     DC1      DRUD     -2.66700      0.400000           0   0.00000       0.00000    
      6923 IM1H     347      IM1H     H1       HDA3A    0.135000       1.00800           0   0.00000       0.00000    
      6924 IM1H     347      IM1H     H2       HDA3A    0.135000       1.00800           0   0.00000       0.00000    
      6925 IM1H     347      IM1H     H3       HDA3A    0.135000       1.00800           0   0.00000       0.00000    
      6926 IM1H     347      IM1H     N1       ND2R5C    2.35720       13.6070           0 -0.803000       1.00000    
      6927 IM1H     347      IM1H     DN1      DRUD     -2.19920      0.400000           0   0.00000       0.00000    
      6928 IM1H     347      IM1H     C2       CD2R5D    2.44700       11.6110           0  -1.08300       1.10000    
      6929 IM1H     347      IM1H     DC2      DRUD     -2.55400      0.400000           0   0.00000       0.00000    
      6930 IM1H     347      IM1H     H4       HDR5D    0.195000       1.00800           0   0.00000       0.00000    
      6931 IM1H     347      IM1H     C3       CD2R5D    2.50700       11.6110           0  -1.08300       1.10000    
      6932 IM1H     347      IM1H     DC3      DRUD     -2.55400      0.400000           0   0.00000       0.00000    
      6933 IM1H     347      IM1H     H5       HDR5D    0.192000       1.00800           0   0.00000       0.00000    
      6934 IM1H     347      IM1H     C4       CD2R5E    2.72410       11.6110           0  -1.25300       1.20000    
      6935 IM1H     347      IM1H     DC4      DRUD     -2.74710      0.400000           0   0.00000       0.00000    
      6936 IM1H     347      IM1H     H6       HDR5E    0.203000       1.00800           0   0.00000       0.00000    
      6937 IM1H     347      IM1H     N2       ND2R5C    2.04220       13.6070           0 -0.803000       1.00000    
      6938 IM1H     347      IM1H     DN2      DRUD     -2.19920      0.400000           0   0.00000       0.00000    
      6939 IM1H     347      IM1H     H7       HDP1A    0.363000       1.00800           0   0.00000       0.00000    
      6940 IM1H     347      IM1H     LPN21    LPD       0.00000       0.00000          -1   0.00000       0.00000    
      6941 IM1H     348      IM1H     C1       CD33F     2.48500       11.6110           0  -1.18100       1.10000    
      6942 IM1H     348      IM1H     DC1      DRUD     -2.66700      0.400000           0   0.00000       0.00000    
      6943 IM1H     348      IM1H     H1       HDA3A    0.135000       1.00800           0   0.00000       0.00000    
      6944 IM1H     348      IM1H     H2       HDA3A    0.135000       1.00800           0   0.00000       0.00000    
      6945 IM1H     348      IM1H     H3       HDA3A    0.135000       1.00800           0   0.00000       0.00000    
      6946 IM1H     348      IM1H     N1       ND2R5C    2.35720       13.6070           0 -0.803000       1.00000    
      6947 IM1H     348      IM1H     DN1      DRUD     -2.19920      0.400000           0   0.00000       0.00000    
      6948 IM1H     348      IM1H     C2       CD2R5D    2.44700       11.6110           0  -1.08300       1.10000    
      6949 IM1H     348      IM1H     DC2      DRUD     -2.55400      0.400000           0   0.00000       0.00000    
      6950 IM1H     348      IM1H     H4       HDR5D    0.195000       1.00800           0   0.00000       0.00000    
      6951 IM1H     348      IM1H     C3       CD2R5D    2.50700       11.6110           0  -1.08300       1.10000    
      6952 IM1H     348      IM1H     DC3      DRUD     -2.55400      0.400000           0   0.00000       0.00000    
      6953 IM1H     348      IM1H     H5       HDR5D    0.192000       1.00800           0   0.00000       0.00000    
      6954 IM1H     348      IM1H     C4       CD2R5E    2.72410       11.6110           0  -1.25300       1.20000    
      6955 IM1H     348      IM1H     DC4      DRUD     -2.74710      0.400000           0   0.00000       0.00000    
      6956 IM1H     348      IM1H     H6       HDR5E    0.203000       1.00800           0   0.00000       0.00000    
      6957 IM1H     348      IM1H     N2       ND2R5C    2.04220       13.6070           0 -0.803000       1.00000    
      6958 IM1H     348      IM1H     DN2      DRUD     -2.19920      0.400000           0   0.00000       0.00000    
      6959 IM1H     348      IM1H     H7       HDP1A    0.363000       1.00800           0   0.00000       0.00000    
      6960 IM1H     348      IM1H     LPN21    LPD       0.00000       0.00000          -1   0.00000       0.00000    
      6961 IM1H     349      IM1H     C1       CD33F     2.48500       11.6110           0  -1.18100       1.10000    
      6962 IM1H     349      IM1H     DC1      DRUD     -2.66700      0.400000           0   0.00000       0.00000    
      6963 IM1H     349      IM1H     H1       HDA3A    0.135000       1.00800           0   0.00000       0.00000    
      6964 IM1H     349      IM1H     H2       HDA3A    0.135000       1.00800           0   0.00000       0.00000    
      6965 IM1H     349      IM1H     H3       HDA3A    0.135000       1.00800           0   0.00000       0.00000    
      6966 IM1H     349      IM1H     N1       ND2R5C    2.35720       13.6070           0 -0.803000       1.00000    
      6967 IM1H     349      IM1H     DN1      DRUD     -2.19920      0.400000           0   0.00000       0.00000    
      6968 IM1H     349      IM1H     C2       CD2R5D    2.44700       11.6110           0  -1.08300       1.10000    
      6969 IM1H     349      IM1H     DC2      DRUD     -2.55400      0.400000           0   0.00000       0.00000    
      6970 IM1H     349      IM1H     H4       HDR5D    0.195000       1.00800           0   0.00000       0.00000    
      6971 IM1H     349      IM1H     C3       CD2R5D    2.50700       11.6110           0  -1.08300       1.10000    
      6972 IM1H     349      IM1H     DC3      DRUD     -2.55400      0.400000           0   0.00000       0.00000    
      6973 IM1H     349      IM1H     H5       HDR5D    0.192000       1.00800           0   0.00000       0.00000    
      6974 IM1H     349      IM1H     C4       CD2R5E    2.72410       11.6110           0  -1.25300       1.20000    
      6975 IM1H     349      IM1H     DC4      DRUD     -2.74710      0.400000           0   0.00000       0.00000    
      6976 IM1H     349      IM1H     H6       HDR5E    0.203000       1.00800           0   0.00000       0.00000    
      6977 IM1H     349      IM1H     N2       ND2R5C    2.04220       13.6070           0 -0.803000       1.00000    
      6978 IM1H     349      IM1H     DN2      DRUD     -2.19920      0.400000           0   0.00000       0.00000    
      6979 IM1H     349      IM1H     H7       HDP1A    0.363000       1.00800           0   0.00000       0.00000    
      6980 IM1H     349      IM1H     LPN21    LPD       0.00000       0.00000          -1   0.00000       0.00000    
      6981 IM1H     350      IM1H     C1       CD33F     2.48500       11.6110           0  -1.18100       1.10000    
      6982 IM1H     350      IM1H     DC1      DRUD     -2.66700      0.400000           0   0.00000       0.00000    
      6983 IM1H     350      IM1H     H1       HDA3A    0.135000       1.00800           0   0.00000       0.00000    
      6984 IM1H     350      IM1H     H2       HDA3A    0.135000       1.00800           0   0.00000       0.00000    
      6985 IM1H     350      IM1H     H3       HDA3A    0.135000       1.00800           0   0.00000       0.00000    
      6986 IM1H     350      IM1H     N1       ND2R5C    2.35720       13.6070           0 -0.803000       1.00000    
      6987 IM1H     350      IM1H     DN1      DRUD     -2.19920      0.400000           0   0.00000       0.00000    
      6988 IM1H     350      IM1H     C2       CD2R5D    2.44700       11.6110           0  -1.08300       1.10000    
      6989 IM1H     350      IM1H     DC2      DRUD     -2.55400      0.400000           0   0.00000       0.00000    
      6990 IM1H     350      IM1H     H4       HDR5D    0.195000       1.00800           0   0.00000       0.00000    
      6991 IM1H     350      IM1H     C3       CD2R5D    2.50700       11.6110           0  -1.08300       1.10000    
      6992 IM1H     350      IM1H     DC3      DRUD     -2.55400      0.400000           0   0.00000       0.00000    
      6993 IM1H     350      IM1H     H5       HDR5D    0.192000       1.00800           0   0.00000       0.00000    
      6994 IM1H     350      IM1H     C4       CD2R5E    2.72410       11.6110           0  -1.25300       1.20000    
      6995 IM1H     350      IM1H     DC4      DRUD     -2.74710      0.400000           0   0.00000       0.00000    
      6996 IM1H     350      IM1H     H6       HDR5E    0.203000       1.00800           0   0.00000       0.00000    
      6997 IM1H     350      IM1H     N2       ND2R5C    2.04220       13.6070           0 -0.803000       1.00000    
      6998 IM1H     350      IM1H     DN2      DRUD     -2.19920      0.400000           0   0.00000       0.00000    
      6999 IM1H     350      IM1H     H7       HDP1A    0.363000       1.00800           0   0.00000       0.00000    
      7000 IM1H     350      IM1H     LPN21    LPD       0.00000       0.00000          -1   0.00000       0.00000    
      7001 IM1H     351      IM1H     C1       CD33F     2.48500       11.6110           0  -1.18100       1.10000    
      7002 IM1H     351      IM1H     DC1      DRUD     -2.66700      0.400000           0   0.00000       0.00000    
      7003 IM1H     351      IM1H     H1       HDA3A    0.135000       1.00800           0   0.00000       0.00000    
      7004 IM1H     351      IM1H     H2       HDA3A    0.135000       1.00800           0   0.00000       0.00000    
      7005 IM1H     351      IM1H     H3       HDA3A    0.135000       1.00800           0   0.00000       0.00000    
      7006 IM1H     351      IM1H     N1       ND2R5C    2.35720       13.6070           0 -0.803000       1.00000    
      7007 IM1H     351      IM1H     DN1      DRUD     -2.19920      0.400000           0   0.00000       0.00000    
      7008 IM1H     351      IM1H     C2       CD2R5D    2.44700       11.6110           0  -1.08300       1.10000    
      7009 IM1H     351      IM1H     DC2      DRUD     -2.55400      0.400000           0   0.00000       0.00000    
      7010 IM1H     351      IM1H     H4       HDR5D    0.195000       1.00800           0   0.00000       0.00000    
      7011 IM1H     351      IM1H     C3       CD2R5D    2.50700       11.6110           0  -1.08300       1.10000    
      7012 IM1H     351      IM1H     DC3      DRUD     -2.55400      0.400000           0   0.00000       0.00000    
      7013 IM1H     351      IM1H     H5       HDR5D    0.192000       1.00800           0   0.00000       0.00000    
      7014 IM1H     351      IM1H     C4       CD2R5E    2.72410       11.6110           0  -1.25300       1.20000    
      7015 IM1H     351      IM1H     DC4      DRUD     -2.74710      0.400000           0   0.00000       0.00000    
      7016 IM1H     351      IM1H     H6       HDR5E    0.203000       1.00800           0   0.00000       0.00000    
      7017 IM1H     351      IM1H     N2       ND2R5C    2.04220       13.6070           0 -0.803000       1.00000    
      7018 IM1H     351      IM1H     DN2      DRUD     -2.19920      0.400000           0   0.00000       0.00000    
      7019 IM1H     351      IM1H     H7       HDP1A    0.363000       1.00800           0   0.00000       0.00000    
      7020 IM1H     351      IM1H     LPN21    LPD       0.00000       0.00000          -1   0.00000       0.00000    
      7021 IM1H     352      IM1H     C1       CD33F     2.48500       11.6110           0  -1.18100       1.10000    
      7022 IM1H     352      IM1H     DC1      DRUD     -2.66700      0.400000           0   0.00000       0.00000    
      7023 IM1H     352      IM1H     H1       HDA3A    0.135000       1.00800           0   0.00000       0.00000    
      7024 IM1H     352      IM1H     H2       HDA3A    0.135000       1.00800           0   0.00000       0.00000    
      7025 IM1H     352      IM1H     H3       HDA3A    0.135000       1.00800           0   0.00000       0.00000    
      7026 IM1H     352      IM1H     N1       ND2R5C    2.35720       13.6070           0 -0.803000       1.00000    
      7027 IM1H     352      IM1H     DN1      DRUD     -2.19920      0.400000           0   0.00000       0.00000    
      7028 IM1H     352      IM1H     C2       CD2R5D    2.44700       11.6110           0  -1.08300       1.10000    
      7029 IM1H     352      IM1H     DC2      DRUD     -2.55400      0.400000           0   0.00000       0.00000    
      7030 IM1H     352      IM1H     H4       HDR5D    0.195000       1.00800           0   0.00000       0.00000    
      7031 IM1H     352      IM1H     C3       CD2R5D    2.50700       11.6110           0  -1.08300       1.10000    
      7032 IM1H     352      IM1H     DC3      DRUD     -2.55400      0.400000           0   0.00000       0.00000    
      7033 IM1H     352      IM1H     H5       HDR5D    0.192000       1.00800           0   0.00000       0.00000    
      7034 IM1H     352      IM1H     C4       CD2R5E    2.72410       11.6110           0  -1.25300       1.20000    
      7035 IM1H     352      IM1H     DC4      DRUD     -2.74710      0.400000           0   0.00000       0.00000    
      7036 IM1H     352      IM1H     H6       HDR5E    0.203000       1.00800           0   0.00000       0.00000    
      7037 IM1H     352      IM1H     N2       ND2R5C    2.04220       13.6070           0 -0.803000       1.00000    
      7038 IM1H     352      IM1H     DN2      DRUD     -2.19920      0.400000           0   0.00000       0.00000    
      7039 IM1H     352      IM1H     H7       HDP1A    0.363000       1.00800           0   0.00000       0.00000    
      7040 IM1H     352      IM1H     LPN21    LPD       0.00000       0.00000          -1   0.00000       0.00000    
      7041 IM1H     353      IM1H     C1       CD33F     2.48500       11.6110           0  -1.18100       1.10000    
      7042 IM1H     353      IM1H     DC1      DRUD     -2.66700      0.400000           0   0.00000       0.00000    
      7043 IM1H     353      IM1H     H1       HDA3A    0.135000       1.00800           0   0.00000       0.00000    
      7044 IM1H     353      IM1H     H2       HDA3A    0.135000       1.00800           0   0.00000       0.00000    
      7045 IM1H     353      IM1H     H3       HDA3A    0.135000       1.00800           0   0.00000       0.00000    
      7046 IM1H     353      IM1H     N1       ND2R5C    2.35720       13.6070           0 -0.803000       1.00000    
      7047 IM1H     353      IM1H     DN1      DRUD     -2.19920      0.400000           0   0.00000       0.00000    
      7048 IM1H     353      IM1H     C2       CD2R5D    2.44700       11.6110           0  -1.08300       1.10000    
      7049 IM1H     353      IM1H     DC2      DRUD     -2.55400      0.400000           0   0.00000       0.00000    
      7050 IM1H     353      IM1H     H4       HDR5D    0.195000       1.00800           0   0.00000       0.00000    
      7051 IM1H     353      IM1H     C3       CD2R5D    2.50700       11.6110           0  -1.08300       1.10000    
      7052 IM1H     353      IM1H     DC3      DRUD     -2.55400      0.400000           0   0.00000       0.00000    
      7053 IM1H     353      IM1H     H5       HDR5D    0.192000       1.00800           0   0.00000       0.00000    
      7054 IM1H     353      IM1H     C4       CD2R5E    2.72410       11.6110           0  -1.25300       1.20000    
      7055 IM1H     353      IM1H     DC4      DRUD     -2.74710      0.400000           0   0.00000       0.00000    
      7056 IM1H     353      IM1H     H6       HDR5E    0.203000       1.00800           0   0.00000       0.00000    
      7057 IM1H     353      IM1H     N2       ND2R5C    2.04220       13.6070           0 -0.803000       1.00000    
      7058 IM1H     353      IM1H     DN2      DRUD     -2.19920      0.400000           0   0.00000       0.00000    
      7059 IM1H     353      IM1H     H7       HDP1A    0.363000       1.00800           0   0.00000       0.00000    
      7060 IM1H     353      IM1H     LPN21    LPD       0.00000       0.00000          -1   0.00000       0.00000    
      7061 IM1H     354      IM1H     C1       CD33F     2.48500       11.6110           0  -1.18100       1.10000    
      7062 IM1H     354      IM1H     DC1      DRUD     -2.66700      0.400000           0   0.00000       0.00000    
      7063 IM1H     354      IM1H     H1       HDA3A    0.135000       1.00800           0   0.00000       0.00000    
      7064 IM1H     354      IM1H     H2       HDA3A    0.135000       1.00800           0   0.00000       0.00000    
      7065 IM1H     354      IM1H     H3       HDA3A    0.135000       1.00800           0   0.00000       0.00000    
      7066 IM1H     354      IM1H     N1       ND2R5C    2.35720       13.6070           0 -0.803000       1.00000    
      7067 IM1H     354      IM1H     DN1      DRUD     -2.19920      0.400000           0   0.00000       0.00000    
      7068 IM1H     354      IM1H     C2       CD2R5D    2.44700       11.6110           0  -1.08300       1.10000    
      7069 IM1H     354      IM1H     DC2      DRUD     -2.55400      0.400000           0   0.00000       0.00000    
      7070 IM1H     354      IM1H     H4       HDR5D    0.195000       1.00800           0   0.00000       0.00000    
      7071 IM1H     354      IM1H     C3       CD2R5D    2.50700       11.6110           0  -1.08300       1.10000    
      7072 IM1H     354      IM1H     DC3      DRUD     -2.55400      0.400000           0   0.00000       0.00000    
      7073 IM1H     354      IM1H     H5       HDR5D    0.192000       1.00800           0   0.00000       0.00000    
      7074 IM1H     354      IM1H     C4       CD2R5E    2.72410       11.6110           0  -1.25300       1.20000    
      7075 IM1H     354      IM1H     DC4      DRUD     -2.74710      0.400000           0   0.00000       0.00000    
      7076 IM1H     354      IM1H     H6       HDR5E    0.203000       1.00800           0   0.00000       0.00000    
      7077 IM1H     354      IM1H     N2       ND2R5C    2.04220       13.6070           0 -0.803000       1.00000    
      7078 IM1H     354      IM1H     DN2      DRUD     -2.19920      0.400000           0   0.00000       0.00000    
      7079 IM1H     354      IM1H     H7       HDP1A    0.363000       1.00800           0   0.00000       0.00000    
      7080 IM1H     354      IM1H     LPN21    LPD       0.00000       0.00000          -1   0.00000       0.00000    
      7081 IM1H     355      IM1H     C1       CD33F     2.48500       11.6110           0  -1.18100       1.10000    
      7082 IM1H     355      IM1H     DC1      DRUD     -2.66700      0.400000           0   0.00000       0.00000    
      7083 IM1H     355      IM1H     H1       HDA3A    0.135000       1.00800           0   0.00000       0.00000    
      7084 IM1H     355      IM1H     H2       HDA3A    0.135000       1.00800           0   0.00000       0.00000    
      7085 IM1H     355      IM1H     H3       HDA3A    0.135000       1.00800           0   0.00000       0.00000    
      7086 IM1H     355      IM1H     N1       ND2R5C    2.35720       13.6070           0 -0.803000       1.00000    
      7087 IM1H     355      IM1H     DN1      DRUD     -2.19920      0.400000           0   0.00000       0.00000    
      7088 IM1H     355      IM1H     C2       CD2R5D    2.44700       11.6110           0  -1.08300       1.10000    
      7089 IM1H     355      IM1H     DC2      DRUD     -2.55400      0.400000           0   0.00000       0.00000    
      7090 IM1H     355      IM1H     H4       HDR5D    0.195000       1.00800           0   0.00000       0.00000    
      7091 IM1H     355      IM1H     C3       CD2R5D    2.50700       11.6110           0  -1.08300       1.10000    
      7092 IM1H     355      IM1H     DC3      DRUD     -2.55400      0.400000           0   0.00000       0.00000    
      7093 IM1H     355      IM1H     H5       HDR5D    0.192000       1.00800           0   0.00000       0.00000    
      7094 IM1H     355      IM1H     C4       CD2R5E    2.72410       11.6110           0  -1.25300       1.20000    
      7095 IM1H     355      IM1H     DC4      DRUD     -2.74710      0.400000           0   0.00000       0.00000    
      7096 IM1H     355      IM1H     H6       HDR5E    0.203000       1.00800           0   0.00000       0.00000    
      7097 IM1H     355      IM1H     N2       ND2R5C    2.04220       13.6070           0 -0.803000       1.00000    
      7098 IM1H     355      IM1H     DN2      DRUD     -2.19920      0.400000           0   0.00000       0.00000    
      7099 IM1H     355      IM1H     H7       HDP1A    0.363000       1.00800           0   0.00000       0.00000    
      7100 IM1H     355      IM1H     LPN21    LPD       0.00000       0.00000          -1   0.00000       0.00000    
      7101 IM1H     356      IM1H     C1       CD33F     2.48500       11.6110           0  -1.18100       1.10000    
      7102 IM1H     356      IM1H     DC1      DRUD     -2.66700      0.400000           0   0.00000       0.00000    
      7103 IM1H     356      IM1H     H1       HDA3A    0.135000       1.00800           0   0.00000       0.00000    
      7104 IM1H     356      IM1H     H2       HDA3A    0.135000       1.00800           0   0.00000       0.00000    
      7105 IM1H     356      IM1H     H3       HDA3A    0.135000       1.00800           0   0.00000       0.00000    
      7106 IM1H     356      IM1H     N1       ND2R5C    2.35720       13.6070           0 -0.803000       1.00000    
      7107 IM1H     356      IM1H     DN1      DRUD     -2.19920      0.400000           0   0.00000       0.00000    
      7108 IM1H     356      IM1H     C2       CD2R5D    2.44700       11.6110           0  -1.08300       1.10000    
      7109 IM1H     356      IM1H     DC2      DRUD     -2.55400      0.400000           0   0.00000       0.00000    
      7110 IM1H     356      IM1H     H4       HDR5D    0.195000       1.00800           0   0.00000       0.00000    
      7111 IM1H     356      IM1H     C3       CD2R5D    2.50700       11.6110           0  -1.08300       1.10000    
      7112 IM1H     356      IM1H     DC3      DRUD     -2.55400      0.400000           0   0.00000       0.00000    
      7113 IM1H     356      IM1H     H5       HDR5D    0.192000       1.00800           0   0.00000       0.00000    
      7114 IM1H     356      IM1H     C4       CD2R5E    2.72410       11.6110           0  -1.25300       1.20000    
      7115 IM1H     356      IM1H     DC4      DRUD     -2.74710      0.400000           0   0.00000       0.00000    
      7116 IM1H     356      IM1H     H6       HDR5E    0.203000       1.00800           0   0.00000       0.00000    
      7117 IM1H     356      IM1H     N2       ND2R5C    2.04220       13.6070           0 -0.803000       1.00000    
      7118 IM1H     356      IM1H     DN2      DRUD     -2.19920      0.400000           0   0.00000       0.00000    
      7119 IM1H     356      IM1H     H7       HDP1A    0.363000       1.00800           0   0.00000       0.00000    
      7120 IM1H     356      IM1H     LPN21    LPD       0.00000       0.00000          -1   0.00000       0.00000    
      7121 IM1H     357      IM1H     C1       CD33F     2.48500       11.6110           0  -1.18100       1.10000    
      7122 IM1H     357      IM1H     DC1      DRUD     -2.66700      0.400000           0   0.00000       0.00000    
      7123 IM1H     357      IM1H     H1       HDA3A    0.135000       1.00800           0   0.00000       0.00000    
      7124 IM1H     357      IM1H     H2       HDA3A    0.135000       1.00800           0   0.00000       0.00000    
      7125 IM1H     357      IM1H     H3       HDA3A    0.135000       1.00800           0   0.00000       0.00000    
      7126 IM1H     357      IM1H     N1       ND2R5C    2.35720       13.6070           0 -0.803000       1.00000    
      7127 IM1H     357      IM1H     DN1      DRUD     -2.19920      0.400000           0   0.00000       0.00000    
      7128 IM1H     357      IM1H     C2       CD2R5D    2.44700       11.6110           0  -1.08300       1.10000    
      7129 IM1H     357      IM1H     DC2      DRUD     -2.55400      0.400000           0   0.00000       0.00000    
      7130 IM1H     357      IM1H     H4       HDR5D    0.195000       1.00800           0   0.00000       0.00000    
      7131 IM1H     357      IM1H     C3       CD2R5D    2.50700       11.6110           0  -1.08300       1.10000    
      7132 IM1H     357      IM1H     DC3      DRUD     -2.55400      0.400000           0   0.00000       0.00000    
      7133 IM1H     357      IM1H     H5       HDR5D    0.192000       1.00800           0   0.00000       0.00000    
      7134 IM1H     357      IM1H     C4       CD2R5E    2.72410       11.6110           0  -1.25300       1.20000    
      7135 IM1H     357      IM1H     DC4      DRUD     -2.74710      0.400000           0   0.00000       0.00000    
      7136 IM1H     357      IM1H     H6       HDR5E    0.203000       1.00800           0   0.00000       0.00000    
      7137 IM1H     357      IM1H     N2       ND2R5C    2.04220       13.6070           0 -0.803000       1.00000    
      7138 IM1H     357      IM1H     DN2      DRUD     -2.19920      0.400000           0   0.00000       0.00000    
      7139 IM1H     357      IM1H     H7       HDP1A    0.363000       1.00800           0   0.00000       0.00000    
      7140 IM1H     357      IM1H     LPN21    LPD       0.00000       0.00000          -1   0.00000       0.00000    
      7141 IM1H     358      IM1H     C1       CD33F     2.48500       11.6110           0  -1.18100       1.10000    
      7142 IM1H     358      IM1H     DC1      DRUD     -2.66700      0.400000           0   0.00000       0.00000    
      7143 IM1H     358      IM1H     H1       HDA3A    0.135000       1.00800           0   0.00000       0.00000    
      7144 IM1H     358      IM1H     H2       HDA3A    0.135000       1.00800           0   0.00000       0.00000    
      7145 IM1H     358      IM1H     H3       HDA3A    0.135000       1.00800           0   0.00000       0.00000    
      7146 IM1H     358      IM1H     N1       ND2R5C    2.35720       13.6070           0 -0.803000       1.00000    
      7147 IM1H     358      IM1H     DN1      DRUD     -2.19920      0.400000           0   0.00000       0.00000    
      7148 IM1H     358      IM1H     C2       CD2R5D    2.44700       11.6110           0  -1.08300       1.10000    
      7149 IM1H     358      IM1H     DC2      DRUD     -2.55400      0.400000           0   0.00000       0.00000    
      7150 IM1H     358      IM1H     H4       HDR5D    0.195000       1.00800           0   0.00000       0.00000    
      7151 IM1H     358      IM1H     C3       CD2R5D    2.50700       11.6110           0  -1.08300       1.10000    
      7152 IM1H     358      IM1H     DC3      DRUD     -2.55400      0.400000           0   0.00000       0.00000    
      7153 IM1H     358      IM1H     H5       HDR5D    0.192000       1.00800           0   0.00000       0.00000    
      7154 IM1H     358      IM1H     C4       CD2R5E    2.72410       11.6110           0  -1.25300       1.20000    
      7155 IM1H     358      IM1H     DC4      DRUD     -2.74710      0.400000           0   0.00000       0.00000    
      7156 IM1H     358      IM1H     H6       HDR5E    0.203000       1.00800           0   0.00000       0.00000    
      7157 IM1H     358      IM1H     N2       ND2R5C    2.04220       13.6070           0 -0.803000       1.00000    
      7158 IM1H     358      IM1H     DN2      DRUD     -2.19920      0.400000           0   0.00000       0.00000    
      7159 IM1H     358      IM1H     H7       HDP1A    0.363000       1.00800           0   0.00000       0.00000    
      7160 IM1H     358      IM1H     LPN21    LPD       0.00000       0.00000          -1   0.00000       0.00000    
      7161 IM1H     359      IM1H     C1       CD33F     2.48500       11.6110           0  -1.18100       1.10000    
      7162 IM1H     359      IM1H     DC1      DRUD     -2.66700      0.400000           0   0.00000       0.00000    
      7163 IM1H     359      IM1H     H1       HDA3A    0.135000       1.00800           0   0.00000       0.00000    
      7164 IM1H     359      IM1H     H2       HDA3A    0.135000       1.00800           0   0.00000       0.00000    
      7165 IM1H     359      IM1H     H3       HDA3A    0.135000       1.00800           0   0.00000       0.00000    
      7166 IM1H     359      IM1H     N1       ND2R5C    2.35720       13.6070           0 -0.803000       1.00000    
      7167 IM1H     359      IM1H     DN1      DRUD     -2.19920      0.400000           0   0.00000       0.00000    
      7168 IM1H     359      IM1H     C2       CD2R5D    2.44700       11.6110           0  -1.08300       1.10000    
      7169 IM1H     359      IM1H     DC2      DRUD     -2.55400      0.400000           0   0.00000       0.00000    
      7170 IM1H     359      IM1H     H4       HDR5D    0.195000       1.00800           0   0.00000       0.00000    
      7171 IM1H     359      IM1H     C3       CD2R5D    2.50700       11.6110           0  -1.08300       1.10000    
      7172 IM1H     359      IM1H     DC3      DRUD     -2.55400      0.400000           0   0.00000       0.00000    
      7173 IM1H     359      IM1H     H5       HDR5D    0.192000       1.00800           0   0.00000       0.00000    
      7174 IM1H     359      IM1H     C4       CD2R5E    2.72410       11.6110           0  -1.25300       1.20000    
      7175 IM1H     359      IM1H     DC4      DRUD     -2.74710      0.400000           0   0.00000       0.00000    
      7176 IM1H     359      IM1H     H6       HDR5E    0.203000       1.00800           0   0.00000       0.00000    
      7177 IM1H     359      IM1H     N2       ND2R5C    2.04220       13.6070           0 -0.803000       1.00000    
      7178 IM1H     359      IM1H     DN2      DRUD     -2.19920      0.400000           0   0.00000       0.00000    
      7179 IM1H     359      IM1H     H7       HDP1A    0.363000       1.00800           0   0.00000       0.00000    
      7180 IM1H     359      IM1H     LPN21    LPD       0.00000       0.00000          -1   0.00000       0.00000    
      7181 IM1H     360      IM1H     C1       CD33F     2.48500       11.6110           0  -1.18100       1.10000    
      7182 IM1H     360      IM1H     DC1      DRUD     -2.66700      0.400000           0   0.00000       0.00000    
      7183 IM1H     360      IM1H     H1       HDA3A    0.135000       1.00800           0   0.00000       0.00000    
      7184 IM1H     360      IM1H     H2       HDA3A    0.135000       1.00800           0   0.00000       0.00000    
      7185 IM1H     360      IM1H     H3       HDA3A    0.135000       1.00800           0   0.00000       0.00000    
      7186 IM1H     360      IM1H     N1       ND2R5C    2.35720       13.6070           0 -0.803000       1.00000    
      7187 IM1H     360      IM1H     DN1      DRUD     -2.19920      0.400000           0   0.00000       0.00000    
      7188 IM1H     360      IM1H     C2       CD2R5D    2.44700       11.6110           0  -1.08300       1.10000    
      7189 IM1H     360      IM1H     DC2      DRUD     -2.55400      0.400000           0   0.00000       0.00000    
      7190 IM1H     360      IM1H     H4       HDR5D    0.195000       1.00800           0   0.00000       0.00000    
      7191 IM1H     360      IM1H     C3       CD2R5D    2.50700       11.6110           0  -1.08300       1.10000    
      7192 IM1H     360      IM1H     DC3      DRUD     -2.55400      0.400000           0   0.00000       0.00000    
      7193 IM1H     360      IM1H     H5       HDR5D    0.192000       1.00800           0   0.00000       0.00000    
      7194 IM1H     360      IM1H     C4       CD2R5E    2.72410       11.6110           0  -1.25300       1.20000    
      7195 IM1H     360      IM1H     DC4      DRUD     -2.74710      0.400000           0   0.00000       0.00000    
      7196 IM1H     360      IM1H     H6       HDR5E    0.203000       1.00800           0   0.00000       0.00000    
      7197 IM1H     360      IM1H     N2       ND2R5C    2.04220       13.6070           0 -0.803000       1.00000    
      7198 IM1H     360      IM1H     DN2      DRUD     -2.19920      0.400000           0   0.00000       0.00000    
      7199 IM1H     360      IM1H     H7       HDP1A    0.363000       1.00800           0   0.00000       0.00000    
      7200 IM1H     360      IM1H     LPN21    LPD       0.00000       0.00000          -1   0.00000       0.00000    
      7201 IM1H     361      IM1H     C1       CD33F     2.48500       11.6110           0  -1.18100       1.10000    
      7202 IM1H     361      IM1H     DC1      DRUD     -2.66700      0.400000           0   0.00000       0.00000    
      7203 IM1H     361      IM1H     H1       HDA3A    0.135000       1.00800           0   0.00000       0.00000    
      7204 IM1H     361      IM1H     H2       HDA3A    0.135000       1.00800           0   0.00000       0.00000    
      7205 IM1H     361      IM1H     H3       HDA3A    0.135000       1.00800           0   0.00000       0.00000    
      7206 IM1H     361      IM1H     N1       ND2R5C    2.35720       13.6070           0 -0.803000       1.00000    
      7207 IM1H     361      IM1H     DN1      DRUD     -2.19920      0.400000           0   0.00000       0.00000    
      7208 IM1H     361      IM1H     C2       CD2R5D    2.44700       11.6110           0  -1.08300       1.10000    
      7209 IM1H     361      IM1H     DC2      DRUD     -2.55400      0.400000           0   0.00000       0.00000    
      7210 IM1H     361      IM1H     H4       HDR5D    0.195000       1.00800           0   0.00000       0.00000    
      7211 IM1H     361      IM1H     C3       CD2R5D    2.50700       11.6110           0  -1.08300       1.10000    
      7212 IM1H     361      IM1H     DC3      DRUD     -2.55400      0.400000           0   0.00000       0.00000    
      7213 IM1H     361      IM1H     H5       HDR5D    0.192000       1.00800           0   0.00000       0.00000    
      7214 IM1H     361      IM1H     C4       CD2R5E    2.72410       11.6110           0  -1.25300       1.20000    
      7215 IM1H     361      IM1H     DC4      DRUD     -2.74710      0.400000           0   0.00000       0.00000    
      7216 IM1H     361      IM1H     H6       HDR5E    0.203000       1.00800           0   0.00000       0.00000    
      7217 IM1H     361      IM1H     N2       ND2R5C    2.04220       13.6070           0 -0.803000       1.00000    
      7218 IM1H     361      IM1H     DN2      DRUD     -2.19920      0.400000           0   0.00000       0.00000    
      7219 IM1H     361      IM1H     H7       HDP1A    0.363000       1.00800           0   0.00000       0.00000    
      7220 IM1H     361      IM1H     LPN21    LPD       0.00000       0.00000          -1   0.00000       0.00000    
      7221 IM1H     362      IM1H     C1       CD33F     2.48500       11.6110           0  -1.18100       1.10000    
      7222 IM1H     362      IM1H     DC1      DRUD     -2.66700      0.400000           0   0.00000       0.00000    
      7223 IM1H     362      IM1H     H1       HDA3A    0.135000       1.00800           0   0.00000       0.00000    
      7224 IM1H     362      IM1H     H2       HDA3A    0.135000       1.00800           0   0.00000       0.00000    
      7225 IM1H     362      IM1H     H3       HDA3A    0.135000       1.00800           0   0.00000       0.00000    
      7226 IM1H     362      IM1H     N1       ND2R5C    2.35720       13.6070           0 -0.803000       1.00000    
      7227 IM1H     362      IM1H     DN1      DRUD     -2.19920      0.400000           0   0.00000       0.00000    
      7228 IM1H     362      IM1H     C2       CD2R5D    2.44700       11.6110           0  -1.08300       1.10000    
      7229 IM1H     362      IM1H     DC2      DRUD     -2.55400      0.400000           0   0.00000       0.00000    
      7230 IM1H     362      IM1H     H4       HDR5D    0.195000       1.00800           0   0.00000       0.00000    
      7231 IM1H     362      IM1H     C3       CD2R5D    2.50700       11.6110           0  -1.08300       1.10000    
      7232 IM1H     362      IM1H     DC3      DRUD     -2.55400      0.400000           0   0.00000       0.00000    
      7233 IM1H     362      IM1H     H5       HDR5D    0.192000       1.00800           0   0.00000       0.00000    
      7234 IM1H     362      IM1H     C4       CD2R5E    2.72410       11.6110           0  -1.25300       1.20000    
      7235 IM1H     362      IM1H     DC4      DRUD     -2.74710      0.400000           0   0.00000       0.00000    
      7236 IM1H     362      IM1H     H6       HDR5E    0.203000       1.00800           0   0.00000       0.00000    
      7237 IM1H     362      IM1H     N2       ND2R5C    2.04220       13.6070           0 -0.803000       1.00000    
      7238 IM1H     362      IM1H     DN2      DRUD     -2.19920      0.400000           0   0.00000       0.00000    
      7239 IM1H     362      IM1H     H7       HDP1A    0.363000       1.00800           0   0.00000       0.00000    
      7240 IM1H     362      IM1H     LPN21    LPD       0.00000       0.00000          -1   0.00000       0.00000    
      7241 IM1H     363      IM1H     C1       CD33F     2.48500       11.6110           0  -1.18100       1.10000    
      7242 IM1H     363      IM1H     DC1      DRUD     -2.66700      0.400000           0   0.00000       0.00000    
      7243 IM1H     363      IM1H     H1       HDA3A    0.135000       1.00800           0   0.00000       0.00000    
      7244 IM1H     363      IM1H     H2       HDA3A    0.135000       1.00800           0   0.00000       0.00000    
      7245 IM1H     363      IM1H     H3       HDA3A    0.135000       1.00800           0   0.00000       0.00000    
      7246 IM1H     363      IM1H     N1       ND2R5C    2.35720       13.6070           0 -0.803000       1.00000    
      7247 IM1H     363      IM1H     DN1      DRUD     -2.19920      0.400000           0   0.00000       0.00000    
      7248 IM1H     363      IM1H     C2       CD2R5D    2.44700       11.6110           0  -1.08300       1.10000    
      7249 IM1H     363      IM1H     DC2      DRUD     -2.55400      0.400000           0   0.00000       0.00000    
      7250 IM1H     363      IM1H     H4       HDR5D    0.195000       1.00800           0   0.00000       0.00000    
      7251 IM1H     363      IM1H     C3       CD2R5D    2.50700       11.6110           0  -1.08300       1.10000    
      7252 IM1H     363      IM1H     DC3      DRUD     -2.55400      0.400000           0   0.00000       0.00000    
      7253 IM1H     363      IM1H     H5       HDR5D    0.192000       1.00800           0   0.00000       0.00000    
      7254 IM1H     363      IM1H     C4       CD2R5E    2.72410       11.6110           0  -1.25300       1.20000    
      7255 IM1H     363      IM1H     DC4      DRUD     -2.74710      0.400000           0   0.00000       0.00000    
      7256 IM1H     363      IM1H     H6       HDR5E    0.203000       1.00800           0   0.00000       0.00000    
      7257 IM1H     363      IM1H     N2       ND2R5C    2.04220       13.6070           0 -0.803000       1.00000    
      7258 IM1H     363      IM1H     DN2      DRUD     -2.19920      0.400000           0   0.00000       0.00000    
      7259 IM1H     363      IM1H     H7       HDP1A    0.363000       1.00800           0   0.00000       0.00000    
      7260 IM1H     363      IM1H     LPN21    LPD       0.00000       0.00000          -1   0.00000       0.00000    
      7261 IM1H     364      IM1H     C1       CD33F     2.48500       11.6110           0  -1.18100       1.10000    
      7262 IM1H     364      IM1H     DC1      DRUD     -2.66700      0.400000           0   0.00000       0.00000    
      7263 IM1H     364      IM1H     H1       HDA3A    0.135000       1.00800           0   0.00000       0.00000    
      7264 IM1H     364      IM1H     H2       HDA3A    0.135000       1.00800           0   0.00000       0.00000    
      7265 IM1H     364      IM1H     H3       HDA3A    0.135000       1.00800           0   0.00000       0.00000    
      7266 IM1H     364      IM1H     N1       ND2R5C    2.35720       13.6070           0 -0.803000       1.00000    
      7267 IM1H     364      IM1H     DN1      DRUD     -2.19920      0.400000           0   0.00000       0.00000    
      7268 IM1H     364      IM1H     C2       CD2R5D    2.44700       11.6110           0  -1.08300       1.10000    
      7269 IM1H     364      IM1H     DC2      DRUD     -2.55400      0.400000           0   0.00000       0.00000    
      7270 IM1H     364      IM1H     H4       HDR5D    0.195000       1.00800           0   0.00000       0.00000    
      7271 IM1H     364      IM1H     C3       CD2R5D    2.50700       11.6110           0  -1.08300       1.10000    
      7272 IM1H     364      IM1H     DC3      DRUD     -2.55400      0.400000           0   0.00000       0.00000    
      7273 IM1H     364      IM1H     H5       HDR5D    0.192000       1.00800           0   0.00000       0.00000    
      7274 IM1H     364      IM1H     C4       CD2R5E    2.72410       11.6110           0  -1.25300       1.20000    
      7275 IM1H     364      IM1H     DC4      DRUD     -2.74710      0.400000           0   0.00000       0.00000    
      7276 IM1H     364      IM1H     H6       HDR5E    0.203000       1.00800           0   0.00000       0.00000    
      7277 IM1H     364      IM1H     N2       ND2R5C    2.04220       13.6070           0 -0.803000       1.00000    
      7278 IM1H     364      IM1H     DN2      DRUD     -2.19920      0.400000           0   0.00000       0.00000    
      7279 IM1H     364      IM1H     H7       HDP1A    0.363000       1.00800           0   0.00000       0.00000    
      7280 IM1H     364      IM1H     LPN21    LPD       0.00000       0.00000          -1   0.00000       0.00000    
      7281 IM1H     365      IM1H     C1       CD33F     2.48500       11.6110           0  -1.18100       1.10000    
      7282 IM1H     365      IM1H     DC1      DRUD     -2.66700      0.400000           0   0.00000       0.00000    
      7283 IM1H     365      IM1H     H1       HDA3A    0.135000       1.00800           0   0.00000       0.00000    
      7284 IM1H     365      IM1H     H2       HDA3A    0.135000       1.00800           0   0.00000       0.00000    
      7285 IM1H     365      IM1H     H3       HDA3A    0.135000       1.00800           0   0.00000       0.00000    
      7286 IM1H     365      IM1H     N1       ND2R5C    2.35720       13.6070           0 -0.803000       1.00000    
      7287 IM1H     365      IM1H     DN1      DRUD     -2.19920      0.400000           0   0.00000       0.00000    
      7288 IM1H     365      IM1H     C2       CD2R5D    2.44700       11.6110           0  -1.08300       1.10000    
      7289 IM1H     365      IM1H     DC2      DRUD     -2.55400      0.400000           0   0.00000       0.00000    
      7290 IM1H     365      IM1H     H4       HDR5D    0.195000       1.00800           0   0.00000       0.00000    
      7291 IM1H     365      IM1H     C3       CD2R5D    2.50700       11.6110           0  -1.08300       1.10000    
      7292 IM1H     365      IM1H     DC3      DRUD     -2.55400      0.400000           0   0.00000       0.00000    
      7293 IM1H     365      IM1H     H5       HDR5D    0.192000       1.00800           0   0.00000       0.00000    
      7294 IM1H     365      IM1H     C4       CD2R5E    2.72410       11.6110           0  -1.25300       1.20000    
      7295 IM1H     365      IM1H     DC4      DRUD     -2.74710      0.400000           0   0.00000       0.00000    
      7296 IM1H     365      IM1H     H6       HDR5E    0.203000       1.00800           0   0.00000       0.00000    
      7297 IM1H     365      IM1H     N2       ND2R5C    2.04220       13.6070           0 -0.803000       1.00000    
      7298 IM1H     365      IM1H     DN2      DRUD     -2.19920      0.400000           0   0.00000       0.00000    
      7299 IM1H     365      IM1H     H7       HDP1A    0.363000       1.00800           0   0.00000       0.00000    
      7300 IM1H     365      IM1H     LPN21    LPD       0.00000       0.00000          -1   0.00000       0.00000    
      7301 IM1H     366      IM1H     C1       CD33F     2.48500       11.6110           0  -1.18100       1.10000    
      7302 IM1H     366      IM1H     DC1      DRUD     -2.66700      0.400000           0   0.00000       0.00000    
      7303 IM1H     366      IM1H     H1       HDA3A    0.135000       1.00800           0   0.00000       0.00000    
      7304 IM1H     366      IM1H     H2       HDA3A    0.135000       1.00800           0   0.00000       0.00000    
      7305 IM1H     366      IM1H     H3       HDA3A    0.135000       1.00800           0   0.00000       0.00000    
      7306 IM1H     366      IM1H     N1       ND2R5C    2.35720       13.6070           0 -0.803000       1.00000    
      7307 IM1H     366      IM1H     DN1      DRUD     -2.19920      0.400000           0   0.00000       0.00000    
      7308 IM1H     366      IM1H     C2       CD2R5D    2.44700       11.6110           0  -1.08300       1.10000    
      7309 IM1H     366      IM1H     DC2      DRUD     -2.55400      0.400000           0   0.00000       0.00000    
      7310 IM1H     366      IM1H     H4       HDR5D    0.195000       1.00800           0   0.00000       0.00000    
      7311 IM1H     366      IM1H     C3       CD2R5D    2.50700       11.6110           0  -1.08300       1.10000    
      7312 IM1H     366      IM1H     DC3      DRUD     -2.55400      0.400000           0   0.00000       0.00000    
      7313 IM1H     366      IM1H     H5       HDR5D    0.192000       1.00800           0   0.00000       0.00000    
      7314 IM1H     366      IM1H     C4       CD2R5E    2.72410       11.6110           0  -1.25300       1.20000    
      7315 IM1H     366      IM1H     DC4      DRUD     -2.74710      0.400000           0   0.00000       0.00000    
      7316 IM1H     366      IM1H     H6       HDR5E    0.203000       1.00800           0   0.00000       0.00000    
      7317 IM1H     366      IM1H     N2       ND2R5C    2.04220       13.6070           0 -0.803000       1.00000    
      7318 IM1H     366      IM1H     DN2      DRUD     -2.19920      0.400000           0   0.00000       0.00000    
      7319 IM1H     366      IM1H     H7       HDP1A    0.363000       1.00800           0   0.00000       0.00000    
      7320 IM1H     366      IM1H     LPN21    LPD       0.00000       0.00000          -1   0.00000       0.00000    
      7321 IM1H     367      IM1H     C1       CD33F     2.48500       11.6110           0  -1.18100       1.10000    
      7322 IM1H     367      IM1H     DC1      DRUD     -2.66700      0.400000           0   0.00000       0.00000    
      7323 IM1H     367      IM1H     H1       HDA3A    0.135000       1.00800           0   0.00000       0.00000    
      7324 IM1H     367      IM1H     H2       HDA3A    0.135000       1.00800           0   0.00000       0.00000    
      7325 IM1H     367      IM1H     H3       HDA3A    0.135000       1.00800           0   0.00000       0.00000    
      7326 IM1H     367      IM1H     N1       ND2R5C    2.35720       13.6070           0 -0.803000       1.00000    
      7327 IM1H     367      IM1H     DN1      DRUD     -2.19920      0.400000           0   0.00000       0.00000    
      7328 IM1H     367      IM1H     C2       CD2R5D    2.44700       11.6110           0  -1.08300       1.10000    
      7329 IM1H     367      IM1H     DC2      DRUD     -2.55400      0.400000           0   0.00000       0.00000    
      7330 IM1H     367      IM1H     H4       HDR5D    0.195000       1.00800           0   0.00000       0.00000    
      7331 IM1H     367      IM1H     C3       CD2R5D    2.50700       11.6110           0  -1.08300       1.10000    
      7332 IM1H     367      IM1H     DC3      DRUD     -2.55400      0.400000           0   0.00000       0.00000    
      7333 IM1H     367      IM1H     H5       HDR5D    0.192000       1.00800           0   0.00000       0.00000    
      7334 IM1H     367      IM1H     C4       CD2R5E    2.72410       11.6110           0  -1.25300       1.20000    
      7335 IM1H     367      IM1H     DC4      DRUD     -2.74710      0.400000           0   0.00000       0.00000    
      7336 IM1H     367      IM1H     H6       HDR5E    0.203000       1.00800           0   0.00000       0.00000    
      7337 IM1H     367      IM1H     N2       ND2R5C    2.04220       13.6070           0 -0.803000       1.00000    
      7338 IM1H     367      IM1H     DN2      DRUD     -2.19920      0.400000           0   0.00000       0.00000    
      7339 IM1H     367      IM1H     H7       HDP1A    0.363000       1.00800           0   0.00000       0.00000    
      7340 IM1H     367      IM1H     LPN21    LPD       0.00000       0.00000          -1   0.00000       0.00000    
      7341 IM1H     368      IM1H     C1       CD33F     2.48500       11.6110           0  -1.18100       1.10000    
      7342 IM1H     368      IM1H     DC1      DRUD     -2.66700      0.400000           0   0.00000       0.00000    
      7343 IM1H     368      IM1H     H1       HDA3A    0.135000       1.00800           0   0.00000       0.00000    
      7344 IM1H     368      IM1H     H2       HDA3A    0.135000       1.00800           0   0.00000       0.00000    
      7345 IM1H     368      IM1H     H3       HDA3A    0.135000       1.00800           0   0.00000       0.00000    
      7346 IM1H     368      IM1H     N1       ND2R5C    2.35720       13.6070           0 -0.803000       1.00000    
      7347 IM1H     368      IM1H     DN1      DRUD     -2.19920      0.400000           0   0.00000       0.00000    
      7348 IM1H     368      IM1H     C2       CD2R5D    2.44700       11.6110           0  -1.08300       1.10000    
      7349 IM1H     368      IM1H     DC2      DRUD     -2.55400      0.400000           0   0.00000       0.00000    
      7350 IM1H     368      IM1H     H4       HDR5D    0.195000       1.00800           0   0.00000       0.00000    
      7351 IM1H     368      IM1H     C3       CD2R5D    2.50700       11.6110           0  -1.08300       1.10000    
      7352 IM1H     368      IM1H     DC3      DRUD     -2.55400      0.400000           0   0.00000       0.00000    
      7353 IM1H     368      IM1H     H5       HDR5D    0.192000       1.00800           0   0.00000       0.00000    
      7354 IM1H     368      IM1H     C4       CD2R5E    2.72410       11.6110           0  -1.25300       1.20000    
      7355 IM1H     368      IM1H     DC4      DRUD     -2.74710      0.400000           0   0.00000       0.00000    
      7356 IM1H     368      IM1H     H6       HDR5E    0.203000       1.00800           0   0.00000       0.00000    
      7357 IM1H     368      IM1H     N2       ND2R5C    2.04220       13.6070           0 -0.803000       1.00000    
      7358 IM1H     368      IM1H     DN2      DRUD     -2.19920      0.400000           0   0.00000       0.00000    
      7359 IM1H     368      IM1H     H7       HDP1A    0.363000       1.00800           0   0.00000       0.00000    
      7360 IM1H     368      IM1H     LPN21    LPD       0.00000       0.00000          -1   0.00000       0.00000    
      7361 IM1H     369      IM1H     C1       CD33F     2.48500       11.6110           0  -1.18100       1.10000    
      7362 IM1H     369      IM1H     DC1      DRUD     -2.66700      0.400000           0   0.00000       0.00000    
      7363 IM1H     369      IM1H     H1       HDA3A    0.135000       1.00800           0   0.00000       0.00000    
      7364 IM1H     369      IM1H     H2       HDA3A    0.135000       1.00800           0   0.00000       0.00000    
      7365 IM1H     369      IM1H     H3       HDA3A    0.135000       1.00800           0   0.00000       0.00000    
      7366 IM1H     369      IM1H     N1       ND2R5C    2.35720       13.6070           0 -0.803000       1.00000    
      7367 IM1H     369      IM1H     DN1      DRUD     -2.19920      0.400000           0   0.00000       0.00000    
      7368 IM1H     369      IM1H     C2       CD2R5D    2.44700       11.6110           0  -1.08300       1.10000    
      7369 IM1H     369      IM1H     DC2      DRUD     -2.55400      0.400000           0   0.00000       0.00000    
      7370 IM1H     369      IM1H     H4       HDR5D    0.195000       1.00800           0   0.00000       0.00000    
      7371 IM1H     369      IM1H     C3       CD2R5D    2.50700       11.6110           0  -1.08300       1.10000    
      7372 IM1H     369      IM1H     DC3      DRUD     -2.55400      0.400000           0   0.00000       0.00000    
      7373 IM1H     369      IM1H     H5       HDR5D    0.192000       1.00800           0   0.00000       0.00000    
      7374 IM1H     369      IM1H     C4       CD2R5E    2.72410       11.6110           0  -1.25300       1.20000    
      7375 IM1H     369      IM1H     DC4      DRUD     -2.74710      0.400000           0   0.00000       0.00000    
      7376 IM1H     369      IM1H     H6       HDR5E    0.203000       1.00800           0   0.00000       0.00000    
      7377 IM1H     369      IM1H     N2       ND2R5C    2.04220       13.6070           0 -0.803000       1.00000    
      7378 IM1H     369      IM1H     DN2      DRUD     -2.19920      0.400000           0   0.00000       0.00000    
      7379 IM1H     369      IM1H     H7       HDP1A    0.363000       1.00800           0   0.00000       0.00000    
      7380 IM1H     369      IM1H     LPN21    LPD       0.00000       0.00000          -1   0.00000       0.00000    
      7381 IM1H     370      IM1H     C1       CD33F     2.48500       11.6110           0  -1.18100       1.10000    
      7382 IM1H     370      IM1H     DC1      DRUD     -2.66700      0.400000           0   0.00000       0.00000    
      7383 IM1H     370      IM1H     H1       HDA3A    0.135000       1.00800           0   0.00000       0.00000    
      7384 IM1H     370      IM1H     H2       HDA3A    0.135000       1.00800           0   0.00000       0.00000    
      7385 IM1H     370      IM1H     H3       HDA3A    0.135000       1.00800           0   0.00000       0.00000    
      7386 IM1H     370      IM1H     N1       ND2R5C    2.35720       13.6070           0 -0.803000       1.00000    
      7387 IM1H     370      IM1H     DN1      DRUD     -2.19920      0.400000           0   0.00000       0.00000    
      7388 IM1H     370      IM1H     C2       CD2R5D    2.44700       11.6110           0  -1.08300       1.10000    
      7389 IM1H     370      IM1H     DC2      DRUD     -2.55400      0.400000           0   0.00000       0.00000    
      7390 IM1H     370      IM1H     H4       HDR5D    0.195000       1.00800           0   0.00000       0.00000    
      7391 IM1H     370      IM1H     C3       CD2R5D    2.50700       11.6110           0  -1.08300       1.10000    
      7392 IM1H     370      IM1H     DC3      DRUD     -2.55400      0.400000           0   0.00000       0.00000    
      7393 IM1H     370      IM1H     H5       HDR5D    0.192000       1.00800           0   0.00000       0.00000    
      7394 IM1H     370      IM1H     C4       CD2R5E    2.72410       11.6110           0  -1.25300       1.20000    
      7395 IM1H     370      IM1H     DC4      DRUD     -2.74710      0.400000           0   0.00000       0.00000    
      7396 IM1H     370      IM1H     H6       HDR5E    0.203000       1.00800           0   0.00000       0.00000    
      7397 IM1H     370      IM1H     N2       ND2R5C    2.04220       13.6070           0 -0.803000       1.00000    
      7398 IM1H     370      IM1H     DN2      DRUD     -2.19920      0.400000           0   0.00000       0.00000    
      7399 IM1H     370      IM1H     H7       HDP1A    0.363000       1.00800           0   0.00000       0.00000    
      7400 IM1H     370      IM1H     LPN21    LPD       0.00000       0.00000          -1   0.00000       0.00000    
      7401 IM1H     371      IM1H     C1       CD33F     2.48500       11.6110           0  -1.18100       1.10000    
      7402 IM1H     371      IM1H     DC1      DRUD     -2.66700      0.400000           0   0.00000       0.00000    
      7403 IM1H     371      IM1H     H1       HDA3A    0.135000       1.00800           0   0.00000       0.00000    
      7404 IM1H     371      IM1H     H2       HDA3A    0.135000       1.00800           0   0.00000       0.00000    
      7405 IM1H     371      IM1H     H3       HDA3A    0.135000       1.00800           0   0.00000       0.00000    
      7406 IM1H     371      IM1H     N1       ND2R5C    2.35720       13.6070           0 -0.803000       1.00000    
      7407 IM1H     371      IM1H     DN1      DRUD     -2.19920      0.400000           0   0.00000       0.00000    
      7408 IM1H     371      IM1H     C2       CD2R5D    2.44700       11.6110           0  -1.08300       1.10000    
      7409 IM1H     371      IM1H     DC2      DRUD     -2.55400      0.400000           0   0.00000       0.00000    
      7410 IM1H     371      IM1H     H4       HDR5D    0.195000       1.00800           0   0.00000       0.00000    
      7411 IM1H     371      IM1H     C3       CD2R5D    2.50700       11.6110           0  -1.08300       1.10000    
      7412 IM1H     371      IM1H     DC3      DRUD     -2.55400      0.400000           0   0.00000       0.00000    
      7413 IM1H     371      IM1H     H5       HDR5D    0.192000       1.00800           0   0.00000       0.00000    
      7414 IM1H     371      IM1H     C4       CD2R5E    2.72410       11.6110           0  -1.25300       1.20000    
      7415 IM1H     371      IM1H     DC4      DRUD     -2.74710      0.400000           0   0.00000       0.00000    
      7416 IM1H     371      IM1H     H6       HDR5E    0.203000       1.00800           0   0.00000       0.00000    
      7417 IM1H     371      IM1H     N2       ND2R5C    2.04220       13.6070           0 -0.803000       1.00000    
      7418 IM1H     371      IM1H     DN2      DRUD     -2.19920      0.400000           0   0.00000       0.00000    
      7419 IM1H     371      IM1H     H7       HDP1A    0.363000       1.00800           0   0.00000       0.00000    
      7420 IM1H     371      IM1H     LPN21    LPD       0.00000       0.00000          -1   0.00000       0.00000    
      7421 IM1H     372      IM1H     C1       CD33F     2.48500       11.6110           0  -1.18100       1.10000    
      7422 IM1H     372      IM1H     DC1      DRUD     -2.66700      0.400000           0   0.00000       0.00000    
      7423 IM1H     372      IM1H     H1       HDA3A    0.135000       1.00800           0   0.00000       0.00000    
      7424 IM1H     372      IM1H     H2       HDA3A    0.135000       1.00800           0   0.00000       0.00000    
      7425 IM1H     372      IM1H     H3       HDA3A    0.135000       1.00800           0   0.00000       0.00000    
      7426 IM1H     372      IM1H     N1       ND2R5C    2.35720       13.6070           0 -0.803000       1.00000    
      7427 IM1H     372      IM1H     DN1      DRUD     -2.19920      0.400000           0   0.00000       0.00000    
      7428 IM1H     372      IM1H     C2       CD2R5D    2.44700       11.6110           0  -1.08300       1.10000    
      7429 IM1H     372      IM1H     DC2      DRUD     -2.55400      0.400000           0   0.00000       0.00000    
      7430 IM1H     372      IM1H     H4       HDR5D    0.195000       1.00800           0   0.00000       0.00000    
      7431 IM1H     372      IM1H     C3       CD2R5D    2.50700       11.6110           0  -1.08300       1.10000    
      7432 IM1H     372      IM1H     DC3      DRUD     -2.55400      0.400000           0   0.00000       0.00000    
      7433 IM1H     372      IM1H     H5       HDR5D    0.192000       1.00800           0   0.00000       0.00000    
      7434 IM1H     372      IM1H     C4       CD2R5E    2.72410       11.6110           0  -1.25300       1.20000    
      7435 IM1H     372      IM1H     DC4      DRUD     -2.74710      0.400000           0   0.00000       0.00000    
      7436 IM1H     372      IM1H     H6       HDR5E    0.203000       1.00800           0   0.00000       0.00000    
      7437 IM1H     372      IM1H     N2       ND2R5C    2.04220       13.6070           0 -0.803000       1.00000    
      7438 IM1H     372      IM1H     DN2      DRUD     -2.19920      0.400000           0   0.00000       0.00000    
      7439 IM1H     372      IM1H     H7       HDP1A    0.363000       1.00800           0   0.00000       0.00000    
      7440 IM1H     372      IM1H     LPN21    LPD       0.00000       0.00000          -1   0.00000       0.00000    
      7441 IM1H     373      IM1H     C1       CD33F     2.48500       11.6110           0  -1.18100       1.10000    
      7442 IM1H     373      IM1H     DC1      DRUD     -2.66700      0.400000           0   0.00000       0.00000    
      7443 IM1H     373      IM1H     H1       HDA3A    0.135000       1.00800           0   0.00000       0.00000    
      7444 IM1H     373      IM1H     H2       HDA3A    0.135000       1.00800           0   0.00000       0.00000    
      7445 IM1H     373      IM1H     H3       HDA3A    0.135000       1.00800           0   0.00000       0.00000    
      7446 IM1H     373      IM1H     N1       ND2R5C    2.35720       13.6070           0 -0.803000       1.00000    
      7447 IM1H     373      IM1H     DN1      DRUD     -2.19920      0.400000           0   0.00000       0.00000    
      7448 IM1H     373      IM1H     C2       CD2R5D    2.44700       11.6110           0  -1.08300       1.10000    
      7449 IM1H     373      IM1H     DC2      DRUD     -2.55400      0.400000           0   0.00000       0.00000    
      7450 IM1H     373      IM1H     H4       HDR5D    0.195000       1.00800           0   0.00000       0.00000    
      7451 IM1H     373      IM1H     C3       CD2R5D    2.50700       11.6110           0  -1.08300       1.10000    
      7452 IM1H     373      IM1H     DC3      DRUD     -2.55400      0.400000           0   0.00000       0.00000    
      7453 IM1H     373      IM1H     H5       HDR5D    0.192000       1.00800           0   0.00000       0.00000    
      7454 IM1H     373      IM1H     C4       CD2R5E    2.72410       11.6110           0  -1.25300       1.20000    
      7455 IM1H     373      IM1H     DC4      DRUD     -2.74710      0.400000           0   0.00000       0.00000    
      7456 IM1H     373      IM1H     H6       HDR5E    0.203000       1.00800           0   0.00000       0.00000    
      7457 IM1H     373      IM1H     N2       ND2R5C    2.04220       13.6070           0 -0.803000       1.00000    
      7458 IM1H     373      IM1H     DN2      DRUD     -2.19920      0.400000           0   0.00000       0.00000    
      7459 IM1H     373      IM1H     H7       HDP1A    0.363000       1.00800           0   0.00000       0.00000    
      7460 IM1H     373      IM1H     LPN21    LPD       0.00000       0.00000          -1   0.00000       0.00000    
      7461 IM1H     374      IM1H     C1       CD33F     2.48500       11.6110           0  -1.18100       1.10000    
      7462 IM1H     374      IM1H     DC1      DRUD     -2.66700      0.400000           0   0.00000       0.00000    
      7463 IM1H     374      IM1H     H1       HDA3A    0.135000       1.00800           0   0.00000       0.00000    
      7464 IM1H     374      IM1H     H2       HDA3A    0.135000       1.00800           0   0.00000       0.00000    
      7465 IM1H     374      IM1H     H3       HDA3A    0.135000       1.00800           0   0.00000       0.00000    
      7466 IM1H     374      IM1H     N1       ND2R5C    2.35720       13.6070           0 -0.803000       1.00000    
      7467 IM1H     374      IM1H     DN1      DRUD     -2.19920      0.400000           0   0.00000       0.00000    
      7468 IM1H     374      IM1H     C2       CD2R5D    2.44700       11.6110           0  -1.08300       1.10000    
      7469 IM1H     374      IM1H     DC2      DRUD     -2.55400      0.400000           0   0.00000       0.00000    
      7470 IM1H     374      IM1H     H4       HDR5D    0.195000       1.00800           0   0.00000       0.00000    
      7471 IM1H     374      IM1H     C3       CD2R5D    2.50700       11.6110           0  -1.08300       1.10000    
      7472 IM1H     374      IM1H     DC3      DRUD     -2.55400      0.400000           0   0.00000       0.00000    
      7473 IM1H     374      IM1H     H5       HDR5D    0.192000       1.00800           0   0.00000       0.00000    
      7474 IM1H     374      IM1H     C4       CD2R5E    2.72410       11.6110           0  -1.25300       1.20000    
      7475 IM1H     374      IM1H     DC4      DRUD     -2.74710      0.400000           0   0.00000       0.00000    
      7476 IM1H     374      IM1H     H6       HDR5E    0.203000       1.00800           0   0.00000       0.00000    
      7477 IM1H     374      IM1H     N2       ND2R5C    2.04220       13.6070           0 -0.803000       1.00000    
      7478 IM1H     374      IM1H     DN2      DRUD     -2.19920      0.400000           0   0.00000       0.00000    
      7479 IM1H     374      IM1H     H7       HDP1A    0.363000       1.00800           0   0.00000       0.00000    
      7480 IM1H     374      IM1H     LPN21    LPD       0.00000       0.00000          -1   0.00000       0.00000    
      7481 IM1H     375      IM1H     C1       CD33F     2.48500       11.6110           0  -1.18100       1.10000    
      7482 IM1H     375      IM1H     DC1      DRUD     -2.66700      0.400000           0   0.00000       0.00000    
      7483 IM1H     375      IM1H     H1       HDA3A    0.135000       1.00800           0   0.00000       0.00000    
      7484 IM1H     375      IM1H     H2       HDA3A    0.135000       1.00800           0   0.00000       0.00000    
      7485 IM1H     375      IM1H     H3       HDA3A    0.135000       1.00800           0   0.00000       0.00000    
      7486 IM1H     375      IM1H     N1       ND2R5C    2.35720       13.6070           0 -0.803000       1.00000    
      7487 IM1H     375      IM1H     DN1      DRUD     -2.19920      0.400000           0   0.00000       0.00000    
      7488 IM1H     375      IM1H     C2       CD2R5D    2.44700       11.6110           0  -1.08300       1.10000    
      7489 IM1H     375      IM1H     DC2      DRUD     -2.55400      0.400000           0   0.00000       0.00000    
      7490 IM1H     375      IM1H     H4       HDR5D    0.195000       1.00800           0   0.00000       0.00000    
      7491 IM1H     375      IM1H     C3       CD2R5D    2.50700       11.6110           0  -1.08300       1.10000    
      7492 IM1H     375      IM1H     DC3      DRUD     -2.55400      0.400000           0   0.00000       0.00000    
      7493 IM1H     375      IM1H     H5       HDR5D    0.192000       1.00800           0   0.00000       0.00000    
      7494 IM1H     375      IM1H     C4       CD2R5E    2.72410       11.6110           0  -1.25300       1.20000    
      7495 IM1H     375      IM1H     DC4      DRUD     -2.74710      0.400000           0   0.00000       0.00000    
      7496 IM1H     375      IM1H     H6       HDR5E    0.203000       1.00800           0   0.00000       0.00000    
      7497 IM1H     375      IM1H     N2       ND2R5C    2.04220       13.6070           0 -0.803000       1.00000    
      7498 IM1H     375      IM1H     DN2      DRUD     -2.19920      0.400000           0   0.00000       0.00000    
      7499 IM1H     375      IM1H     H7       HDP1A    0.363000       1.00800           0   0.00000       0.00000    
      7500 IM1H     375      IM1H     LPN21    LPD       0.00000       0.00000          -1   0.00000       0.00000    
      7501 IM1H     376      IM1H     C1       CD33F     2.48500       11.6110           0  -1.18100       1.10000    
      7502 IM1H     376      IM1H     DC1      DRUD     -2.66700      0.400000           0   0.00000       0.00000    
      7503 IM1H     376      IM1H     H1       HDA3A    0.135000       1.00800           0   0.00000       0.00000    
      7504 IM1H     376      IM1H     H2       HDA3A    0.135000       1.00800           0   0.00000       0.00000    
      7505 IM1H     376      IM1H     H3       HDA3A    0.135000       1.00800           0   0.00000       0.00000    
      7506 IM1H     376      IM1H     N1       ND2R5C    2.35720       13.6070           0 -0.803000       1.00000    
      7507 IM1H     376      IM1H     DN1      DRUD     -2.19920      0.400000           0   0.00000       0.00000    
      7508 IM1H     376      IM1H     C2       CD2R5D    2.44700       11.6110           0  -1.08300       1.10000    
      7509 IM1H     376      IM1H     DC2      DRUD     -2.55400      0.400000           0   0.00000       0.00000    
      7510 IM1H     376      IM1H     H4       HDR5D    0.195000       1.00800           0   0.00000       0.00000    
      7511 IM1H     376      IM1H     C3       CD2R5D    2.50700       11.6110           0  -1.08300       1.10000    
      7512 IM1H     376      IM1H     DC3      DRUD     -2.55400      0.400000           0   0.00000       0.00000    
      7513 IM1H     376      IM1H     H5       HDR5D    0.192000       1.00800           0   0.00000       0.00000    
      7514 IM1H     376      IM1H     C4       CD2R5E    2.72410       11.6110           0  -1.25300       1.20000    
      7515 IM1H     376      IM1H     DC4      DRUD     -2.74710      0.400000           0   0.00000       0.00000    
      7516 IM1H     376      IM1H     H6       HDR5E    0.203000       1.00800           0   0.00000       0.00000    
      7517 IM1H     376      IM1H     N2       ND2R5C    2.04220       13.6070           0 -0.803000       1.00000    
      7518 IM1H     376      IM1H     DN2      DRUD     -2.19920      0.400000           0   0.00000       0.00000    
      7519 IM1H     376      IM1H     H7       HDP1A    0.363000       1.00800           0   0.00000       0.00000    
      7520 IM1H     376      IM1H     LPN21    LPD       0.00000       0.00000          -1   0.00000       0.00000    
      7521 IM1H     377      IM1H     C1       CD33F     2.48500       11.6110           0  -1.18100       1.10000    
      7522 IM1H     377      IM1H     DC1      DRUD     -2.66700      0.400000           0   0.00000       0.00000    
      7523 IM1H     377      IM1H     H1       HDA3A    0.135000       1.00800           0   0.00000       0.00000    
      7524 IM1H     377      IM1H     H2       HDA3A    0.135000       1.00800           0   0.00000       0.00000    
      7525 IM1H     377      IM1H     H3       HDA3A    0.135000       1.00800           0   0.00000       0.00000    
      7526 IM1H     377      IM1H     N1       ND2R5C    2.35720       13.6070           0 -0.803000       1.00000    
      7527 IM1H     377      IM1H     DN1      DRUD     -2.19920      0.400000           0   0.00000       0.00000    
      7528 IM1H     377      IM1H     C2       CD2R5D    2.44700       11.6110           0  -1.08300       1.10000    
      7529 IM1H     377      IM1H     DC2      DRUD     -2.55400      0.400000           0   0.00000       0.00000    
      7530 IM1H     377      IM1H     H4       HDR5D    0.195000       1.00800           0   0.00000       0.00000    
      7531 IM1H     377      IM1H     C3       CD2R5D    2.50700       11.6110           0  -1.08300       1.10000    
      7532 IM1H     377      IM1H     DC3      DRUD     -2.55400      0.400000           0   0.00000       0.00000    
      7533 IM1H     377      IM1H     H5       HDR5D    0.192000       1.00800           0   0.00000       0.00000    
      7534 IM1H     377      IM1H     C4       CD2R5E    2.72410       11.6110           0  -1.25300       1.20000    
      7535 IM1H     377      IM1H     DC4      DRUD     -2.74710      0.400000           0   0.00000       0.00000    
      7536 IM1H     377      IM1H     H6       HDR5E    0.203000       1.00800           0   0.00000       0.00000    
      7537 IM1H     377      IM1H     N2       ND2R5C    2.04220       13.6070           0 -0.803000       1.00000    
      7538 IM1H     377      IM1H     DN2      DRUD     -2.19920      0.400000           0   0.00000       0.00000    
      7539 IM1H     377      IM1H     H7       HDP1A    0.363000       1.00800           0   0.00000       0.00000    
      7540 IM1H     377      IM1H     LPN21    LPD       0.00000       0.00000          -1   0.00000       0.00000    
      7541 IM1H     378      IM1H     C1       CD33F     2.48500       11.6110           0  -1.18100       1.10000    
      7542 IM1H     378      IM1H     DC1      DRUD     -2.66700      0.400000           0   0.00000       0.00000    
      7543 IM1H     378      IM1H     H1       HDA3A    0.135000       1.00800           0   0.00000       0.00000    
      7544 IM1H     378      IM1H     H2       HDA3A    0.135000       1.00800           0   0.00000       0.00000    
      7545 IM1H     378      IM1H     H3       HDA3A    0.135000       1.00800           0   0.00000       0.00000    
      7546 IM1H     378      IM1H     N1       ND2R5C    2.35720       13.6070           0 -0.803000       1.00000    
      7547 IM1H     378      IM1H     DN1      DRUD     -2.19920      0.400000           0   0.00000       0.00000    
      7548 IM1H     378      IM1H     C2       CD2R5D    2.44700       11.6110           0  -1.08300       1.10000    
      7549 IM1H     378      IM1H     DC2      DRUD     -2.55400      0.400000           0   0.00000       0.00000    
      7550 IM1H     378      IM1H     H4       HDR5D    0.195000       1.00800           0   0.00000       0.00000    
      7551 IM1H     378      IM1H     C3       CD2R5D    2.50700       11.6110           0  -1.08300       1.10000    
      7552 IM1H     378      IM1H     DC3      DRUD     -2.55400      0.400000           0   0.00000       0.00000    
      7553 IM1H     378      IM1H     H5       HDR5D    0.192000       1.00800           0   0.00000       0.00000    
      7554 IM1H     378      IM1H     C4       CD2R5E    2.72410       11.6110           0  -1.25300       1.20000    
      7555 IM1H     378      IM1H     DC4      DRUD     -2.74710      0.400000           0   0.00000       0.00000    
      7556 IM1H     378      IM1H     H6       HDR5E    0.203000       1.00800           0   0.00000       0.00000    
      7557 IM1H     378      IM1H     N2       ND2R5C    2.04220       13.6070           0 -0.803000       1.00000    
      7558 IM1H     378      IM1H     DN2      DRUD     -2.19920      0.400000           0   0.00000       0.00000    
      7559 IM1H     378      IM1H     H7       HDP1A    0.363000       1.00800           0   0.00000       0.00000    
      7560 IM1H     378      IM1H     LPN21    LPD       0.00000       0.00000          -1   0.00000       0.00000    
      7561 IM1H     379      IM1H     C1       CD33F     2.48500       11.6110           0  -1.18100       1.10000    
      7562 IM1H     379      IM1H     DC1      DRUD     -2.66700      0.400000           0   0.00000       0.00000    
      7563 IM1H     379      IM1H     H1       HDA3A    0.135000       1.00800           0   0.00000       0.00000    
      7564 IM1H     379      IM1H     H2       HDA3A    0.135000       1.00800           0   0.00000       0.00000    
      7565 IM1H     379      IM1H     H3       HDA3A    0.135000       1.00800           0   0.00000       0.00000    
      7566 IM1H     379      IM1H     N1       ND2R5C    2.35720       13.6070           0 -0.803000       1.00000    
      7567 IM1H     379      IM1H     DN1      DRUD     -2.19920      0.400000           0   0.00000       0.00000    
      7568 IM1H     379      IM1H     C2       CD2R5D    2.44700       11.6110           0  -1.08300       1.10000    
      7569 IM1H     379      IM1H     DC2      DRUD     -2.55400      0.400000           0   0.00000       0.00000    
      7570 IM1H     379      IM1H     H4       HDR5D    0.195000       1.00800           0   0.00000       0.00000    
      7571 IM1H     379      IM1H     C3       CD2R5D    2.50700       11.6110           0  -1.08300       1.10000    
      7572 IM1H     379      IM1H     DC3      DRUD     -2.55400      0.400000           0   0.00000       0.00000    
      7573 IM1H     379      IM1H     H5       HDR5D    0.192000       1.00800           0   0.00000       0.00000    
      7574 IM1H     379      IM1H     C4       CD2R5E    2.72410       11.6110           0  -1.25300       1.20000    
      7575 IM1H     379      IM1H     DC4      DRUD     -2.74710      0.400000           0   0.00000       0.00000    
      7576 IM1H     379      IM1H     H6       HDR5E    0.203000       1.00800           0   0.00000       0.00000    
      7577 IM1H     379      IM1H     N2       ND2R5C    2.04220       13.6070           0 -0.803000       1.00000    
      7578 IM1H     379      IM1H     DN2      DRUD     -2.19920      0.400000           0   0.00000       0.00000    
      7579 IM1H     379      IM1H     H7       HDP1A    0.363000       1.00800           0   0.00000       0.00000    
      7580 IM1H     379      IM1H     LPN21    LPD       0.00000       0.00000          -1   0.00000       0.00000    
      7581 IM1H     380      IM1H     C1       CD33F     2.48500       11.6110           0  -1.18100       1.10000    
      7582 IM1H     380      IM1H     DC1      DRUD     -2.66700      0.400000           0   0.00000       0.00000    
      7583 IM1H     380      IM1H     H1       HDA3A    0.135000       1.00800           0   0.00000       0.00000    
      7584 IM1H     380      IM1H     H2       HDA3A    0.135000       1.00800           0   0.00000       0.00000    
      7585 IM1H     380      IM1H     H3       HDA3A    0.135000       1.00800           0   0.00000       0.00000    
      7586 IM1H     380      IM1H     N1       ND2R5C    2.35720       13.6070           0 -0.803000       1.00000    
      7587 IM1H     380      IM1H     DN1      DRUD     -2.19920      0.400000           0   0.00000       0.00000    
      7588 IM1H     380      IM1H     C2       CD2R5D    2.44700       11.6110           0  -1.08300       1.10000    
      7589 IM1H     380      IM1H     DC2      DRUD     -2.55400      0.400000           0   0.00000       0.00000    
      7590 IM1H     380      IM1H     H4       HDR5D    0.195000       1.00800           0   0.00000       0.00000    
      7591 IM1H     380      IM1H     C3       CD2R5D    2.50700       11.6110           0  -1.08300       1.10000    
      7592 IM1H     380      IM1H     DC3      DRUD     -2.55400      0.400000           0   0.00000       0.00000    
      7593 IM1H     380      IM1H     H5       HDR5D    0.192000       1.00800           0   0.00000       0.00000    
      7594 IM1H     380      IM1H     C4       CD2R5E    2.72410       11.6110           0  -1.25300       1.20000    
      7595 IM1H     380      IM1H     DC4      DRUD     -2.74710      0.400000           0   0.00000       0.00000    
      7596 IM1H     380      IM1H     H6       HDR5E    0.203000       1.00800           0   0.00000       0.00000    
      7597 IM1H     380      IM1H     N2       ND2R5C    2.04220       13.6070           0 -0.803000       1.00000    
      7598 IM1H     380      IM1H     DN2      DRUD     -2.19920      0.400000           0   0.00000       0.00000    
      7599 IM1H     380      IM1H     H7       HDP1A    0.363000       1.00800           0   0.00000       0.00000    
      7600 IM1H     380      IM1H     LPN21    LPD       0.00000       0.00000          -1   0.00000       0.00000    
      7601 IM1H     381      IM1H     C1       CD33F     2.48500       11.6110           0  -1.18100       1.10000    
      7602 IM1H     381      IM1H     DC1      DRUD     -2.66700      0.400000           0   0.00000       0.00000    
      7603 IM1H     381      IM1H     H1       HDA3A    0.135000       1.00800           0   0.00000       0.00000    
      7604 IM1H     381      IM1H     H2       HDA3A    0.135000       1.00800           0   0.00000       0.00000    
      7605 IM1H     381      IM1H     H3       HDA3A    0.135000       1.00800           0   0.00000       0.00000    
      7606 IM1H     381      IM1H     N1       ND2R5C    2.35720       13.6070           0 -0.803000       1.00000    
      7607 IM1H     381      IM1H     DN1      DRUD     -2.19920      0.400000           0   0.00000       0.00000    
      7608 IM1H     381      IM1H     C2       CD2R5D    2.44700       11.6110           0  -1.08300       1.10000    
      7609 IM1H     381      IM1H     DC2      DRUD     -2.55400      0.400000           0   0.00000       0.00000    
      7610 IM1H     381      IM1H     H4       HDR5D    0.195000       1.00800           0   0.00000       0.00000    
      7611 IM1H     381      IM1H     C3       CD2R5D    2.50700       11.6110           0  -1.08300       1.10000    
      7612 IM1H     381      IM1H     DC3      DRUD     -2.55400      0.400000           0   0.00000       0.00000    
      7613 IM1H     381      IM1H     H5       HDR5D    0.192000       1.00800           0   0.00000       0.00000    
      7614 IM1H     381      IM1H     C4       CD2R5E    2.72410       11.6110           0  -1.25300       1.20000    
      7615 IM1H     381      IM1H     DC4      DRUD     -2.74710      0.400000           0   0.00000       0.00000    
      7616 IM1H     381      IM1H     H6       HDR5E    0.203000       1.00800           0   0.00000       0.00000    
      7617 IM1H     381      IM1H     N2       ND2R5C    2.04220       13.6070           0 -0.803000       1.00000    
      7618 IM1H     381      IM1H     DN2      DRUD     -2.19920      0.400000           0   0.00000       0.00000    
      7619 IM1H     381      IM1H     H7       HDP1A    0.363000       1.00800           0   0.00000       0.00000    
      7620 IM1H     381      IM1H     LPN21    LPD       0.00000       0.00000          -1   0.00000       0.00000    
      7621 IM1H     382      IM1H     C1       CD33F     2.48500       11.6110           0  -1.18100       1.10000    
      7622 IM1H     382      IM1H     DC1      DRUD     -2.66700      0.400000           0   0.00000       0.00000    
      7623 IM1H     382      IM1H     H1       HDA3A    0.135000       1.00800           0   0.00000       0.00000    
      7624 IM1H     382      IM1H     H2       HDA3A    0.135000       1.00800           0   0.00000       0.00000    
      7625 IM1H     382      IM1H     H3       HDA3A    0.135000       1.00800           0   0.00000       0.00000    
      7626 IM1H     382      IM1H     N1       ND2R5C    2.35720       13.6070           0 -0.803000       1.00000    
      7627 IM1H     382      IM1H     DN1      DRUD     -2.19920      0.400000           0   0.00000       0.00000    
      7628 IM1H     382      IM1H     C2       CD2R5D    2.44700       11.6110           0  -1.08300       1.10000    
      7629 IM1H     382      IM1H     DC2      DRUD     -2.55400      0.400000           0   0.00000       0.00000    
      7630 IM1H     382      IM1H     H4       HDR5D    0.195000       1.00800           0   0.00000       0.00000    
      7631 IM1H     382      IM1H     C3       CD2R5D    2.50700       11.6110           0  -1.08300       1.10000    
      7632 IM1H     382      IM1H     DC3      DRUD     -2.55400      0.400000           0   0.00000       0.00000    
      7633 IM1H     382      IM1H     H5       HDR5D    0.192000       1.00800           0   0.00000       0.00000    
      7634 IM1H     382      IM1H     C4       CD2R5E    2.72410       11.6110           0  -1.25300       1.20000    
      7635 IM1H     382      IM1H     DC4      DRUD     -2.74710      0.400000           0   0.00000       0.00000    
      7636 IM1H     382      IM1H     H6       HDR5E    0.203000       1.00800           0   0.00000       0.00000    
      7637 IM1H     382      IM1H     N2       ND2R5C    2.04220       13.6070           0 -0.803000       1.00000    
      7638 IM1H     382      IM1H     DN2      DRUD     -2.19920      0.400000           0   0.00000       0.00000    
      7639 IM1H     382      IM1H     H7       HDP1A    0.363000       1.00800           0   0.00000       0.00000    
      7640 IM1H     382      IM1H     LPN21    LPD       0.00000       0.00000          -1   0.00000       0.00000    
      7641 IM1H     383      IM1H     C1       CD33F     2.48500       11.6110           0  -1.18100       1.10000    
      7642 IM1H     383      IM1H     DC1      DRUD     -2.66700      0.400000           0   0.00000       0.00000    
      7643 IM1H     383      IM1H     H1       HDA3A    0.135000       1.00800           0   0.00000       0.00000    
      7644 IM1H     383      IM1H     H2       HDA3A    0.135000       1.00800           0   0.00000       0.00000    
      7645 IM1H     383      IM1H     H3       HDA3A    0.135000       1.00800           0   0.00000       0.00000    
      7646 IM1H     383      IM1H     N1       ND2R5C    2.35720       13.6070           0 -0.803000       1.00000    
      7647 IM1H     383      IM1H     DN1      DRUD     -2.19920      0.400000           0   0.00000       0.00000    
      7648 IM1H     383      IM1H     C2       CD2R5D    2.44700       11.6110           0  -1.08300       1.10000    
      7649 IM1H     383      IM1H     DC2      DRUD     -2.55400      0.400000           0   0.00000       0.00000    
      7650 IM1H     383      IM1H     H4       HDR5D    0.195000       1.00800           0   0.00000       0.00000    
      7651 IM1H     383      IM1H     C3       CD2R5D    2.50700       11.6110           0  -1.08300       1.10000    
      7652 IM1H     383      IM1H     DC3      DRUD     -2.55400      0.400000           0   0.00000       0.00000    
      7653 IM1H     383      IM1H     H5       HDR5D    0.192000       1.00800           0   0.00000       0.00000    
      7654 IM1H     383      IM1H     C4       CD2R5E    2.72410       11.6110           0  -1.25300       1.20000    
      7655 IM1H     383      IM1H     DC4      DRUD     -2.74710      0.400000           0   0.00000       0.00000    
      7656 IM1H     383      IM1H     H6       HDR5E    0.203000       1.00800           0   0.00000       0.00000    
      7657 IM1H     383      IM1H     N2       ND2R5C    2.04220       13.6070           0 -0.803000       1.00000    
      7658 IM1H     383      IM1H     DN2      DRUD     -2.19920      0.400000           0   0.00000       0.00000    
      7659 IM1H     383      IM1H     H7       HDP1A    0.363000       1.00800           0   0.00000       0.00000    
      7660 IM1H     383      IM1H     LPN21    LPD       0.00000       0.00000          -1   0.00000       0.00000    
      7661 IM1H     384      IM1H     C1       CD33F     2.48500       11.6110           0  -1.18100       1.10000    
      7662 IM1H     384      IM1H     DC1      DRUD     -2.66700      0.400000           0   0.00000       0.00000    
      7663 IM1H     384      IM1H     H1       HDA3A    0.135000       1.00800           0   0.00000       0.00000    
      7664 IM1H     384      IM1H     H2       HDA3A    0.135000       1.00800           0   0.00000       0.00000    
      7665 IM1H     384      IM1H     H3       HDA3A    0.135000       1.00800           0   0.00000       0.00000    
      7666 IM1H     384      IM1H     N1       ND2R5C    2.35720       13.6070           0 -0.803000       1.00000    
      7667 IM1H     384      IM1H     DN1      DRUD     -2.19920      0.400000           0   0.00000       0.00000    
      7668 IM1H     384      IM1H     C2       CD2R5D    2.44700       11.6110           0  -1.08300       1.10000    
      7669 IM1H     384      IM1H     DC2      DRUD     -2.55400      0.400000           0   0.00000       0.00000    
      7670 IM1H     384      IM1H     H4       HDR5D    0.195000       1.00800           0   0.00000       0.00000    
      7671 IM1H     384      IM1H     C3       CD2R5D    2.50700       11.6110           0  -1.08300       1.10000    
      7672 IM1H     384      IM1H     DC3      DRUD     -2.55400      0.400000           0   0.00000       0.00000    
      7673 IM1H     384      IM1H     H5       HDR5D    0.192000       1.00800           0   0.00000       0.00000    
      7674 IM1H     384      IM1H     C4       CD2R5E    2.72410       11.6110           0  -1.25300       1.20000    
      7675 IM1H     384      IM1H     DC4      DRUD     -2.74710      0.400000           0   0.00000       0.00000    
      7676 IM1H     384      IM1H     H6       HDR5E    0.203000       1.00800           0   0.00000       0.00000    
      7677 IM1H     384      IM1H     N2       ND2R5C    2.04220       13.6070           0 -0.803000       1.00000    
      7678 IM1H     384      IM1H     DN2      DRUD     -2.19920      0.400000           0   0.00000       0.00000    
      7679 IM1H     384      IM1H     H7       HDP1A    0.363000       1.00800           0   0.00000       0.00000    
      7680 IM1H     384      IM1H     LPN21    LPD       0.00000       0.00000          -1   0.00000       0.00000    
      7681 IM1H     385      IM1H     C1       CD33F     2.48500       11.6110           0  -1.18100       1.10000    
      7682 IM1H     385      IM1H     DC1      DRUD     -2.66700      0.400000           0   0.00000       0.00000    
      7683 IM1H     385      IM1H     H1       HDA3A    0.135000       1.00800           0   0.00000       0.00000    
      7684 IM1H     385      IM1H     H2       HDA3A    0.135000       1.00800           0   0.00000       0.00000    
      7685 IM1H     385      IM1H     H3       HDA3A    0.135000       1.00800           0   0.00000       0.00000    
      7686 IM1H     385      IM1H     N1       ND2R5C    2.35720       13.6070           0 -0.803000       1.00000    
      7687 IM1H     385      IM1H     DN1      DRUD     -2.19920      0.400000           0   0.00000       0.00000    
      7688 IM1H     385      IM1H     C2       CD2R5D    2.44700       11.6110           0  -1.08300       1.10000    
      7689 IM1H     385      IM1H     DC2      DRUD     -2.55400      0.400000           0   0.00000       0.00000    
      7690 IM1H     385      IM1H     H4       HDR5D    0.195000       1.00800           0   0.00000       0.00000    
      7691 IM1H     385      IM1H     C3       CD2R5D    2.50700       11.6110           0  -1.08300       1.10000    
      7692 IM1H     385      IM1H     DC3      DRUD     -2.55400      0.400000           0   0.00000       0.00000    
      7693 IM1H     385      IM1H     H5       HDR5D    0.192000       1.00800           0   0.00000       0.00000    
      7694 IM1H     385      IM1H     C4       CD2R5E    2.72410       11.6110           0  -1.25300       1.20000    
      7695 IM1H     385      IM1H     DC4      DRUD     -2.74710      0.400000           0   0.00000       0.00000    
      7696 IM1H     385      IM1H     H6       HDR5E    0.203000       1.00800           0   0.00000       0.00000    
      7697 IM1H     385      IM1H     N2       ND2R5C    2.04220       13.6070           0 -0.803000       1.00000    
      7698 IM1H     385      IM1H     DN2      DRUD     -2.19920      0.400000           0   0.00000       0.00000    
      7699 IM1H     385      IM1H     H7       HDP1A    0.363000       1.00800           0   0.00000       0.00000    
      7700 IM1H     385      IM1H     LPN21    LPD       0.00000       0.00000          -1   0.00000       0.00000    
      7701 IM1H     386      IM1H     C1       CD33F     2.48500       11.6110           0  -1.18100       1.10000    
      7702 IM1H     386      IM1H     DC1      DRUD     -2.66700      0.400000           0   0.00000       0.00000    
      7703 IM1H     386      IM1H     H1       HDA3A    0.135000       1.00800           0   0.00000       0.00000    
      7704 IM1H     386      IM1H     H2       HDA3A    0.135000       1.00800           0   0.00000       0.00000    
      7705 IM1H     386      IM1H     H3       HDA3A    0.135000       1.00800           0   0.00000       0.00000    
      7706 IM1H     386      IM1H     N1       ND2R5C    2.35720       13.6070           0 -0.803000       1.00000    
      7707 IM1H     386      IM1H     DN1      DRUD     -2.19920      0.400000           0   0.00000       0.00000    
      7708 IM1H     386      IM1H     C2       CD2R5D    2.44700       11.6110           0  -1.08300       1.10000    
      7709 IM1H     386      IM1H     DC2      DRUD     -2.55400      0.400000           0   0.00000       0.00000    
      7710 IM1H     386      IM1H     H4       HDR5D    0.195000       1.00800           0   0.00000       0.00000    
      7711 IM1H     386      IM1H     C3       CD2R5D    2.50700       11.6110           0  -1.08300       1.10000    
      7712 IM1H     386      IM1H     DC3      DRUD     -2.55400      0.400000           0   0.00000       0.00000    
      7713 IM1H     386      IM1H     H5       HDR5D    0.192000       1.00800           0   0.00000       0.00000    
      7714 IM1H     386      IM1H     C4       CD2R5E    2.72410       11.6110           0  -1.25300       1.20000    
      7715 IM1H     386      IM1H     DC4      DRUD     -2.74710      0.400000           0   0.00000       0.00000    
      7716 IM1H     386      IM1H     H6       HDR5E    0.203000       1.00800           0   0.00000       0.00000    
      7717 IM1H     386      IM1H     N2       ND2R5C    2.04220       13.6070           0 -0.803000       1.00000    
      7718 IM1H     386      IM1H     DN2      DRUD     -2.19920      0.400000           0   0.00000       0.00000    
      7719 IM1H     386      IM1H     H7       HDP1A    0.363000       1.00800           0   0.00000       0.00000    
      7720 IM1H     386      IM1H     LPN21    LPD       0.00000       0.00000          -1   0.00000       0.00000    
      7721 IM1H     387      IM1H     C1       CD33F     2.48500       11.6110           0  -1.18100       1.10000    
      7722 IM1H     387      IM1H     DC1      DRUD     -2.66700      0.400000           0   0.00000       0.00000    
      7723 IM1H     387      IM1H     H1       HDA3A    0.135000       1.00800           0   0.00000       0.00000    
      7724 IM1H     387      IM1H     H2       HDA3A    0.135000       1.00800           0   0.00000       0.00000    
      7725 IM1H     387      IM1H     H3       HDA3A    0.135000       1.00800           0   0.00000       0.00000    
      7726 IM1H     387      IM1H     N1       ND2R5C    2.35720       13.6070           0 -0.803000       1.00000    
      7727 IM1H     387      IM1H     DN1      DRUD     -2.19920      0.400000           0   0.00000       0.00000    
      7728 IM1H     387      IM1H     C2       CD2R5D    2.44700       11.6110           0  -1.08300       1.10000    
      7729 IM1H     387      IM1H     DC2      DRUD     -2.55400      0.400000           0   0.00000       0.00000    
      7730 IM1H     387      IM1H     H4       HDR5D    0.195000       1.00800           0   0.00000       0.00000    
      7731 IM1H     387      IM1H     C3       CD2R5D    2.50700       11.6110           0  -1.08300       1.10000    
      7732 IM1H     387      IM1H     DC3      DRUD     -2.55400      0.400000           0   0.00000       0.00000    
      7733 IM1H     387      IM1H     H5       HDR5D    0.192000       1.00800           0   0.00000       0.00000    
      7734 IM1H     387      IM1H     C4       CD2R5E    2.72410       11.6110           0  -1.25300       1.20000    
      7735 IM1H     387      IM1H     DC4      DRUD     -2.74710      0.400000           0   0.00000       0.00000    
      7736 IM1H     387      IM1H     H6       HDR5E    0.203000       1.00800           0   0.00000       0.00000    
      7737 IM1H     387      IM1H     N2       ND2R5C    2.04220       13.6070           0 -0.803000       1.00000    
      7738 IM1H     387      IM1H     DN2      DRUD     -2.19920      0.400000           0   0.00000       0.00000    
      7739 IM1H     387      IM1H     H7       HDP1A    0.363000       1.00800           0   0.00000       0.00000    
      7740 IM1H     387      IM1H     LPN21    LPD       0.00000       0.00000          -1   0.00000       0.00000    
      7741 IM1H     388      IM1H     C1       CD33F     2.48500       11.6110           0  -1.18100       1.10000    
      7742 IM1H     388      IM1H     DC1      DRUD     -2.66700      0.400000           0   0.00000       0.00000    
      7743 IM1H     388      IM1H     H1       HDA3A    0.135000       1.00800           0   0.00000       0.00000    
      7744 IM1H     388      IM1H     H2       HDA3A    0.135000       1.00800           0   0.00000       0.00000    
      7745 IM1H     388      IM1H     H3       HDA3A    0.135000       1.00800           0   0.00000       0.00000    
      7746 IM1H     388      IM1H     N1       ND2R5C    2.35720       13.6070           0 -0.803000       1.00000    
      7747 IM1H     388      IM1H     DN1      DRUD     -2.19920      0.400000           0   0.00000       0.00000    
      7748 IM1H     388      IM1H     C2       CD2R5D    2.44700       11.6110           0  -1.08300       1.10000    
      7749 IM1H     388      IM1H     DC2      DRUD     -2.55400      0.400000           0   0.00000       0.00000    
      7750 IM1H     388      IM1H     H4       HDR5D    0.195000       1.00800           0   0.00000       0.00000    
      7751 IM1H     388      IM1H     C3       CD2R5D    2.50700       11.6110           0  -1.08300       1.10000    
      7752 IM1H     388      IM1H     DC3      DRUD     -2.55400      0.400000           0   0.00000       0.00000    
      7753 IM1H     388      IM1H     H5       HDR5D    0.192000       1.00800           0   0.00000       0.00000    
      7754 IM1H     388      IM1H     C4       CD2R5E    2.72410       11.6110           0  -1.25300       1.20000    
      7755 IM1H     388      IM1H     DC4      DRUD     -2.74710      0.400000           0   0.00000       0.00000    
      7756 IM1H     388      IM1H     H6       HDR5E    0.203000       1.00800           0   0.00000       0.00000    
      7757 IM1H     388      IM1H     N2       ND2R5C    2.04220       13.6070           0 -0.803000       1.00000    
      7758 IM1H     388      IM1H     DN2      DRUD     -2.19920      0.400000           0   0.00000       0.00000    
      7759 IM1H     388      IM1H     H7       HDP1A    0.363000       1.00800           0   0.00000       0.00000    
      7760 IM1H     388      IM1H     LPN21    LPD       0.00000       0.00000          -1   0.00000       0.00000    
      7761 IM1H     389      IM1H     C1       CD33F     2.48500       11.6110           0  -1.18100       1.10000    
      7762 IM1H     389      IM1H     DC1      DRUD     -2.66700      0.400000           0   0.00000       0.00000    
      7763 IM1H     389      IM1H     H1       HDA3A    0.135000       1.00800           0   0.00000       0.00000    
      7764 IM1H     389      IM1H     H2       HDA3A    0.135000       1.00800           0   0.00000       0.00000    
      7765 IM1H     389      IM1H     H3       HDA3A    0.135000       1.00800           0   0.00000       0.00000    
      7766 IM1H     389      IM1H     N1       ND2R5C    2.35720       13.6070           0 -0.803000       1.00000    
      7767 IM1H     389      IM1H     DN1      DRUD     -2.19920      0.400000           0   0.00000       0.00000    
      7768 IM1H     389      IM1H     C2       CD2R5D    2.44700       11.6110           0  -1.08300       1.10000    
      7769 IM1H     389      IM1H     DC2      DRUD     -2.55400      0.400000           0   0.00000       0.00000    
      7770 IM1H     389      IM1H     H4       HDR5D    0.195000       1.00800           0   0.00000       0.00000    
      7771 IM1H     389      IM1H     C3       CD2R5D    2.50700       11.6110           0  -1.08300       1.10000    
      7772 IM1H     389      IM1H     DC3      DRUD     -2.55400      0.400000           0   0.00000       0.00000    
      7773 IM1H     389      IM1H     H5       HDR5D    0.192000       1.00800           0   0.00000       0.00000    
      7774 IM1H     389      IM1H     C4       CD2R5E    2.72410       11.6110           0  -1.25300       1.20000    
      7775 IM1H     389      IM1H     DC4      DRUD     -2.74710      0.400000           0   0.00000       0.00000    
      7776 IM1H     389      IM1H     H6       HDR5E    0.203000       1.00800           0   0.00000       0.00000    
      7777 IM1H     389      IM1H     N2       ND2R5C    2.04220       13.6070           0 -0.803000       1.00000    
      7778 IM1H     389      IM1H     DN2      DRUD     -2.19920      0.400000           0   0.00000       0.00000    
      7779 IM1H     389      IM1H     H7       HDP1A    0.363000       1.00800           0   0.00000       0.00000    
      7780 IM1H     389      IM1H     LPN21    LPD       0.00000       0.00000          -1   0.00000       0.00000    
      7781 IM1H     390      IM1H     C1       CD33F     2.48500       11.6110           0  -1.18100       1.10000    
      7782 IM1H     390      IM1H     DC1      DRUD     -2.66700      0.400000           0   0.00000       0.00000    
      7783 IM1H     390      IM1H     H1       HDA3A    0.135000       1.00800           0   0.00000       0.00000    
      7784 IM1H     390      IM1H     H2       HDA3A    0.135000       1.00800           0   0.00000       0.00000    
      7785 IM1H     390      IM1H     H3       HDA3A    0.135000       1.00800           0   0.00000       0.00000    
      7786 IM1H     390      IM1H     N1       ND2R5C    2.35720       13.6070           0 -0.803000       1.00000    
      7787 IM1H     390      IM1H     DN1      DRUD     -2.19920      0.400000           0   0.00000       0.00000    
      7788 IM1H     390      IM1H     C2       CD2R5D    2.44700       11.6110           0  -1.08300       1.10000    
      7789 IM1H     390      IM1H     DC2      DRUD     -2.55400      0.400000           0   0.00000       0.00000    
      7790 IM1H     390      IM1H     H4       HDR5D    0.195000       1.00800           0   0.00000       0.00000    
      7791 IM1H     390      IM1H     C3       CD2R5D    2.50700       11.6110           0  -1.08300       1.10000    
      7792 IM1H     390      IM1H     DC3      DRUD     -2.55400      0.400000           0   0.00000       0.00000    
      7793 IM1H     390      IM1H     H5       HDR5D    0.192000       1.00800           0   0.00000       0.00000    
      7794 IM1H     390      IM1H     C4       CD2R5E    2.72410       11.6110           0  -1.25300       1.20000    
      7795 IM1H     390      IM1H     DC4      DRUD     -2.74710      0.400000           0   0.00000       0.00000    
      7796 IM1H     390      IM1H     H6       HDR5E    0.203000       1.00800           0   0.00000       0.00000    
      7797 IM1H     390      IM1H     N2       ND2R5C    2.04220       13.6070           0 -0.803000       1.00000    
      7798 IM1H     390      IM1H     DN2      DRUD     -2.19920      0.400000           0   0.00000       0.00000    
      7799 IM1H     390      IM1H     H7       HDP1A    0.363000       1.00800           0   0.00000       0.00000    
      7800 IM1H     390      IM1H     LPN21    LPD       0.00000       0.00000          -1   0.00000       0.00000    
      7801 IM1H     391      IM1H     C1       CD33F     2.48500       11.6110           0  -1.18100       1.10000    
      7802 IM1H     391      IM1H     DC1      DRUD     -2.66700      0.400000           0   0.00000       0.00000    
      7803 IM1H     391      IM1H     H1       HDA3A    0.135000       1.00800           0   0.00000       0.00000    
      7804 IM1H     391      IM1H     H2       HDA3A    0.135000       1.00800           0   0.00000       0.00000    
      7805 IM1H     391      IM1H     H3       HDA3A    0.135000       1.00800           0   0.00000       0.00000    
      7806 IM1H     391      IM1H     N1       ND2R5C    2.35720       13.6070           0 -0.803000       1.00000    
      7807 IM1H     391      IM1H     DN1      DRUD     -2.19920      0.400000           0   0.00000       0.00000    
      7808 IM1H     391      IM1H     C2       CD2R5D    2.44700       11.6110           0  -1.08300       1.10000    
      7809 IM1H     391      IM1H     DC2      DRUD     -2.55400      0.400000           0   0.00000       0.00000    
      7810 IM1H     391      IM1H     H4       HDR5D    0.195000       1.00800           0   0.00000       0.00000    
      7811 IM1H     391      IM1H     C3       CD2R5D    2.50700       11.6110           0  -1.08300       1.10000    
      7812 IM1H     391      IM1H     DC3      DRUD     -2.55400      0.400000           0   0.00000       0.00000    
      7813 IM1H     391      IM1H     H5       HDR5D    0.192000       1.00800           0   0.00000       0.00000    
      7814 IM1H     391      IM1H     C4       CD2R5E    2.72410       11.6110           0  -1.25300       1.20000    
      7815 IM1H     391      IM1H     DC4      DRUD     -2.74710      0.400000           0   0.00000       0.00000    
      7816 IM1H     391      IM1H     H6       HDR5E    0.203000       1.00800           0   0.00000       0.00000    
      7817 IM1H     391      IM1H     N2       ND2R5C    2.04220       13.6070           0 -0.803000       1.00000    
      7818 IM1H     391      IM1H     DN2      DRUD     -2.19920      0.400000           0   0.00000       0.00000    
      7819 IM1H     391      IM1H     H7       HDP1A    0.363000       1.00800           0   0.00000       0.00000    
      7820 IM1H     391      IM1H     LPN21    LPD       0.00000       0.00000          -1   0.00000       0.00000    
      7821 IM1H     392      IM1H     C1       CD33F     2.48500       11.6110           0  -1.18100       1.10000    
      7822 IM1H     392      IM1H     DC1      DRUD     -2.66700      0.400000           0   0.00000       0.00000    
      7823 IM1H     392      IM1H     H1       HDA3A    0.135000       1.00800           0   0.00000       0.00000    
      7824 IM1H     392      IM1H     H2       HDA3A    0.135000       1.00800           0   0.00000       0.00000    
      7825 IM1H     392      IM1H     H3       HDA3A    0.135000       1.00800           0   0.00000       0.00000    
      7826 IM1H     392      IM1H     N1       ND2R5C    2.35720       13.6070           0 -0.803000       1.00000    
      7827 IM1H     392      IM1H     DN1      DRUD     -2.19920      0.400000           0   0.00000       0.00000    
      7828 IM1H     392      IM1H     C2       CD2R5D    2.44700       11.6110           0  -1.08300       1.10000    
      7829 IM1H     392      IM1H     DC2      DRUD     -2.55400      0.400000           0   0.00000       0.00000    
      7830 IM1H     392      IM1H     H4       HDR5D    0.195000       1.00800           0   0.00000       0.00000    
      7831 IM1H     392      IM1H     C3       CD2R5D    2.50700       11.6110           0  -1.08300       1.10000    
      7832 IM1H     392      IM1H     DC3      DRUD     -2.55400      0.400000           0   0.00000       0.00000    
      7833 IM1H     392      IM1H     H5       HDR5D    0.192000       1.00800           0   0.00000       0.00000    
      7834 IM1H     392      IM1H     C4       CD2R5E    2.72410       11.6110           0  -1.25300       1.20000    
      7835 IM1H     392      IM1H     DC4      DRUD     -2.74710      0.400000           0   0.00000       0.00000    
      7836 IM1H     392      IM1H     H6       HDR5E    0.203000       1.00800           0   0.00000       0.00000    
      7837 IM1H     392      IM1H     N2       ND2R5C    2.04220       13.6070           0 -0.803000       1.00000    
      7838 IM1H     392      IM1H     DN2      DRUD     -2.19920      0.400000           0   0.00000       0.00000    
      7839 IM1H     392      IM1H     H7       HDP1A    0.363000       1.00800           0   0.00000       0.00000    
      7840 IM1H     392      IM1H     LPN21    LPD       0.00000       0.00000          -1   0.00000       0.00000    
      7841 IM1H     393      IM1H     C1       CD33F     2.48500       11.6110           0  -1.18100       1.10000    
      7842 IM1H     393      IM1H     DC1      DRUD     -2.66700      0.400000           0   0.00000       0.00000    
      7843 IM1H     393      IM1H     H1       HDA3A    0.135000       1.00800           0   0.00000       0.00000    
      7844 IM1H     393      IM1H     H2       HDA3A    0.135000       1.00800           0   0.00000       0.00000    
      7845 IM1H     393      IM1H     H3       HDA3A    0.135000       1.00800           0   0.00000       0.00000    
      7846 IM1H     393      IM1H     N1       ND2R5C    2.35720       13.6070           0 -0.803000       1.00000    
      7847 IM1H     393      IM1H     DN1      DRUD     -2.19920      0.400000           0   0.00000       0.00000    
      7848 IM1H     393      IM1H     C2       CD2R5D    2.44700       11.6110           0  -1.08300       1.10000    
      7849 IM1H     393      IM1H     DC2      DRUD     -2.55400      0.400000           0   0.00000       0.00000    
      7850 IM1H     393      IM1H     H4       HDR5D    0.195000       1.00800           0   0.00000       0.00000    
      7851 IM1H     393      IM1H     C3       CD2R5D    2.50700       11.6110           0  -1.08300       1.10000    
      7852 IM1H     393      IM1H     DC3      DRUD     -2.55400      0.400000           0   0.00000       0.00000    
      7853 IM1H     393      IM1H     H5       HDR5D    0.192000       1.00800           0   0.00000       0.00000    
      7854 IM1H     393      IM1H     C4       CD2R5E    2.72410       11.6110           0  -1.25300       1.20000    
      7855 IM1H     393      IM1H     DC4      DRUD     -2.74710      0.400000           0   0.00000       0.00000    
      7856 IM1H     393      IM1H     H6       HDR5E    0.203000       1.00800           0   0.00000       0.00000    
      7857 IM1H     393      IM1H     N2       ND2R5C    2.04220       13.6070           0 -0.803000       1.00000    
      7858 IM1H     393      IM1H     DN2      DRUD     -2.19920      0.400000           0   0.00000       0.00000    
      7859 IM1H     393      IM1H     H7       HDP1A    0.363000       1.00800           0   0.00000       0.00000    
      7860 IM1H     393      IM1H     LPN21    LPD       0.00000       0.00000          -1   0.00000       0.00000    
      7861 IM1H     394      IM1H     C1       CD33F     2.48500       11.6110           0  -1.18100       1.10000    
      7862 IM1H     394      IM1H     DC1      DRUD     -2.66700      0.400000           0   0.00000       0.00000    
      7863 IM1H     394      IM1H     H1       HDA3A    0.135000       1.00800           0   0.00000       0.00000    
      7864 IM1H     394      IM1H     H2       HDA3A    0.135000       1.00800           0   0.00000       0.00000    
      7865 IM1H     394      IM1H     H3       HDA3A    0.135000       1.00800           0   0.00000       0.00000    
      7866 IM1H     394      IM1H     N1       ND2R5C    2.35720       13.6070           0 -0.803000       1.00000    
      7867 IM1H     394      IM1H     DN1      DRUD     -2.19920      0.400000           0   0.00000       0.00000    
      7868 IM1H     394      IM1H     C2       CD2R5D    2.44700       11.6110           0  -1.08300       1.10000    
      7869 IM1H     394      IM1H     DC2      DRUD     -2.55400      0.400000           0   0.00000       0.00000    
      7870 IM1H     394      IM1H     H4       HDR5D    0.195000       1.00800           0   0.00000       0.00000    
      7871 IM1H     394      IM1H     C3       CD2R5D    2.50700       11.6110           0  -1.08300       1.10000    
      7872 IM1H     394      IM1H     DC3      DRUD     -2.55400      0.400000           0   0.00000       0.00000    
      7873 IM1H     394      IM1H     H5       HDR5D    0.192000       1.00800           0   0.00000       0.00000    
      7874 IM1H     394      IM1H     C4       CD2R5E    2.72410       11.6110           0  -1.25300       1.20000    
      7875 IM1H     394      IM1H     DC4      DRUD     -2.74710      0.400000           0   0.00000       0.00000    
      7876 IM1H     394      IM1H     H6       HDR5E    0.203000       1.00800           0   0.00000       0.00000    
      7877 IM1H     394      IM1H     N2       ND2R5C    2.04220       13.6070           0 -0.803000       1.00000    
      7878 IM1H     394      IM1H     DN2      DRUD     -2.19920      0.400000           0   0.00000       0.00000    
      7879 IM1H     394      IM1H     H7       HDP1A    0.363000       1.00800           0   0.00000       0.00000    
      7880 IM1H     394      IM1H     LPN21    LPD       0.00000       0.00000          -1   0.00000       0.00000    
      7881 IM1H     395      IM1H     C1       CD33F     2.48500       11.6110           0  -1.18100       1.10000    
      7882 IM1H     395      IM1H     DC1      DRUD     -2.66700      0.400000           0   0.00000       0.00000    
      7883 IM1H     395      IM1H     H1       HDA3A    0.135000       1.00800           0   0.00000       0.00000    
      7884 IM1H     395      IM1H     H2       HDA3A    0.135000       1.00800           0   0.00000       0.00000    
      7885 IM1H     395      IM1H     H3       HDA3A    0.135000       1.00800           0   0.00000       0.00000    
      7886 IM1H     395      IM1H     N1       ND2R5C    2.35720       13.6070           0 -0.803000       1.00000    
      7887 IM1H     395      IM1H     DN1      DRUD     -2.19920      0.400000           0   0.00000       0.00000    
      7888 IM1H     395      IM1H     C2       CD2R5D    2.44700       11.6110           0  -1.08300       1.10000    
      7889 IM1H     395      IM1H     DC2      DRUD     -2.55400      0.400000           0   0.00000       0.00000    
      7890 IM1H     395      IM1H     H4       HDR5D    0.195000       1.00800           0   0.00000       0.00000    
      7891 IM1H     395      IM1H     C3       CD2R5D    2.50700       11.6110           0  -1.08300       1.10000    
      7892 IM1H     395      IM1H     DC3      DRUD     -2.55400      0.400000           0   0.00000       0.00000    
      7893 IM1H     395      IM1H     H5       HDR5D    0.192000       1.00800           0   0.00000       0.00000    
      7894 IM1H     395      IM1H     C4       CD2R5E    2.72410       11.6110           0  -1.25300       1.20000    
      7895 IM1H     395      IM1H     DC4      DRUD     -2.74710      0.400000           0   0.00000       0.00000    
      7896 IM1H     395      IM1H     H6       HDR5E    0.203000       1.00800           0   0.00000       0.00000    
      7897 IM1H     395      IM1H     N2       ND2R5C    2.04220       13.6070           0 -0.803000       1.00000    
      7898 IM1H     395      IM1H     DN2      DRUD     -2.19920      0.400000           0   0.00000       0.00000    
      7899 IM1H     395      IM1H     H7       HDP1A    0.363000       1.00800           0   0.00000       0.00000    
      7900 IM1H     395      IM1H     LPN21    LPD       0.00000       0.00000          -1   0.00000       0.00000    
      7901 IM1H     396      IM1H     C1       CD33F     2.48500       11.6110           0  -1.18100       1.10000    
      7902 IM1H     396      IM1H     DC1      DRUD     -2.66700      0.400000           0   0.00000       0.00000    
      7903 IM1H     396      IM1H     H1       HDA3A    0.135000       1.00800           0   0.00000       0.00000    
      7904 IM1H     396      IM1H     H2       HDA3A    0.135000       1.00800           0   0.00000       0.00000    
      7905 IM1H     396      IM1H     H3       HDA3A    0.135000       1.00800           0   0.00000       0.00000    
      7906 IM1H     396      IM1H     N1       ND2R5C    2.35720       13.6070           0 -0.803000       1.00000    
      7907 IM1H     396      IM1H     DN1      DRUD     -2.19920      0.400000           0   0.00000       0.00000    
      7908 IM1H     396      IM1H     C2       CD2R5D    2.44700       11.6110           0  -1.08300       1.10000    
      7909 IM1H     396      IM1H     DC2      DRUD     -2.55400      0.400000           0   0.00000       0.00000    
      7910 IM1H     396      IM1H     H4       HDR5D    0.195000       1.00800           0   0.00000       0.00000    
      7911 IM1H     396      IM1H     C3       CD2R5D    2.50700       11.6110           0  -1.08300       1.10000    
      7912 IM1H     396      IM1H     DC3      DRUD     -2.55400      0.400000           0   0.00000       0.00000    
      7913 IM1H     396      IM1H     H5       HDR5D    0.192000       1.00800           0   0.00000       0.00000    
      7914 IM1H     396      IM1H     C4       CD2R5E    2.72410       11.6110           0  -1.25300       1.20000    
      7915 IM1H     396      IM1H     DC4      DRUD     -2.74710      0.400000           0   0.00000       0.00000    
      7916 IM1H     396      IM1H     H6       HDR5E    0.203000       1.00800           0   0.00000       0.00000    
      7917 IM1H     396      IM1H     N2       ND2R5C    2.04220       13.6070           0 -0.803000       1.00000    
      7918 IM1H     396      IM1H     DN2      DRUD     -2.19920      0.400000           0   0.00000       0.00000    
      7919 IM1H     396      IM1H     H7       HDP1A    0.363000       1.00800           0   0.00000       0.00000    
      7920 IM1H     396      IM1H     LPN21    LPD       0.00000       0.00000          -1   0.00000       0.00000    
      7921 IM1H     397      IM1H     C1       CD33F     2.48500       11.6110           0  -1.18100       1.10000    
      7922 IM1H     397      IM1H     DC1      DRUD     -2.66700      0.400000           0   0.00000       0.00000    
      7923 IM1H     397      IM1H     H1       HDA3A    0.135000       1.00800           0   0.00000       0.00000    
      7924 IM1H     397      IM1H     H2       HDA3A    0.135000       1.00800           0   0.00000       0.00000    
      7925 IM1H     397      IM1H     H3       HDA3A    0.135000       1.00800           0   0.00000       0.00000    
      7926 IM1H     397      IM1H     N1       ND2R5C    2.35720       13.6070           0 -0.803000       1.00000    
      7927 IM1H     397      IM1H     DN1      DRUD     -2.19920      0.400000           0   0.00000       0.00000    
      7928 IM1H     397      IM1H     C2       CD2R5D    2.44700       11.6110           0  -1.08300       1.10000    
      7929 IM1H     397      IM1H     DC2      DRUD     -2.55400      0.400000           0   0.00000       0.00000    
      7930 IM1H     397      IM1H     H4       HDR5D    0.195000       1.00800           0   0.00000       0.00000    
      7931 IM1H     397      IM1H     C3       CD2R5D    2.50700       11.6110           0  -1.08300       1.10000    
      7932 IM1H     397      IM1H     DC3      DRUD     -2.55400      0.400000           0   0.00000       0.00000    
      7933 IM1H     397      IM1H     H5       HDR5D    0.192000       1.00800           0   0.00000       0.00000    
      7934 IM1H     397      IM1H     C4       CD2R5E    2.72410       11.6110           0  -1.25300       1.20000    
      7935 IM1H     397      IM1H     DC4      DRUD     -2.74710      0.400000           0   0.00000       0.00000    
      7936 IM1H     397      IM1H     H6       HDR5E    0.203000       1.00800           0   0.00000       0.00000    
      7937 IM1H     397      IM1H     N2       ND2R5C    2.04220       13.6070           0 -0.803000       1.00000    
      7938 IM1H     397      IM1H     DN2      DRUD     -2.19920      0.400000           0   0.00000       0.00000    
      7939 IM1H     397      IM1H     H7       HDP1A    0.363000       1.00800           0   0.00000       0.00000    
      7940 IM1H     397      IM1H     LPN21    LPD       0.00000       0.00000          -1   0.00000       0.00000    
      7941 IM1H     398      IM1H     C1       CD33F     2.48500       11.6110           0  -1.18100       1.10000    
      7942 IM1H     398      IM1H     DC1      DRUD     -2.66700      0.400000           0   0.00000       0.00000    
      7943 IM1H     398      IM1H     H1       HDA3A    0.135000       1.00800           0   0.00000       0.00000    
      7944 IM1H     398      IM1H     H2       HDA3A    0.135000       1.00800           0   0.00000       0.00000    
      7945 IM1H     398      IM1H     H3       HDA3A    0.135000       1.00800           0   0.00000       0.00000    
      7946 IM1H     398      IM1H     N1       ND2R5C    2.35720       13.6070           0 -0.803000       1.00000    
      7947 IM1H     398      IM1H     DN1      DRUD     -2.19920      0.400000           0   0.00000       0.00000    
      7948 IM1H     398      IM1H     C2       CD2R5D    2.44700       11.6110           0  -1.08300       1.10000    
      7949 IM1H     398      IM1H     DC2      DRUD     -2.55400      0.400000           0   0.00000       0.00000    
      7950 IM1H     398      IM1H     H4       HDR5D    0.195000       1.00800           0   0.00000       0.00000    
      7951 IM1H     398      IM1H     C3       CD2R5D    2.50700       11.6110           0  -1.08300       1.10000    
      7952 IM1H     398      IM1H     DC3      DRUD     -2.55400      0.400000           0   0.00000       0.00000    
      7953 IM1H     398      IM1H     H5       HDR5D    0.192000       1.00800           0   0.00000       0.00000    
      7954 IM1H     398      IM1H     C4       CD2R5E    2.72410       11.6110           0  -1.25300       1.20000    
      7955 IM1H     398      IM1H     DC4      DRUD     -2.74710      0.400000           0   0.00000       0.00000    
      7956 IM1H     398      IM1H     H6       HDR5E    0.203000       1.00800           0   0.00000       0.00000    
      7957 IM1H     398      IM1H     N2       ND2R5C    2.04220       13.6070           0 -0.803000       1.00000    
      7958 IM1H     398      IM1H     DN2      DRUD     -2.19920      0.400000           0   0.00000       0.00000    
      7959 IM1H     398      IM1H     H7       HDP1A    0.363000       1.00800           0   0.00000       0.00000    
      7960 IM1H     398      IM1H     LPN21    LPD       0.00000       0.00000          -1   0.00000       0.00000    
      7961 IM1H     399      IM1H     C1       CD33F     2.48500       11.6110           0  -1.18100       1.10000    
      7962 IM1H     399      IM1H     DC1      DRUD     -2.66700      0.400000           0   0.00000       0.00000    
      7963 IM1H     399      IM1H     H1       HDA3A    0.135000       1.00800           0   0.00000       0.00000    
      7964 IM1H     399      IM1H     H2       HDA3A    0.135000       1.00800           0   0.00000       0.00000    
      7965 IM1H     399      IM1H     H3       HDA3A    0.135000       1.00800           0   0.00000       0.00000    
      7966 IM1H     399      IM1H     N1       ND2R5C    2.35720       13.6070           0 -0.803000       1.00000    
      7967 IM1H     399      IM1H     DN1      DRUD     -2.19920      0.400000           0   0.00000       0.00000    
      7968 IM1H     399      IM1H     C2       CD2R5D    2.44700       11.6110           0  -1.08300       1.10000    
      7969 IM1H     399      IM1H     DC2      DRUD     -2.55400      0.400000           0   0.00000       0.00000    
      7970 IM1H     399      IM1H     H4       HDR5D    0.195000       1.00800           0   0.00000       0.00000    
      7971 IM1H     399      IM1H     C3       CD2R5D    2.50700       11.6110           0  -1.08300       1.10000    
      7972 IM1H     399      IM1H     DC3      DRUD     -2.55400      0.400000           0   0.00000       0.00000    
      7973 IM1H     399      IM1H     H5       HDR5D    0.192000       1.00800           0   0.00000       0.00000    
      7974 IM1H     399      IM1H     C4       CD2R5E    2.72410       11.6110           0  -1.25300       1.20000    
      7975 IM1H     399      IM1H     DC4      DRUD     -2.74710      0.400000           0   0.00000       0.00000    
      7976 IM1H     399      IM1H     H6       HDR5E    0.203000       1.00800           0   0.00000       0.00000    
      7977 IM1H     399      IM1H     N2       ND2R5C    2.04220       13.6070           0 -0.803000       1.00000    
      7978 IM1H     399      IM1H     DN2      DRUD     -2.19920      0.400000           0   0.00000       0.00000    
      7979 IM1H     399      IM1H     H7       HDP1A    0.363000       1.00800           0   0.00000       0.00000    
      7980 IM1H     399      IM1H     LPN21    LPD       0.00000       0.00000          -1   0.00000       0.00000    
      7981 IM1H     400      IM1H     C1       CD33F     2.48500       11.6110           0  -1.18100       1.10000    
      7982 IM1H     400      IM1H     DC1      DRUD     -2.66700      0.400000           0   0.00000       0.00000    
      7983 IM1H     400      IM1H     H1       HDA3A    0.135000       1.00800           0   0.00000       0.00000    
      7984 IM1H     400      IM1H     H2       HDA3A    0.135000       1.00800           0   0.00000       0.00000    
      7985 IM1H     400      IM1H     H3       HDA3A    0.135000       1.00800           0   0.00000       0.00000    
      7986 IM1H     400      IM1H     N1       ND2R5C    2.35720       13.6070           0 -0.803000       1.00000    
      7987 IM1H     400      IM1H     DN1      DRUD     -2.19920      0.400000           0   0.00000       0.00000    
      7988 IM1H     400      IM1H     C2       CD2R5D    2.44700       11.6110           0  -1.08300       1.10000    
      7989 IM1H     400      IM1H     DC2      DRUD     -2.55400      0.400000           0   0.00000       0.00000    
      7990 IM1H     400      IM1H     H4       HDR5D    0.195000       1.00800           0   0.00000       0.00000    
      7991 IM1H     400      IM1H     C3       CD2R5D    2.50700       11.6110           0  -1.08300       1.10000    
      7992 IM1H     400      IM1H     DC3      DRUD     -2.55400      0.400000           0   0.00000       0.00000    
      7993 IM1H     400      IM1H     H5       HDR5D    0.192000       1.00800           0   0.00000       0.00000    
      7994 IM1H     400      IM1H     C4       CD2R5E    2.72410       11.6110           0  -1.25300       1.20000    
      7995 IM1H     400      IM1H     DC4      DRUD     -2.74710      0.400000           0   0.00000       0.00000    
      7996 IM1H     400      IM1H     H6       HDR5E    0.203000       1.00800           0   0.00000       0.00000    
      7997 IM1H     400      IM1H     N2       ND2R5C    2.04220       13.6070           0 -0.803000       1.00000    
      7998 IM1H     400      IM1H     DN2      DRUD     -2.19920      0.400000           0   0.00000       0.00000    
      7999 IM1H     400      IM1H     H7       HDP1A    0.363000       1.00800           0   0.00000       0.00000    
      8000 IM1H     400      IM1H     LPN21    LPD       0.00000       0.00000          -1   0.00000       0.00000    
      8001 IM1H     401      IM1H     C1       CD33F     2.48500       11.6110           0  -1.18100       1.10000    
      8002 IM1H     401      IM1H     DC1      DRUD     -2.66700      0.400000           0   0.00000       0.00000    
      8003 IM1H     401      IM1H     H1       HDA3A    0.135000       1.00800           0   0.00000       0.00000    
      8004 IM1H     401      IM1H     H2       HDA3A    0.135000       1.00800           0   0.00000       0.00000    
      8005 IM1H     401      IM1H     H3       HDA3A    0.135000       1.00800           0   0.00000       0.00000    
      8006 IM1H     401      IM1H     N1       ND2R5C    2.35720       13.6070           0 -0.803000       1.00000    
      8007 IM1H     401      IM1H     DN1      DRUD     -2.19920      0.400000           0   0.00000       0.00000    
      8008 IM1H     401      IM1H     C2       CD2R5D    2.44700       11.6110           0  -1.08300       1.10000    
      8009 IM1H     401      IM1H     DC2      DRUD     -2.55400      0.400000           0   0.00000       0.00000    
      8010 IM1H     401      IM1H     H4       HDR5D    0.195000       1.00800           0   0.00000       0.00000    
      8011 IM1H     401      IM1H     C3       CD2R5D    2.50700       11.6110           0  -1.08300       1.10000    
      8012 IM1H     401      IM1H     DC3      DRUD     -2.55400      0.400000           0   0.00000       0.00000    
      8013 IM1H     401      IM1H     H5       HDR5D    0.192000       1.00800           0   0.00000       0.00000    
      8014 IM1H     401      IM1H     C4       CD2R5E    2.72410       11.6110           0  -1.25300       1.20000    
      8015 IM1H     401      IM1H     DC4      DRUD     -2.74710      0.400000           0   0.00000       0.00000    
      8016 IM1H     401      IM1H     H6       HDR5E    0.203000       1.00800           0   0.00000       0.00000    
      8017 IM1H     401      IM1H     N2       ND2R5C    2.04220       13.6070           0 -0.803000       1.00000    
      8018 IM1H     401      IM1H     DN2      DRUD     -2.19920      0.400000           0   0.00000       0.00000    
      8019 IM1H     401      IM1H     H7       HDP1A    0.363000       1.00800           0   0.00000       0.00000    
      8020 IM1H     401      IM1H     LPN21    LPD       0.00000       0.00000          -1   0.00000       0.00000    
      8021 IM1H     402      IM1H     C1       CD33F     2.48500       11.6110           0  -1.18100       1.10000    
      8022 IM1H     402      IM1H     DC1      DRUD     -2.66700      0.400000           0   0.00000       0.00000    
      8023 IM1H     402      IM1H     H1       HDA3A    0.135000       1.00800           0   0.00000       0.00000    
      8024 IM1H     402      IM1H     H2       HDA3A    0.135000       1.00800           0   0.00000       0.00000    
      8025 IM1H     402      IM1H     H3       HDA3A    0.135000       1.00800           0   0.00000       0.00000    
      8026 IM1H     402      IM1H     N1       ND2R5C    2.35720       13.6070           0 -0.803000       1.00000    
      8027 IM1H     402      IM1H     DN1      DRUD     -2.19920      0.400000           0   0.00000       0.00000    
      8028 IM1H     402      IM1H     C2       CD2R5D    2.44700       11.6110           0  -1.08300       1.10000    
      8029 IM1H     402      IM1H     DC2      DRUD     -2.55400      0.400000           0   0.00000       0.00000    
      8030 IM1H     402      IM1H     H4       HDR5D    0.195000       1.00800           0   0.00000       0.00000    
      8031 IM1H     402      IM1H     C3       CD2R5D    2.50700       11.6110           0  -1.08300       1.10000    
      8032 IM1H     402      IM1H     DC3      DRUD     -2.55400      0.400000           0   0.00000       0.00000    
      8033 IM1H     402      IM1H     H5       HDR5D    0.192000       1.00800           0   0.00000       0.00000    
      8034 IM1H     402      IM1H     C4       CD2R5E    2.72410       11.6110           0  -1.25300       1.20000    
      8035 IM1H     402      IM1H     DC4      DRUD     -2.74710      0.400000           0   0.00000       0.00000    
      8036 IM1H     402      IM1H     H6       HDR5E    0.203000       1.00800           0   0.00000       0.00000    
      8037 IM1H     402      IM1H     N2       ND2R5C    2.04220       13.6070           0 -0.803000       1.00000    
      8038 IM1H     402      IM1H     DN2      DRUD     -2.19920      0.400000           0   0.00000       0.00000    
      8039 IM1H     402      IM1H     H7       HDP1A    0.363000       1.00800           0   0.00000       0.00000    
      8040 IM1H     402      IM1H     LPN21    LPD       0.00000       0.00000          -1   0.00000       0.00000    
      8041 IM1H     403      IM1H     C1       CD33F     2.48500       11.6110           0  -1.18100       1.10000    
      8042 IM1H     403      IM1H     DC1      DRUD     -2.66700      0.400000           0   0.00000       0.00000    
      8043 IM1H     403      IM1H     H1       HDA3A    0.135000       1.00800           0   0.00000       0.00000    
      8044 IM1H     403      IM1H     H2       HDA3A    0.135000       1.00800           0   0.00000       0.00000    
      8045 IM1H     403      IM1H     H3       HDA3A    0.135000       1.00800           0   0.00000       0.00000    
      8046 IM1H     403      IM1H     N1       ND2R5C    2.35720       13.6070           0 -0.803000       1.00000    
      8047 IM1H     403      IM1H     DN1      DRUD     -2.19920      0.400000           0   0.00000       0.00000    
      8048 IM1H     403      IM1H     C2       CD2R5D    2.44700       11.6110           0  -1.08300       1.10000    
      8049 IM1H     403      IM1H     DC2      DRUD     -2.55400      0.400000           0   0.00000       0.00000    
      8050 IM1H     403      IM1H     H4       HDR5D    0.195000       1.00800           0   0.00000       0.00000    
      8051 IM1H     403      IM1H     C3       CD2R5D    2.50700       11.6110           0  -1.08300       1.10000    
      8052 IM1H     403      IM1H     DC3      DRUD     -2.55400      0.400000           0   0.00000       0.00000    
      8053 IM1H     403      IM1H     H5       HDR5D    0.192000       1.00800           0   0.00000       0.00000    
      8054 IM1H     403      IM1H     C4       CD2R5E    2.72410       11.6110           0  -1.25300       1.20000    
      8055 IM1H     403      IM1H     DC4      DRUD     -2.74710      0.400000           0   0.00000       0.00000    
      8056 IM1H     403      IM1H     H6       HDR5E    0.203000       1.00800           0   0.00000       0.00000    
      8057 IM1H     403      IM1H     N2       ND2R5C    2.04220       13.6070           0 -0.803000       1.00000    
      8058 IM1H     403      IM1H     DN2      DRUD     -2.19920      0.400000           0   0.00000       0.00000    
      8059 IM1H     403      IM1H     H7       HDP1A    0.363000       1.00800           0   0.00000       0.00000    
      8060 IM1H     403      IM1H     LPN21    LPD       0.00000       0.00000          -1   0.00000       0.00000    
      8061 IM1H     404      IM1H     C1       CD33F     2.48500       11.6110           0  -1.18100       1.10000    
      8062 IM1H     404      IM1H     DC1      DRUD     -2.66700      0.400000           0   0.00000       0.00000    
      8063 IM1H     404      IM1H     H1       HDA3A    0.135000       1.00800           0   0.00000       0.00000    
      8064 IM1H     404      IM1H     H2       HDA3A    0.135000       1.00800           0   0.00000       0.00000    
      8065 IM1H     404      IM1H     H3       HDA3A    0.135000       1.00800           0   0.00000       0.00000    
      8066 IM1H     404      IM1H     N1       ND2R5C    2.35720       13.6070           0 -0.803000       1.00000    
      8067 IM1H     404      IM1H     DN1      DRUD     -2.19920      0.400000           0   0.00000       0.00000    
      8068 IM1H     404      IM1H     C2       CD2R5D    2.44700       11.6110           0  -1.08300       1.10000    
      8069 IM1H     404      IM1H     DC2      DRUD     -2.55400      0.400000           0   0.00000       0.00000    
      8070 IM1H     404      IM1H     H4       HDR5D    0.195000       1.00800           0   0.00000       0.00000    
      8071 IM1H     404      IM1H     C3       CD2R5D    2.50700       11.6110           0  -1.08300       1.10000    
      8072 IM1H     404      IM1H     DC3      DRUD     -2.55400      0.400000           0   0.00000       0.00000    
      8073 IM1H     404      IM1H     H5       HDR5D    0.192000       1.00800           0   0.00000       0.00000    
      8074 IM1H     404      IM1H     C4       CD2R5E    2.72410       11.6110           0  -1.25300       1.20000    
      8075 IM1H     404      IM1H     DC4      DRUD     -2.74710      0.400000           0   0.00000       0.00000    
      8076 IM1H     404      IM1H     H6       HDR5E    0.203000       1.00800           0   0.00000       0.00000    
      8077 IM1H     404      IM1H     N2       ND2R5C    2.04220       13.6070           0 -0.803000       1.00000    
      8078 IM1H     404      IM1H     DN2      DRUD     -2.19920      0.400000           0   0.00000       0.00000    
      8079 IM1H     404      IM1H     H7       HDP1A    0.363000       1.00800           0   0.00000       0.00000    
      8080 IM1H     404      IM1H     LPN21    LPD       0.00000       0.00000          -1   0.00000       0.00000    
      8081 IM1H     405      IM1H     C1       CD33F     2.48500       11.6110           0  -1.18100       1.10000    
      8082 IM1H     405      IM1H     DC1      DRUD     -2.66700      0.400000           0   0.00000       0.00000    
      8083 IM1H     405      IM1H     H1       HDA3A    0.135000       1.00800           0   0.00000       0.00000    
      8084 IM1H     405      IM1H     H2       HDA3A    0.135000       1.00800           0   0.00000       0.00000    
      8085 IM1H     405      IM1H     H3       HDA3A    0.135000       1.00800           0   0.00000       0.00000    
      8086 IM1H     405      IM1H     N1       ND2R5C    2.35720       13.6070           0 -0.803000       1.00000    
      8087 IM1H     405      IM1H     DN1      DRUD     -2.19920      0.400000           0   0.00000       0.00000    
      8088 IM1H     405      IM1H     C2       CD2R5D    2.44700       11.6110           0  -1.08300       1.10000    
      8089 IM1H     405      IM1H     DC2      DRUD     -2.55400      0.400000           0   0.00000       0.00000    
      8090 IM1H     405      IM1H     H4       HDR5D    0.195000       1.00800           0   0.00000       0.00000    
      8091 IM1H     405      IM1H     C3       CD2R5D    2.50700       11.6110           0  -1.08300       1.10000    
      8092 IM1H     405      IM1H     DC3      DRUD     -2.55400      0.400000           0   0.00000       0.00000    
      8093 IM1H     405      IM1H     H5       HDR5D    0.192000       1.00800           0   0.00000       0.00000    
      8094 IM1H     405      IM1H     C4       CD2R5E    2.72410       11.6110           0  -1.25300       1.20000    
      8095 IM1H     405      IM1H     DC4      DRUD     -2.74710      0.400000           0   0.00000       0.00000    
      8096 IM1H     405      IM1H     H6       HDR5E    0.203000       1.00800           0   0.00000       0.00000    
      8097 IM1H     405      IM1H     N2       ND2R5C    2.04220       13.6070           0 -0.803000       1.00000    
      8098 IM1H     405      IM1H     DN2      DRUD     -2.19920      0.400000           0   0.00000       0.00000    
      8099 IM1H     405      IM1H     H7       HDP1A    0.363000       1.00800           0   0.00000       0.00000    
      8100 IM1H     405      IM1H     LPN21    LPD       0.00000       0.00000          -1   0.00000       0.00000    
      8101 IM1H     406      IM1H     C1       CD33F     2.48500       11.6110           0  -1.18100       1.10000    
      8102 IM1H     406      IM1H     DC1      DRUD     -2.66700      0.400000           0   0.00000       0.00000    
      8103 IM1H     406      IM1H     H1       HDA3A    0.135000       1.00800           0   0.00000       0.00000    
      8104 IM1H     406      IM1H     H2       HDA3A    0.135000       1.00800           0   0.00000       0.00000    
      8105 IM1H     406      IM1H     H3       HDA3A    0.135000       1.00800           0   0.00000       0.00000    
      8106 IM1H     406      IM1H     N1       ND2R5C    2.35720       13.6070           0 -0.803000       1.00000    
      8107 IM1H     406      IM1H     DN1      DRUD     -2.19920      0.400000           0   0.00000       0.00000    
      8108 IM1H     406      IM1H     C2       CD2R5D    2.44700       11.6110           0  -1.08300       1.10000    
      8109 IM1H     406      IM1H     DC2      DRUD     -2.55400      0.400000           0   0.00000       0.00000    
      8110 IM1H     406      IM1H     H4       HDR5D    0.195000       1.00800           0   0.00000       0.00000    
      8111 IM1H     406      IM1H     C3       CD2R5D    2.50700       11.6110           0  -1.08300       1.10000    
      8112 IM1H     406      IM1H     DC3      DRUD     -2.55400      0.400000           0   0.00000       0.00000    
      8113 IM1H     406      IM1H     H5       HDR5D    0.192000       1.00800           0   0.00000       0.00000    
      8114 IM1H     406      IM1H     C4       CD2R5E    2.72410       11.6110           0  -1.25300       1.20000    
      8115 IM1H     406      IM1H     DC4      DRUD     -2.74710      0.400000           0   0.00000       0.00000    
      8116 IM1H     406      IM1H     H6       HDR5E    0.203000       1.00800           0   0.00000       0.00000    
      8117 IM1H     406      IM1H     N2       ND2R5C    2.04220       13.6070           0 -0.803000       1.00000    
      8118 IM1H     406      IM1H     DN2      DRUD     -2.19920      0.400000           0   0.00000       0.00000    
      8119 IM1H     406      IM1H     H7       HDP1A    0.363000       1.00800           0   0.00000       0.00000    
      8120 IM1H     406      IM1H     LPN21    LPD       0.00000       0.00000          -1   0.00000       0.00000    
      8121 IM1H     407      IM1H     C1       CD33F     2.48500       11.6110           0  -1.18100       1.10000    
      8122 IM1H     407      IM1H     DC1      DRUD     -2.66700      0.400000           0   0.00000       0.00000    
      8123 IM1H     407      IM1H     H1       HDA3A    0.135000       1.00800           0   0.00000       0.00000    
      8124 IM1H     407      IM1H     H2       HDA3A    0.135000       1.00800           0   0.00000       0.00000    
      8125 IM1H     407      IM1H     H3       HDA3A    0.135000       1.00800           0   0.00000       0.00000    
      8126 IM1H     407      IM1H     N1       ND2R5C    2.35720       13.6070           0 -0.803000       1.00000    
      8127 IM1H     407      IM1H     DN1      DRUD     -2.19920      0.400000           0   0.00000       0.00000    
      8128 IM1H     407      IM1H     C2       CD2R5D    2.44700       11.6110           0  -1.08300       1.10000    
      8129 IM1H     407      IM1H     DC2      DRUD     -2.55400      0.400000           0   0.00000       0.00000    
      8130 IM1H     407      IM1H     H4       HDR5D    0.195000       1.00800           0   0.00000       0.00000    
      8131 IM1H     407      IM1H     C3       CD2R5D    2.50700       11.6110           0  -1.08300       1.10000    
      8132 IM1H     407      IM1H     DC3      DRUD     -2.55400      0.400000           0   0.00000       0.00000    
      8133 IM1H     407      IM1H     H5       HDR5D    0.192000       1.00800           0   0.00000       0.00000    
      8134 IM1H     407      IM1H     C4       CD2R5E    2.72410       11.6110           0  -1.25300       1.20000    
      8135 IM1H     407      IM1H     DC4      DRUD     -2.74710      0.400000           0   0.00000       0.00000    
      8136 IM1H     407      IM1H     H6       HDR5E    0.203000       1.00800           0   0.00000       0.00000    
      8137 IM1H     407      IM1H     N2       ND2R5C    2.04220       13.6070           0 -0.803000       1.00000    
      8138 IM1H     407      IM1H     DN2      DRUD     -2.19920      0.400000           0   0.00000       0.00000    
      8139 IM1H     407      IM1H     H7       HDP1A    0.363000       1.00800           0   0.00000       0.00000    
      8140 IM1H     407      IM1H     LPN21    LPD       0.00000       0.00000          -1   0.00000       0.00000    
      8141 IM1H     408      IM1H     C1       CD33F     2.48500       11.6110           0  -1.18100       1.10000    
      8142 IM1H     408      IM1H     DC1      DRUD     -2.66700      0.400000           0   0.00000       0.00000    
      8143 IM1H     408      IM1H     H1       HDA3A    0.135000       1.00800           0   0.00000       0.00000    
      8144 IM1H     408      IM1H     H2       HDA3A    0.135000       1.00800           0   0.00000       0.00000    
      8145 IM1H     408      IM1H     H3       HDA3A    0.135000       1.00800           0   0.00000       0.00000    
      8146 IM1H     408      IM1H     N1       ND2R5C    2.35720       13.6070           0 -0.803000       1.00000    
      8147 IM1H     408      IM1H     DN1      DRUD     -2.19920      0.400000           0   0.00000       0.00000    
      8148 IM1H     408      IM1H     C2       CD2R5D    2.44700       11.6110           0  -1.08300       1.10000    
      8149 IM1H     408      IM1H     DC2      DRUD     -2.55400      0.400000           0   0.00000       0.00000    
      8150 IM1H     408      IM1H     H4       HDR5D    0.195000       1.00800           0   0.00000       0.00000    
      8151 IM1H     408      IM1H     C3       CD2R5D    2.50700       11.6110           0  -1.08300       1.10000    
      8152 IM1H     408      IM1H     DC3      DRUD     -2.55400      0.400000           0   0.00000       0.00000    
      8153 IM1H     408      IM1H     H5       HDR5D    0.192000       1.00800           0   0.00000       0.00000    
      8154 IM1H     408      IM1H     C4       CD2R5E    2.72410       11.6110           0  -1.25300       1.20000    
      8155 IM1H     408      IM1H     DC4      DRUD     -2.74710      0.400000           0   0.00000       0.00000    
      8156 IM1H     408      IM1H     H6       HDR5E    0.203000       1.00800           0   0.00000       0.00000    
      8157 IM1H     408      IM1H     N2       ND2R5C    2.04220       13.6070           0 -0.803000       1.00000    
      8158 IM1H     408      IM1H     DN2      DRUD     -2.19920      0.400000           0   0.00000       0.00000    
      8159 IM1H     408      IM1H     H7       HDP1A    0.363000       1.00800           0   0.00000       0.00000    
      8160 IM1H     408      IM1H     LPN21    LPD       0.00000       0.00000          -1   0.00000       0.00000    
      8161 IM1H     409      IM1H     C1       CD33F     2.48500       11.6110           0  -1.18100       1.10000    
      8162 IM1H     409      IM1H     DC1      DRUD     -2.66700      0.400000           0   0.00000       0.00000    
      8163 IM1H     409      IM1H     H1       HDA3A    0.135000       1.00800           0   0.00000       0.00000    
      8164 IM1H     409      IM1H     H2       HDA3A    0.135000       1.00800           0   0.00000       0.00000    
      8165 IM1H     409      IM1H     H3       HDA3A    0.135000       1.00800           0   0.00000       0.00000    
      8166 IM1H     409      IM1H     N1       ND2R5C    2.35720       13.6070           0 -0.803000       1.00000    
      8167 IM1H     409      IM1H     DN1      DRUD     -2.19920      0.400000           0   0.00000       0.00000    
      8168 IM1H     409      IM1H     C2       CD2R5D    2.44700       11.6110           0  -1.08300       1.10000    
      8169 IM1H     409      IM1H     DC2      DRUD     -2.55400      0.400000           0   0.00000       0.00000    
      8170 IM1H     409      IM1H     H4       HDR5D    0.195000       1.00800           0   0.00000       0.00000    
      8171 IM1H     409      IM1H     C3       CD2R5D    2.50700       11.6110           0  -1.08300       1.10000    
      8172 IM1H     409      IM1H     DC3      DRUD     -2.55400      0.400000           0   0.00000       0.00000    
      8173 IM1H     409      IM1H     H5       HDR5D    0.192000       1.00800           0   0.00000       0.00000    
      8174 IM1H     409      IM1H     C4       CD2R5E    2.72410       11.6110           0  -1.25300       1.20000    
      8175 IM1H     409      IM1H     DC4      DRUD     -2.74710      0.400000           0   0.00000       0.00000    
      8176 IM1H     409      IM1H     H6       HDR5E    0.203000       1.00800           0   0.00000       0.00000    
      8177 IM1H     409      IM1H     N2       ND2R5C    2.04220       13.6070           0 -0.803000       1.00000    
      8178 IM1H     409      IM1H     DN2      DRUD     -2.19920      0.400000           0   0.00000       0.00000    
      8179 IM1H     409      IM1H     H7       HDP1A    0.363000       1.00800           0   0.00000       0.00000    
      8180 IM1H     409      IM1H     LPN21    LPD       0.00000       0.00000          -1   0.00000       0.00000    
      8181 IM1H     410      IM1H     C1       CD33F     2.48500       11.6110           0  -1.18100       1.10000    
      8182 IM1H     410      IM1H     DC1      DRUD     -2.66700      0.400000           0   0.00000       0.00000    
      8183 IM1H     410      IM1H     H1       HDA3A    0.135000       1.00800           0   0.00000       0.00000    
      8184 IM1H     410      IM1H     H2       HDA3A    0.135000       1.00800           0   0.00000       0.00000    
      8185 IM1H     410      IM1H     H3       HDA3A    0.135000       1.00800           0   0.00000       0.00000    
      8186 IM1H     410      IM1H     N1       ND2R5C    2.35720       13.6070           0 -0.803000       1.00000    
      8187 IM1H     410      IM1H     DN1      DRUD     -2.19920      0.400000           0   0.00000       0.00000    
      8188 IM1H     410      IM1H     C2       CD2R5D    2.44700       11.6110           0  -1.08300       1.10000    
      8189 IM1H     410      IM1H     DC2      DRUD     -2.55400      0.400000           0   0.00000       0.00000    
      8190 IM1H     410      IM1H     H4       HDR5D    0.195000       1.00800           0   0.00000       0.00000    
      8191 IM1H     410      IM1H     C3       CD2R5D    2.50700       11.6110           0  -1.08300       1.10000    
      8192 IM1H     410      IM1H     DC3      DRUD     -2.55400      0.400000           0   0.00000       0.00000    
      8193 IM1H     410      IM1H     H5       HDR5D    0.192000       1.00800           0   0.00000       0.00000    
      8194 IM1H     410      IM1H     C4       CD2R5E    2.72410       11.6110           0  -1.25300       1.20000    
      8195 IM1H     410      IM1H     DC4      DRUD     -2.74710      0.400000           0   0.00000       0.00000    
      8196 IM1H     410      IM1H     H6       HDR5E    0.203000       1.00800           0   0.00000       0.00000    
      8197 IM1H     410      IM1H     N2       ND2R5C    2.04220       13.6070           0 -0.803000       1.00000    
      8198 IM1H     410      IM1H     DN2      DRUD     -2.19920      0.400000           0   0.00000       0.00000    
      8199 IM1H     410      IM1H     H7       HDP1A    0.363000       1.00800           0   0.00000       0.00000    
      8200 IM1H     410      IM1H     LPN21    LPD       0.00000       0.00000          -1   0.00000       0.00000    
      8201 IM1H     411      IM1H     C1       CD33F     2.48500       11.6110           0  -1.18100       1.10000    
      8202 IM1H     411      IM1H     DC1      DRUD     -2.66700      0.400000           0   0.00000       0.00000    
      8203 IM1H     411      IM1H     H1       HDA3A    0.135000       1.00800           0   0.00000       0.00000    
      8204 IM1H     411      IM1H     H2       HDA3A    0.135000       1.00800           0   0.00000       0.00000    
      8205 IM1H     411      IM1H     H3       HDA3A    0.135000       1.00800           0   0.00000       0.00000    
      8206 IM1H     411      IM1H     N1       ND2R5C    2.35720       13.6070           0 -0.803000       1.00000    
      8207 IM1H     411      IM1H     DN1      DRUD     -2.19920      0.400000           0   0.00000       0.00000    
      8208 IM1H     411      IM1H     C2       CD2R5D    2.44700       11.6110           0  -1.08300       1.10000    
      8209 IM1H     411      IM1H     DC2      DRUD     -2.55400      0.400000           0   0.00000       0.00000    
      8210 IM1H     411      IM1H     H4       HDR5D    0.195000       1.00800           0   0.00000       0.00000    
      8211 IM1H     411      IM1H     C3       CD2R5D    2.50700       11.6110           0  -1.08300       1.10000    
      8212 IM1H     411      IM1H     DC3      DRUD     -2.55400      0.400000           0   0.00000       0.00000    
      8213 IM1H     411      IM1H     H5       HDR5D    0.192000       1.00800           0   0.00000       0.00000    
      8214 IM1H     411      IM1H     C4       CD2R5E    2.72410       11.6110           0  -1.25300       1.20000    
      8215 IM1H     411      IM1H     DC4      DRUD     -2.74710      0.400000           0   0.00000       0.00000    
      8216 IM1H     411      IM1H     H6       HDR5E    0.203000       1.00800           0   0.00000       0.00000    
      8217 IM1H     411      IM1H     N2       ND2R5C    2.04220       13.6070           0 -0.803000       1.00000    
      8218 IM1H     411      IM1H     DN2      DRUD     -2.19920      0.400000           0   0.00000       0.00000    
      8219 IM1H     411      IM1H     H7       HDP1A    0.363000       1.00800           0   0.00000       0.00000    
      8220 IM1H     411      IM1H     LPN21    LPD       0.00000       0.00000          -1   0.00000       0.00000    
      8221 IM1H     412      IM1H     C1       CD33F     2.48500       11.6110           0  -1.18100       1.10000    
      8222 IM1H     412      IM1H     DC1      DRUD     -2.66700      0.400000           0   0.00000       0.00000    
      8223 IM1H     412      IM1H     H1       HDA3A    0.135000       1.00800           0   0.00000       0.00000    
      8224 IM1H     412      IM1H     H2       HDA3A    0.135000       1.00800           0   0.00000       0.00000    
      8225 IM1H     412      IM1H     H3       HDA3A    0.135000       1.00800           0   0.00000       0.00000    
      8226 IM1H     412      IM1H     N1       ND2R5C    2.35720       13.6070           0 -0.803000       1.00000    
      8227 IM1H     412      IM1H     DN1      DRUD     -2.19920      0.400000           0   0.00000       0.00000    
      8228 IM1H     412      IM1H     C2       CD2R5D    2.44700       11.6110           0  -1.08300       1.10000    
      8229 IM1H     412      IM1H     DC2      DRUD     -2.55400      0.400000           0   0.00000       0.00000    
      8230 IM1H     412      IM1H     H4       HDR5D    0.195000       1.00800           0   0.00000       0.00000    
      8231 IM1H     412      IM1H     C3       CD2R5D    2.50700       11.6110           0  -1.08300       1.10000    
      8232 IM1H     412      IM1H     DC3      DRUD     -2.55400      0.400000           0   0.00000       0.00000    
      8233 IM1H     412      IM1H     H5       HDR5D    0.192000       1.00800           0   0.00000       0.00000    
      8234 IM1H     412      IM1H     C4       CD2R5E    2.72410       11.6110           0  -1.25300       1.20000    
      8235 IM1H     412      IM1H     DC4      DRUD     -2.74710      0.400000           0   0.00000       0.00000    
      8236 IM1H     412      IM1H     H6       HDR5E    0.203000       1.00800           0   0.00000       0.00000    
      8237 IM1H     412      IM1H     N2       ND2R5C    2.04220       13.6070           0 -0.803000       1.00000    
      8238 IM1H     412      IM1H     DN2      DRUD     -2.19920      0.400000           0   0.00000       0.00000    
      8239 IM1H     412      IM1H     H7       HDP1A    0.363000       1.00800           0   0.00000       0.00000    
      8240 IM1H     412      IM1H     LPN21    LPD       0.00000       0.00000          -1   0.00000       0.00000    
      8241 IM1H     413      IM1H     C1       CD33F     2.48500       11.6110           0  -1.18100       1.10000    
      8242 IM1H     413      IM1H     DC1      DRUD     -2.66700      0.400000           0   0.00000       0.00000    
      8243 IM1H     413      IM1H     H1       HDA3A    0.135000       1.00800           0   0.00000       0.00000    
      8244 IM1H     413      IM1H     H2       HDA3A    0.135000       1.00800           0   0.00000       0.00000    
      8245 IM1H     413      IM1H     H3       HDA3A    0.135000       1.00800           0   0.00000       0.00000    
      8246 IM1H     413      IM1H     N1       ND2R5C    2.35720       13.6070           0 -0.803000       1.00000    
      8247 IM1H     413      IM1H     DN1      DRUD     -2.19920      0.400000           0   0.00000       0.00000    
      8248 IM1H     413      IM1H     C2       CD2R5D    2.44700       11.6110           0  -1.08300       1.10000    
      8249 IM1H     413      IM1H     DC2      DRUD     -2.55400      0.400000           0   0.00000       0.00000    
      8250 IM1H     413      IM1H     H4       HDR5D    0.195000       1.00800           0   0.00000       0.00000    
      8251 IM1H     413      IM1H     C3       CD2R5D    2.50700       11.6110           0  -1.08300       1.10000    
      8252 IM1H     413      IM1H     DC3      DRUD     -2.55400      0.400000           0   0.00000       0.00000    
      8253 IM1H     413      IM1H     H5       HDR5D    0.192000       1.00800           0   0.00000       0.00000    
      8254 IM1H     413      IM1H     C4       CD2R5E    2.72410       11.6110           0  -1.25300       1.20000    
      8255 IM1H     413      IM1H     DC4      DRUD     -2.74710      0.400000           0   0.00000       0.00000    
      8256 IM1H     413      IM1H     H6       HDR5E    0.203000       1.00800           0   0.00000       0.00000    
      8257 IM1H     413      IM1H     N2       ND2R5C    2.04220       13.6070           0 -0.803000       1.00000    
      8258 IM1H     413      IM1H     DN2      DRUD     -2.19920      0.400000           0   0.00000       0.00000    
      8259 IM1H     413      IM1H     H7       HDP1A    0.363000       1.00800           0   0.00000       0.00000    
      8260 IM1H     413      IM1H     LPN21    LPD       0.00000       0.00000          -1   0.00000       0.00000    
      8261 IM1H     414      IM1H     C1       CD33F     2.48500       11.6110           0  -1.18100       1.10000    
      8262 IM1H     414      IM1H     DC1      DRUD     -2.66700      0.400000           0   0.00000       0.00000    
      8263 IM1H     414      IM1H     H1       HDA3A    0.135000       1.00800           0   0.00000       0.00000    
      8264 IM1H     414      IM1H     H2       HDA3A    0.135000       1.00800           0   0.00000       0.00000    
      8265 IM1H     414      IM1H     H3       HDA3A    0.135000       1.00800           0   0.00000       0.00000    
      8266 IM1H     414      IM1H     N1       ND2R5C    2.35720       13.6070           0 -0.803000       1.00000    
      8267 IM1H     414      IM1H     DN1      DRUD     -2.19920      0.400000           0   0.00000       0.00000    
      8268 IM1H     414      IM1H     C2       CD2R5D    2.44700       11.6110           0  -1.08300       1.10000    
      8269 IM1H     414      IM1H     DC2      DRUD     -2.55400      0.400000           0   0.00000       0.00000    
      8270 IM1H     414      IM1H     H4       HDR5D    0.195000       1.00800           0   0.00000       0.00000    
      8271 IM1H     414      IM1H     C3       CD2R5D    2.50700       11.6110           0  -1.08300       1.10000    
      8272 IM1H     414      IM1H     DC3      DRUD     -2.55400      0.400000           0   0.00000       0.00000    
      8273 IM1H     414      IM1H     H5       HDR5D    0.192000       1.00800           0   0.00000       0.00000    
      8274 IM1H     414      IM1H     C4       CD2R5E    2.72410       11.6110           0  -1.25300       1.20000    
      8275 IM1H     414      IM1H     DC4      DRUD     -2.74710      0.400000           0   0.00000       0.00000    
      8276 IM1H     414      IM1H     H6       HDR5E    0.203000       1.00800           0   0.00000       0.00000    
      8277 IM1H     414      IM1H     N2       ND2R5C    2.04220       13.6070           0 -0.803000       1.00000    
      8278 IM1H     414      IM1H     DN2      DRUD     -2.19920      0.400000           0   0.00000       0.00000    
      8279 IM1H     414      IM1H     H7       HDP1A    0.363000       1.00800           0   0.00000       0.00000    
      8280 IM1H     414      IM1H     LPN21    LPD       0.00000       0.00000          -1   0.00000       0.00000    
      8281 IM1H     415      IM1H     C1       CD33F     2.48500       11.6110           0  -1.18100       1.10000    
      8282 IM1H     415      IM1H     DC1      DRUD     -2.66700      0.400000           0   0.00000       0.00000    
      8283 IM1H     415      IM1H     H1       HDA3A    0.135000       1.00800           0   0.00000       0.00000    
      8284 IM1H     415      IM1H     H2       HDA3A    0.135000       1.00800           0   0.00000       0.00000    
      8285 IM1H     415      IM1H     H3       HDA3A    0.135000       1.00800           0   0.00000       0.00000    
      8286 IM1H     415      IM1H     N1       ND2R5C    2.35720       13.6070           0 -0.803000       1.00000    
      8287 IM1H     415      IM1H     DN1      DRUD     -2.19920      0.400000           0   0.00000       0.00000    
      8288 IM1H     415      IM1H     C2       CD2R5D    2.44700       11.6110           0  -1.08300       1.10000    
      8289 IM1H     415      IM1H     DC2      DRUD     -2.55400      0.400000           0   0.00000       0.00000    
      8290 IM1H     415      IM1H     H4       HDR5D    0.195000       1.00800           0   0.00000       0.00000    
      8291 IM1H     415      IM1H     C3       CD2R5D    2.50700       11.6110           0  -1.08300       1.10000    
      8292 IM1H     415      IM1H     DC3      DRUD     -2.55400      0.400000           0   0.00000       0.00000    
      8293 IM1H     415      IM1H     H5       HDR5D    0.192000       1.00800           0   0.00000       0.00000    
      8294 IM1H     415      IM1H     C4       CD2R5E    2.72410       11.6110           0  -1.25300       1.20000    
      8295 IM1H     415      IM1H     DC4      DRUD     -2.74710      0.400000           0   0.00000       0.00000    
      8296 IM1H     415      IM1H     H6       HDR5E    0.203000       1.00800           0   0.00000       0.00000    
      8297 IM1H     415      IM1H     N2       ND2R5C    2.04220       13.6070           0 -0.803000       1.00000    
      8298 IM1H     415      IM1H     DN2      DRUD     -2.19920      0.400000           0   0.00000       0.00000    
      8299 IM1H     415      IM1H     H7       HDP1A    0.363000       1.00800           0   0.00000       0.00000    
      8300 IM1H     415      IM1H     LPN21    LPD       0.00000       0.00000          -1   0.00000       0.00000    
      8301 IM1H     416      IM1H     C1       CD33F     2.48500       11.6110           0  -1.18100       1.10000    
      8302 IM1H     416      IM1H     DC1      DRUD     -2.66700      0.400000           0   0.00000       0.00000    
      8303 IM1H     416      IM1H     H1       HDA3A    0.135000       1.00800           0   0.00000       0.00000    
      8304 IM1H     416      IM1H     H2       HDA3A    0.135000       1.00800           0   0.00000       0.00000    
      8305 IM1H     416      IM1H     H3       HDA3A    0.135000       1.00800           0   0.00000       0.00000    
      8306 IM1H     416      IM1H     N1       ND2R5C    2.35720       13.6070           0 -0.803000       1.00000    
      8307 IM1H     416      IM1H     DN1      DRUD     -2.19920      0.400000           0   0.00000       0.00000    
      8308 IM1H     416      IM1H     C2       CD2R5D    2.44700       11.6110           0  -1.08300       1.10000    
      8309 IM1H     416      IM1H     DC2      DRUD     -2.55400      0.400000           0   0.00000       0.00000    
      8310 IM1H     416      IM1H     H4       HDR5D    0.195000       1.00800           0   0.00000       0.00000    
      8311 IM1H     416      IM1H     C3       CD2R5D    2.50700       11.6110           0  -1.08300       1.10000    
      8312 IM1H     416      IM1H     DC3      DRUD     -2.55400      0.400000           0   0.00000       0.00000    
      8313 IM1H     416      IM1H     H5       HDR5D    0.192000       1.00800           0   0.00000       0.00000    
      8314 IM1H     416      IM1H     C4       CD2R5E    2.72410       11.6110           0  -1.25300       1.20000    
      8315 IM1H     416      IM1H     DC4      DRUD     -2.74710      0.400000           0   0.00000       0.00000    
      8316 IM1H     416      IM1H     H6       HDR5E    0.203000       1.00800           0   0.00000       0.00000    
      8317 IM1H     416      IM1H     N2       ND2R5C    2.04220       13.6070           0 -0.803000       1.00000    
      8318 IM1H     416      IM1H     DN2      DRUD     -2.19920      0.400000           0   0.00000       0.00000    
      8319 IM1H     416      IM1H     H7       HDP1A    0.363000       1.00800           0   0.00000       0.00000    
      8320 IM1H     416      IM1H     LPN21    LPD       0.00000       0.00000          -1   0.00000       0.00000    
      8321 IM1H     417      IM1H     C1       CD33F     2.48500       11.6110           0  -1.18100       1.10000    
      8322 IM1H     417      IM1H     DC1      DRUD     -2.66700      0.400000           0   0.00000       0.00000    
      8323 IM1H     417      IM1H     H1       HDA3A    0.135000       1.00800           0   0.00000       0.00000    
      8324 IM1H     417      IM1H     H2       HDA3A    0.135000       1.00800           0   0.00000       0.00000    
      8325 IM1H     417      IM1H     H3       HDA3A    0.135000       1.00800           0   0.00000       0.00000    
      8326 IM1H     417      IM1H     N1       ND2R5C    2.35720       13.6070           0 -0.803000       1.00000    
      8327 IM1H     417      IM1H     DN1      DRUD     -2.19920      0.400000           0   0.00000       0.00000    
      8328 IM1H     417      IM1H     C2       CD2R5D    2.44700       11.6110           0  -1.08300       1.10000    
      8329 IM1H     417      IM1H     DC2      DRUD     -2.55400      0.400000           0   0.00000       0.00000    
      8330 IM1H     417      IM1H     H4       HDR5D    0.195000       1.00800           0   0.00000       0.00000    
      8331 IM1H     417      IM1H     C3       CD2R5D    2.50700       11.6110           0  -1.08300       1.10000    
      8332 IM1H     417      IM1H     DC3      DRUD     -2.55400      0.400000           0   0.00000       0.00000    
      8333 IM1H     417      IM1H     H5       HDR5D    0.192000       1.00800           0   0.00000       0.00000    
      8334 IM1H     417      IM1H     C4       CD2R5E    2.72410       11.6110           0  -1.25300       1.20000    
      8335 IM1H     417      IM1H     DC4      DRUD     -2.74710      0.400000           0   0.00000       0.00000    
      8336 IM1H     417      IM1H     H6       HDR5E    0.203000       1.00800           0   0.00000       0.00000    
      8337 IM1H     417      IM1H     N2       ND2R5C    2.04220       13.6070           0 -0.803000       1.00000    
      8338 IM1H     417      IM1H     DN2      DRUD     -2.19920      0.400000           0   0.00000       0.00000    
      8339 IM1H     417      IM1H     H7       HDP1A    0.363000       1.00800           0   0.00000       0.00000    
      8340 IM1H     417      IM1H     LPN21    LPD       0.00000       0.00000          -1   0.00000       0.00000    
      8341 IM1H     418      IM1H     C1       CD33F     2.48500       11.6110           0  -1.18100       1.10000    
      8342 IM1H     418      IM1H     DC1      DRUD     -2.66700      0.400000           0   0.00000       0.00000    
      8343 IM1H     418      IM1H     H1       HDA3A    0.135000       1.00800           0   0.00000       0.00000    
      8344 IM1H     418      IM1H     H2       HDA3A    0.135000       1.00800           0   0.00000       0.00000    
      8345 IM1H     418      IM1H     H3       HDA3A    0.135000       1.00800           0   0.00000       0.00000    
      8346 IM1H     418      IM1H     N1       ND2R5C    2.35720       13.6070           0 -0.803000       1.00000    
      8347 IM1H     418      IM1H     DN1      DRUD     -2.19920      0.400000           0   0.00000       0.00000    
      8348 IM1H     418      IM1H     C2       CD2R5D    2.44700       11.6110           0  -1.08300       1.10000    
      8349 IM1H     418      IM1H     DC2      DRUD     -2.55400      0.400000           0   0.00000       0.00000    
      8350 IM1H     418      IM1H     H4       HDR5D    0.195000       1.00800           0   0.00000       0.00000    
      8351 IM1H     418      IM1H     C3       CD2R5D    2.50700       11.6110           0  -1.08300       1.10000    
      8352 IM1H     418      IM1H     DC3      DRUD     -2.55400      0.400000           0   0.00000       0.00000    
      8353 IM1H     418      IM1H     H5       HDR5D    0.192000       1.00800           0   0.00000       0.00000    
      8354 IM1H     418      IM1H     C4       CD2R5E    2.72410       11.6110           0  -1.25300       1.20000    
      8355 IM1H     418      IM1H     DC4      DRUD     -2.74710      0.400000           0   0.00000       0.00000    
      8356 IM1H     418      IM1H     H6       HDR5E    0.203000       1.00800           0   0.00000       0.00000    
      8357 IM1H     418      IM1H     N2       ND2R5C    2.04220       13.6070           0 -0.803000       1.00000    
      8358 IM1H     418      IM1H     DN2      DRUD     -2.19920      0.400000           0   0.00000       0.00000    
      8359 IM1H     418      IM1H     H7       HDP1A    0.363000       1.00800           0   0.00000       0.00000    
      8360 IM1H     418      IM1H     LPN21    LPD       0.00000       0.00000          -1   0.00000       0.00000    
      8361 IM1H     419      IM1H     C1       CD33F     2.48500       11.6110           0  -1.18100       1.10000    
      8362 IM1H     419      IM1H     DC1      DRUD     -2.66700      0.400000           0   0.00000       0.00000    
      8363 IM1H     419      IM1H     H1       HDA3A    0.135000       1.00800           0   0.00000       0.00000    
      8364 IM1H     419      IM1H     H2       HDA3A    0.135000       1.00800           0   0.00000       0.00000    
      8365 IM1H     419      IM1H     H3       HDA3A    0.135000       1.00800           0   0.00000       0.00000    
      8366 IM1H     419      IM1H     N1       ND2R5C    2.35720       13.6070           0 -0.803000       1.00000    
      8367 IM1H     419      IM1H     DN1      DRUD     -2.19920      0.400000           0   0.00000       0.00000    
      8368 IM1H     419      IM1H     C2       CD2R5D    2.44700       11.6110           0  -1.08300       1.10000    
      8369 IM1H     419      IM1H     DC2      DRUD     -2.55400      0.400000           0   0.00000       0.00000    
      8370 IM1H     419      IM1H     H4       HDR5D    0.195000       1.00800           0   0.00000       0.00000    
      8371 IM1H     419      IM1H     C3       CD2R5D    2.50700       11.6110           0  -1.08300       1.10000    
      8372 IM1H     419      IM1H     DC3      DRUD     -2.55400      0.400000           0   0.00000       0.00000    
      8373 IM1H     419      IM1H     H5       HDR5D    0.192000       1.00800           0   0.00000       0.00000    
      8374 IM1H     419      IM1H     C4       CD2R5E    2.72410       11.6110           0  -1.25300       1.20000    
      8375 IM1H     419      IM1H     DC4      DRUD     -2.74710      0.400000           0   0.00000       0.00000    
      8376 IM1H     419      IM1H     H6       HDR5E    0.203000       1.00800           0   0.00000       0.00000    
      8377 IM1H     419      IM1H     N2       ND2R5C    2.04220       13.6070           0 -0.803000       1.00000    
      8378 IM1H     419      IM1H     DN2      DRUD     -2.19920      0.400000           0   0.00000       0.00000    
      8379 IM1H     419      IM1H     H7       HDP1A    0.363000       1.00800           0   0.00000       0.00000    
      8380 IM1H     419      IM1H     LPN21    LPD       0.00000       0.00000          -1   0.00000       0.00000    
      8381 IM1H     420      IM1H     C1       CD33F     2.48500       11.6110           0  -1.18100       1.10000    
      8382 IM1H     420      IM1H     DC1      DRUD     -2.66700      0.400000           0   0.00000       0.00000    
      8383 IM1H     420      IM1H     H1       HDA3A    0.135000       1.00800           0   0.00000       0.00000    
      8384 IM1H     420      IM1H     H2       HDA3A    0.135000       1.00800           0   0.00000       0.00000    
      8385 IM1H     420      IM1H     H3       HDA3A    0.135000       1.00800           0   0.00000       0.00000    
      8386 IM1H     420      IM1H     N1       ND2R5C    2.35720       13.6070           0 -0.803000       1.00000    
      8387 IM1H     420      IM1H     DN1      DRUD     -2.19920      0.400000           0   0.00000       0.00000    
      8388 IM1H     420      IM1H     C2       CD2R5D    2.44700       11.6110           0  -1.08300       1.10000    
      8389 IM1H     420      IM1H     DC2      DRUD     -2.55400      0.400000           0   0.00000       0.00000    
      8390 IM1H     420      IM1H     H4       HDR5D    0.195000       1.00800           0   0.00000       0.00000    
      8391 IM1H     420      IM1H     C3       CD2R5D    2.50700       11.6110           0  -1.08300       1.10000    
      8392 IM1H     420      IM1H     DC3      DRUD     -2.55400      0.400000           0   0.00000       0.00000    
      8393 IM1H     420      IM1H     H5       HDR5D    0.192000       1.00800           0   0.00000       0.00000    
      8394 IM1H     420      IM1H     C4       CD2R5E    2.72410       11.6110           0  -1.25300       1.20000    
      8395 IM1H     420      IM1H     DC4      DRUD     -2.74710      0.400000           0   0.00000       0.00000    
      8396 IM1H     420      IM1H     H6       HDR5E    0.203000       1.00800           0   0.00000       0.00000    
      8397 IM1H     420      IM1H     N2       ND2R5C    2.04220       13.6070           0 -0.803000       1.00000    
      8398 IM1H     420      IM1H     DN2      DRUD     -2.19920      0.400000           0   0.00000       0.00000    
      8399 IM1H     420      IM1H     H7       HDP1A    0.363000       1.00800           0   0.00000       0.00000    
      8400 IM1H     420      IM1H     LPN21    LPD       0.00000       0.00000          -1   0.00000       0.00000    
      8401 IM1H     421      IM1H     C1       CD33F     2.48500       11.6110           0  -1.18100       1.10000    
      8402 IM1H     421      IM1H     DC1      DRUD     -2.66700      0.400000           0   0.00000       0.00000    
      8403 IM1H     421      IM1H     H1       HDA3A    0.135000       1.00800           0   0.00000       0.00000    
      8404 IM1H     421      IM1H     H2       HDA3A    0.135000       1.00800           0   0.00000       0.00000    
      8405 IM1H     421      IM1H     H3       HDA3A    0.135000       1.00800           0   0.00000       0.00000    
      8406 IM1H     421      IM1H     N1       ND2R5C    2.35720       13.6070           0 -0.803000       1.00000    
      8407 IM1H     421      IM1H     DN1      DRUD     -2.19920      0.400000           0   0.00000       0.00000    
      8408 IM1H     421      IM1H     C2       CD2R5D    2.44700       11.6110           0  -1.08300       1.10000    
      8409 IM1H     421      IM1H     DC2      DRUD     -2.55400      0.400000           0   0.00000       0.00000    
      8410 IM1H     421      IM1H     H4       HDR5D    0.195000       1.00800           0   0.00000       0.00000    
      8411 IM1H     421      IM1H     C3       CD2R5D    2.50700       11.6110           0  -1.08300       1.10000    
      8412 IM1H     421      IM1H     DC3      DRUD     -2.55400      0.400000           0   0.00000       0.00000    
      8413 IM1H     421      IM1H     H5       HDR5D    0.192000       1.00800           0   0.00000       0.00000    
      8414 IM1H     421      IM1H     C4       CD2R5E    2.72410       11.6110           0  -1.25300       1.20000    
      8415 IM1H     421      IM1H     DC4      DRUD     -2.74710      0.400000           0   0.00000       0.00000    
      8416 IM1H     421      IM1H     H6       HDR5E    0.203000       1.00800           0   0.00000       0.00000    
      8417 IM1H     421      IM1H     N2       ND2R5C    2.04220       13.6070           0 -0.803000       1.00000    
      8418 IM1H     421      IM1H     DN2      DRUD     -2.19920      0.400000           0   0.00000       0.00000    
      8419 IM1H     421      IM1H     H7       HDP1A    0.363000       1.00800           0   0.00000       0.00000    
      8420 IM1H     421      IM1H     LPN21    LPD       0.00000       0.00000          -1   0.00000       0.00000    
      8421 IM1H     422      IM1H     C1       CD33F     2.48500       11.6110           0  -1.18100       1.10000    
      8422 IM1H     422      IM1H     DC1      DRUD     -2.66700      0.400000           0   0.00000       0.00000    
      8423 IM1H     422      IM1H     H1       HDA3A    0.135000       1.00800           0   0.00000       0.00000    
      8424 IM1H     422      IM1H     H2       HDA3A    0.135000       1.00800           0   0.00000       0.00000    
      8425 IM1H     422      IM1H     H3       HDA3A    0.135000       1.00800           0   0.00000       0.00000    
      8426 IM1H     422      IM1H     N1       ND2R5C    2.35720       13.6070           0 -0.803000       1.00000    
      8427 IM1H     422      IM1H     DN1      DRUD     -2.19920      0.400000           0   0.00000       0.00000    
      8428 IM1H     422      IM1H     C2       CD2R5D    2.44700       11.6110           0  -1.08300       1.10000    
      8429 IM1H     422      IM1H     DC2      DRUD     -2.55400      0.400000           0   0.00000       0.00000    
      8430 IM1H     422      IM1H     H4       HDR5D    0.195000       1.00800           0   0.00000       0.00000    
      8431 IM1H     422      IM1H     C3       CD2R5D    2.50700       11.6110           0  -1.08300       1.10000    
      8432 IM1H     422      IM1H     DC3      DRUD     -2.55400      0.400000           0   0.00000       0.00000    
      8433 IM1H     422      IM1H     H5       HDR5D    0.192000       1.00800           0   0.00000       0.00000    
      8434 IM1H     422      IM1H     C4       CD2R5E    2.72410       11.6110           0  -1.25300       1.20000    
      8435 IM1H     422      IM1H     DC4      DRUD     -2.74710      0.400000           0   0.00000       0.00000    
      8436 IM1H     422      IM1H     H6       HDR5E    0.203000       1.00800           0   0.00000       0.00000    
      8437 IM1H     422      IM1H     N2       ND2R5C    2.04220       13.6070           0 -0.803000       1.00000    
      8438 IM1H     422      IM1H     DN2      DRUD     -2.19920      0.400000           0   0.00000       0.00000    
      8439 IM1H     422      IM1H     H7       HDP1A    0.363000       1.00800           0   0.00000       0.00000    
      8440 IM1H     422      IM1H     LPN21    LPD       0.00000       0.00000          -1   0.00000       0.00000    
      8441 IM1H     423      IM1H     C1       CD33F     2.48500       11.6110           0  -1.18100       1.10000    
      8442 IM1H     423      IM1H     DC1      DRUD     -2.66700      0.400000           0   0.00000       0.00000    
      8443 IM1H     423      IM1H     H1       HDA3A    0.135000       1.00800           0   0.00000       0.00000    
      8444 IM1H     423      IM1H     H2       HDA3A    0.135000       1.00800           0   0.00000       0.00000    
      8445 IM1H     423      IM1H     H3       HDA3A    0.135000       1.00800           0   0.00000       0.00000    
      8446 IM1H     423      IM1H     N1       ND2R5C    2.35720       13.6070           0 -0.803000       1.00000    
      8447 IM1H     423      IM1H     DN1      DRUD     -2.19920      0.400000           0   0.00000       0.00000    
      8448 IM1H     423      IM1H     C2       CD2R5D    2.44700       11.6110           0  -1.08300       1.10000    
      8449 IM1H     423      IM1H     DC2      DRUD     -2.55400      0.400000           0   0.00000       0.00000    
      8450 IM1H     423      IM1H     H4       HDR5D    0.195000       1.00800           0   0.00000       0.00000    
      8451 IM1H     423      IM1H     C3       CD2R5D    2.50700       11.6110           0  -1.08300       1.10000    
      8452 IM1H     423      IM1H     DC3      DRUD     -2.55400      0.400000           0   0.00000       0.00000    
      8453 IM1H     423      IM1H     H5       HDR5D    0.192000       1.00800           0   0.00000       0.00000    
      8454 IM1H     423      IM1H     C4       CD2R5E    2.72410       11.6110           0  -1.25300       1.20000    
      8455 IM1H     423      IM1H     DC4      DRUD     -2.74710      0.400000           0   0.00000       0.00000    
      8456 IM1H     423      IM1H     H6       HDR5E    0.203000       1.00800           0   0.00000       0.00000    
      8457 IM1H     423      IM1H     N2       ND2R5C    2.04220       13.6070           0 -0.803000       1.00000    
      8458 IM1H     423      IM1H     DN2      DRUD     -2.19920      0.400000           0   0.00000       0.00000    
      8459 IM1H     423      IM1H     H7       HDP1A    0.363000       1.00800           0   0.00000       0.00000    
      8460 IM1H     423      IM1H     LPN21    LPD       0.00000       0.00000          -1   0.00000       0.00000    
      8461 IM1H     424      IM1H     C1       CD33F     2.48500       11.6110           0  -1.18100       1.10000    
      8462 IM1H     424      IM1H     DC1      DRUD     -2.66700      0.400000           0   0.00000       0.00000    
      8463 IM1H     424      IM1H     H1       HDA3A    0.135000       1.00800           0   0.00000       0.00000    
      8464 IM1H     424      IM1H     H2       HDA3A    0.135000       1.00800           0   0.00000       0.00000    
      8465 IM1H     424      IM1H     H3       HDA3A    0.135000       1.00800           0   0.00000       0.00000    
      8466 IM1H     424      IM1H     N1       ND2R5C    2.35720       13.6070           0 -0.803000       1.00000    
      8467 IM1H     424      IM1H     DN1      DRUD     -2.19920      0.400000           0   0.00000       0.00000    
      8468 IM1H     424      IM1H     C2       CD2R5D    2.44700       11.6110           0  -1.08300       1.10000    
      8469 IM1H     424      IM1H     DC2      DRUD     -2.55400      0.400000           0   0.00000       0.00000    
      8470 IM1H     424      IM1H     H4       HDR5D    0.195000       1.00800           0   0.00000       0.00000    
      8471 IM1H     424      IM1H     C3       CD2R5D    2.50700       11.6110           0  -1.08300       1.10000    
      8472 IM1H     424      IM1H     DC3      DRUD     -2.55400      0.400000           0   0.00000       0.00000    
      8473 IM1H     424      IM1H     H5       HDR5D    0.192000       1.00800           0   0.00000       0.00000    
      8474 IM1H     424      IM1H     C4       CD2R5E    2.72410       11.6110           0  -1.25300       1.20000    
      8475 IM1H     424      IM1H     DC4      DRUD     -2.74710      0.400000           0   0.00000       0.00000    
      8476 IM1H     424      IM1H     H6       HDR5E    0.203000       1.00800           0   0.00000       0.00000    
      8477 IM1H     424      IM1H     N2       ND2R5C    2.04220       13.6070           0 -0.803000       1.00000    
      8478 IM1H     424      IM1H     DN2      DRUD     -2.19920      0.400000           0   0.00000       0.00000    
      8479 IM1H     424      IM1H     H7       HDP1A    0.363000       1.00800           0   0.00000       0.00000    
      8480 IM1H     424      IM1H     LPN21    LPD       0.00000       0.00000          -1   0.00000       0.00000    
      8481 IM1H     425      IM1H     C1       CD33F     2.48500       11.6110           0  -1.18100       1.10000    
      8482 IM1H     425      IM1H     DC1      DRUD     -2.66700      0.400000           0   0.00000       0.00000    
      8483 IM1H     425      IM1H     H1       HDA3A    0.135000       1.00800           0   0.00000       0.00000    
      8484 IM1H     425      IM1H     H2       HDA3A    0.135000       1.00800           0   0.00000       0.00000    
      8485 IM1H     425      IM1H     H3       HDA3A    0.135000       1.00800           0   0.00000       0.00000    
      8486 IM1H     425      IM1H     N1       ND2R5C    2.35720       13.6070           0 -0.803000       1.00000    
      8487 IM1H     425      IM1H     DN1      DRUD     -2.19920      0.400000           0   0.00000       0.00000    
      8488 IM1H     425      IM1H     C2       CD2R5D    2.44700       11.6110           0  -1.08300       1.10000    
      8489 IM1H     425      IM1H     DC2      DRUD     -2.55400      0.400000           0   0.00000       0.00000    
      8490 IM1H     425      IM1H     H4       HDR5D    0.195000       1.00800           0   0.00000       0.00000    
      8491 IM1H     425      IM1H     C3       CD2R5D    2.50700       11.6110           0  -1.08300       1.10000    
      8492 IM1H     425      IM1H     DC3      DRUD     -2.55400      0.400000           0   0.00000       0.00000    
      8493 IM1H     425      IM1H     H5       HDR5D    0.192000       1.00800           0   0.00000       0.00000    
      8494 IM1H     425      IM1H     C4       CD2R5E    2.72410       11.6110           0  -1.25300       1.20000    
      8495 IM1H     425      IM1H     DC4      DRUD     -2.74710      0.400000           0   0.00000       0.00000    
      8496 IM1H     425      IM1H     H6       HDR5E    0.203000       1.00800           0   0.00000       0.00000    
      8497 IM1H     425      IM1H     N2       ND2R5C    2.04220       13.6070           0 -0.803000       1.00000    
      8498 IM1H     425      IM1H     DN2      DRUD     -2.19920      0.400000           0   0.00000       0.00000    
      8499 IM1H     425      IM1H     H7       HDP1A    0.363000       1.00800           0   0.00000       0.00000    
      8500 IM1H     425      IM1H     LPN21    LPD       0.00000       0.00000          -1   0.00000       0.00000    
      8501 IM1H     426      IM1H     C1       CD33F     2.48500       11.6110           0  -1.18100       1.10000    
      8502 IM1H     426      IM1H     DC1      DRUD     -2.66700      0.400000           0   0.00000       0.00000    
      8503 IM1H     426      IM1H     H1       HDA3A    0.135000       1.00800           0   0.00000       0.00000    
      8504 IM1H     426      IM1H     H2       HDA3A    0.135000       1.00800           0   0.00000       0.00000    
      8505 IM1H     426      IM1H     H3       HDA3A    0.135000       1.00800           0   0.00000       0.00000    
      8506 IM1H     426      IM1H     N1       ND2R5C    2.35720       13.6070           0 -0.803000       1.00000    
      8507 IM1H     426      IM1H     DN1      DRUD     -2.19920      0.400000           0   0.00000       0.00000    
      8508 IM1H     426      IM1H     C2       CD2R5D    2.44700       11.6110           0  -1.08300       1.10000    
      8509 IM1H     426      IM1H     DC2      DRUD     -2.55400      0.400000           0   0.00000       0.00000    
      8510 IM1H     426      IM1H     H4       HDR5D    0.195000       1.00800           0   0.00000       0.00000    
      8511 IM1H     426      IM1H     C3       CD2R5D    2.50700       11.6110           0  -1.08300       1.10000    
      8512 IM1H     426      IM1H     DC3      DRUD     -2.55400      0.400000           0   0.00000       0.00000    
      8513 IM1H     426      IM1H     H5       HDR5D    0.192000       1.00800           0   0.00000       0.00000    
      8514 IM1H     426      IM1H     C4       CD2R5E    2.72410       11.6110           0  -1.25300       1.20000    
      8515 IM1H     426      IM1H     DC4      DRUD     -2.74710      0.400000           0   0.00000       0.00000    
      8516 IM1H     426      IM1H     H6       HDR5E    0.203000       1.00800           0   0.00000       0.00000    
      8517 IM1H     426      IM1H     N2       ND2R5C    2.04220       13.6070           0 -0.803000       1.00000    
      8518 IM1H     426      IM1H     DN2      DRUD     -2.19920      0.400000           0   0.00000       0.00000    
      8519 IM1H     426      IM1H     H7       HDP1A    0.363000       1.00800           0   0.00000       0.00000    
      8520 IM1H     426      IM1H     LPN21    LPD       0.00000       0.00000          -1   0.00000       0.00000    
      8521 IM1H     427      IM1H     C1       CD33F     2.48500       11.6110           0  -1.18100       1.10000    
      8522 IM1H     427      IM1H     DC1      DRUD     -2.66700      0.400000           0   0.00000       0.00000    
      8523 IM1H     427      IM1H     H1       HDA3A    0.135000       1.00800           0   0.00000       0.00000    
      8524 IM1H     427      IM1H     H2       HDA3A    0.135000       1.00800           0   0.00000       0.00000    
      8525 IM1H     427      IM1H     H3       HDA3A    0.135000       1.00800           0   0.00000       0.00000    
      8526 IM1H     427      IM1H     N1       ND2R5C    2.35720       13.6070           0 -0.803000       1.00000    
      8527 IM1H     427      IM1H     DN1      DRUD     -2.19920      0.400000           0   0.00000       0.00000    
      8528 IM1H     427      IM1H     C2       CD2R5D    2.44700       11.6110           0  -1.08300       1.10000    
      8529 IM1H     427      IM1H     DC2      DRUD     -2.55400      0.400000           0   0.00000       0.00000    
      8530 IM1H     427      IM1H     H4       HDR5D    0.195000       1.00800           0   0.00000       0.00000    
      8531 IM1H     427      IM1H     C3       CD2R5D    2.50700       11.6110           0  -1.08300       1.10000    
      8532 IM1H     427      IM1H     DC3      DRUD     -2.55400      0.400000           0   0.00000       0.00000    
      8533 IM1H     427      IM1H     H5       HDR5D    0.192000       1.00800           0   0.00000       0.00000    
      8534 IM1H     427      IM1H     C4       CD2R5E    2.72410       11.6110           0  -1.25300       1.20000    
      8535 IM1H     427      IM1H     DC4      DRUD     -2.74710      0.400000           0   0.00000       0.00000    
      8536 IM1H     427      IM1H     H6       HDR5E    0.203000       1.00800           0   0.00000       0.00000    
      8537 IM1H     427      IM1H     N2       ND2R5C    2.04220       13.6070           0 -0.803000       1.00000    
      8538 IM1H     427      IM1H     DN2      DRUD     -2.19920      0.400000           0   0.00000       0.00000    
      8539 IM1H     427      IM1H     H7       HDP1A    0.363000       1.00800           0   0.00000       0.00000    
      8540 IM1H     427      IM1H     LPN21    LPD       0.00000       0.00000          -1   0.00000       0.00000    
      8541 IM1H     428      IM1H     C1       CD33F     2.48500       11.6110           0  -1.18100       1.10000    
      8542 IM1H     428      IM1H     DC1      DRUD     -2.66700      0.400000           0   0.00000       0.00000    
      8543 IM1H     428      IM1H     H1       HDA3A    0.135000       1.00800           0   0.00000       0.00000    
      8544 IM1H     428      IM1H     H2       HDA3A    0.135000       1.00800           0   0.00000       0.00000    
      8545 IM1H     428      IM1H     H3       HDA3A    0.135000       1.00800           0   0.00000       0.00000    
      8546 IM1H     428      IM1H     N1       ND2R5C    2.35720       13.6070           0 -0.803000       1.00000    
      8547 IM1H     428      IM1H     DN1      DRUD     -2.19920      0.400000           0   0.00000       0.00000    
      8548 IM1H     428      IM1H     C2       CD2R5D    2.44700       11.6110           0  -1.08300       1.10000    
      8549 IM1H     428      IM1H     DC2      DRUD     -2.55400      0.400000           0   0.00000       0.00000    
      8550 IM1H     428      IM1H     H4       HDR5D    0.195000       1.00800           0   0.00000       0.00000    
      8551 IM1H     428      IM1H     C3       CD2R5D    2.50700       11.6110           0  -1.08300       1.10000    
      8552 IM1H     428      IM1H     DC3      DRUD     -2.55400      0.400000           0   0.00000       0.00000    
      8553 IM1H     428      IM1H     H5       HDR5D    0.192000       1.00800           0   0.00000       0.00000    
      8554 IM1H     428      IM1H     C4       CD2R5E    2.72410       11.6110           0  -1.25300       1.20000    
      8555 IM1H     428      IM1H     DC4      DRUD     -2.74710      0.400000           0   0.00000       0.00000    
      8556 IM1H     428      IM1H     H6       HDR5E    0.203000       1.00800           0   0.00000       0.00000    
      8557 IM1H     428      IM1H     N2       ND2R5C    2.04220       13.6070           0 -0.803000       1.00000    
      8558 IM1H     428      IM1H     DN2      DRUD     -2.19920      0.400000           0   0.00000       0.00000    
      8559 IM1H     428      IM1H     H7       HDP1A    0.363000       1.00800           0   0.00000       0.00000    
      8560 IM1H     428      IM1H     LPN21    LPD       0.00000       0.00000          -1   0.00000       0.00000    
      8561 IM1H     429      IM1H     C1       CD33F     2.48500       11.6110           0  -1.18100       1.10000    
      8562 IM1H     429      IM1H     DC1      DRUD     -2.66700      0.400000           0   0.00000       0.00000    
      8563 IM1H     429      IM1H     H1       HDA3A    0.135000       1.00800           0   0.00000       0.00000    
      8564 IM1H     429      IM1H     H2       HDA3A    0.135000       1.00800           0   0.00000       0.00000    
      8565 IM1H     429      IM1H     H3       HDA3A    0.135000       1.00800           0   0.00000       0.00000    
      8566 IM1H     429      IM1H     N1       ND2R5C    2.35720       13.6070           0 -0.803000       1.00000    
      8567 IM1H     429      IM1H     DN1      DRUD     -2.19920      0.400000           0   0.00000       0.00000    
      8568 IM1H     429      IM1H     C2       CD2R5D    2.44700       11.6110           0  -1.08300       1.10000    
      8569 IM1H     429      IM1H     DC2      DRUD     -2.55400      0.400000           0   0.00000       0.00000    
      8570 IM1H     429      IM1H     H4       HDR5D    0.195000       1.00800           0   0.00000       0.00000    
      8571 IM1H     429      IM1H     C3       CD2R5D    2.50700       11.6110           0  -1.08300       1.10000    
      8572 IM1H     429      IM1H     DC3      DRUD     -2.55400      0.400000           0   0.00000       0.00000    
      8573 IM1H     429      IM1H     H5       HDR5D    0.192000       1.00800           0   0.00000       0.00000    
      8574 IM1H     429      IM1H     C4       CD2R5E    2.72410       11.6110           0  -1.25300       1.20000    
      8575 IM1H     429      IM1H     DC4      DRUD     -2.74710      0.400000           0   0.00000       0.00000    
      8576 IM1H     429      IM1H     H6       HDR5E    0.203000       1.00800           0   0.00000       0.00000    
      8577 IM1H     429      IM1H     N2       ND2R5C    2.04220       13.6070           0 -0.803000       1.00000    
      8578 IM1H     429      IM1H     DN2      DRUD     -2.19920      0.400000           0   0.00000       0.00000    
      8579 IM1H     429      IM1H     H7       HDP1A    0.363000       1.00800           0   0.00000       0.00000    
      8580 IM1H     429      IM1H     LPN21    LPD       0.00000       0.00000          -1   0.00000       0.00000    
      8581 IM1H     430      IM1H     C1       CD33F     2.48500       11.6110           0  -1.18100       1.10000    
      8582 IM1H     430      IM1H     DC1      DRUD     -2.66700      0.400000           0   0.00000       0.00000    
      8583 IM1H     430      IM1H     H1       HDA3A    0.135000       1.00800           0   0.00000       0.00000    
      8584 IM1H     430      IM1H     H2       HDA3A    0.135000       1.00800           0   0.00000       0.00000    
      8585 IM1H     430      IM1H     H3       HDA3A    0.135000       1.00800           0   0.00000       0.00000    
      8586 IM1H     430      IM1H     N1       ND2R5C    2.35720       13.6070           0 -0.803000       1.00000    
      8587 IM1H     430      IM1H     DN1      DRUD     -2.19920      0.400000           0   0.00000       0.00000    
      8588 IM1H     430      IM1H     C2       CD2R5D    2.44700       11.6110           0  -1.08300       1.10000    
      8589 IM1H     430      IM1H     DC2      DRUD     -2.55400      0.400000           0   0.00000       0.00000    
      8590 IM1H     430      IM1H     H4       HDR5D    0.195000       1.00800           0   0.00000       0.00000    
      8591 IM1H     430      IM1H     C3       CD2R5D    2.50700       11.6110           0  -1.08300       1.10000    
      8592 IM1H     430      IM1H     DC3      DRUD     -2.55400      0.400000           0   0.00000       0.00000    
      8593 IM1H     430      IM1H     H5       HDR5D    0.192000       1.00800           0   0.00000       0.00000    
      8594 IM1H     430      IM1H     C4       CD2R5E    2.72410       11.6110           0  -1.25300       1.20000    
      8595 IM1H     430      IM1H     DC4      DRUD     -2.74710      0.400000           0   0.00000       0.00000    
      8596 IM1H     430      IM1H     H6       HDR5E    0.203000       1.00800           0   0.00000       0.00000    
      8597 IM1H     430      IM1H     N2       ND2R5C    2.04220       13.6070           0 -0.803000       1.00000    
      8598 IM1H     430      IM1H     DN2      DRUD     -2.19920      0.400000           0   0.00000       0.00000    
      8599 IM1H     430      IM1H     H7       HDP1A    0.363000       1.00800           0   0.00000       0.00000    
      8600 IM1H     430      IM1H     LPN21    LPD       0.00000       0.00000          -1   0.00000       0.00000    
      8601 IM1H     431      IM1H     C1       CD33F     2.48500       11.6110           0  -1.18100       1.10000    
      8602 IM1H     431      IM1H     DC1      DRUD     -2.66700      0.400000           0   0.00000       0.00000    
      8603 IM1H     431      IM1H     H1       HDA3A    0.135000       1.00800           0   0.00000       0.00000    
      8604 IM1H     431      IM1H     H2       HDA3A    0.135000       1.00800           0   0.00000       0.00000    
      8605 IM1H     431      IM1H     H3       HDA3A    0.135000       1.00800           0   0.00000       0.00000    
      8606 IM1H     431      IM1H     N1       ND2R5C    2.35720       13.6070           0 -0.803000       1.00000    
      8607 IM1H     431      IM1H     DN1      DRUD     -2.19920      0.400000           0   0.00000       0.00000    
      8608 IM1H     431      IM1H     C2       CD2R5D    2.44700       11.6110           0  -1.08300       1.10000    
      8609 IM1H     431      IM1H     DC2      DRUD     -2.55400      0.400000           0   0.00000       0.00000    
      8610 IM1H     431      IM1H     H4       HDR5D    0.195000       1.00800           0   0.00000       0.00000    
      8611 IM1H     431      IM1H     C3       CD2R5D    2.50700       11.6110           0  -1.08300       1.10000    
      8612 IM1H     431      IM1H     DC3      DRUD     -2.55400      0.400000           0   0.00000       0.00000    
      8613 IM1H     431      IM1H     H5       HDR5D    0.192000       1.00800           0   0.00000       0.00000    
      8614 IM1H     431      IM1H     C4       CD2R5E    2.72410       11.6110           0  -1.25300       1.20000    
      8615 IM1H     431      IM1H     DC4      DRUD     -2.74710      0.400000           0   0.00000       0.00000    
      8616 IM1H     431      IM1H     H6       HDR5E    0.203000       1.00800           0   0.00000       0.00000    
      8617 IM1H     431      IM1H     N2       ND2R5C    2.04220       13.6070           0 -0.803000       1.00000    
      8618 IM1H     431      IM1H     DN2      DRUD     -2.19920      0.400000           0   0.00000       0.00000    
      8619 IM1H     431      IM1H     H7       HDP1A    0.363000       1.00800           0   0.00000       0.00000    
      8620 IM1H     431      IM1H     LPN21    LPD       0.00000       0.00000          -1   0.00000       0.00000    
      8621 IM1H     432      IM1H     C1       CD33F     2.48500       11.6110           0  -1.18100       1.10000    
      8622 IM1H     432      IM1H     DC1      DRUD     -2.66700      0.400000           0   0.00000       0.00000    
      8623 IM1H     432      IM1H     H1       HDA3A    0.135000       1.00800           0   0.00000       0.00000    
      8624 IM1H     432      IM1H     H2       HDA3A    0.135000       1.00800           0   0.00000       0.00000    
      8625 IM1H     432      IM1H     H3       HDA3A    0.135000       1.00800           0   0.00000       0.00000    
      8626 IM1H     432      IM1H     N1       ND2R5C    2.35720       13.6070           0 -0.803000       1.00000    
      8627 IM1H     432      IM1H     DN1      DRUD     -2.19920      0.400000           0   0.00000       0.00000    
      8628 IM1H     432      IM1H     C2       CD2R5D    2.44700       11.6110           0  -1.08300       1.10000    
      8629 IM1H     432      IM1H     DC2      DRUD     -2.55400      0.400000           0   0.00000       0.00000    
      8630 IM1H     432      IM1H     H4       HDR5D    0.195000       1.00800           0   0.00000       0.00000    
      8631 IM1H     432      IM1H     C3       CD2R5D    2.50700       11.6110           0  -1.08300       1.10000    
      8632 IM1H     432      IM1H     DC3      DRUD     -2.55400      0.400000           0   0.00000       0.00000    
      8633 IM1H     432      IM1H     H5       HDR5D    0.192000       1.00800           0   0.00000       0.00000    
      8634 IM1H     432      IM1H     C4       CD2R5E    2.72410       11.6110           0  -1.25300       1.20000    
      8635 IM1H     432      IM1H     DC4      DRUD     -2.74710      0.400000           0   0.00000       0.00000    
      8636 IM1H     432      IM1H     H6       HDR5E    0.203000       1.00800           0   0.00000       0.00000    
      8637 IM1H     432      IM1H     N2       ND2R5C    2.04220       13.6070           0 -0.803000       1.00000    
      8638 IM1H     432      IM1H     DN2      DRUD     -2.19920      0.400000           0   0.00000       0.00000    
      8639 IM1H     432      IM1H     H7       HDP1A    0.363000       1.00800           0   0.00000       0.00000    
      8640 IM1H     432      IM1H     LPN21    LPD       0.00000       0.00000          -1   0.00000       0.00000    
      8641 IM1H     433      IM1H     C1       CD33F     2.48500       11.6110           0  -1.18100       1.10000    
      8642 IM1H     433      IM1H     DC1      DRUD     -2.66700      0.400000           0   0.00000       0.00000    
      8643 IM1H     433      IM1H     H1       HDA3A    0.135000       1.00800           0   0.00000       0.00000    
      8644 IM1H     433      IM1H     H2       HDA3A    0.135000       1.00800           0   0.00000       0.00000    
      8645 IM1H     433      IM1H     H3       HDA3A    0.135000       1.00800           0   0.00000       0.00000    
      8646 IM1H     433      IM1H     N1       ND2R5C    2.35720       13.6070           0 -0.803000       1.00000    
      8647 IM1H     433      IM1H     DN1      DRUD     -2.19920      0.400000           0   0.00000       0.00000    
      8648 IM1H     433      IM1H     C2       CD2R5D    2.44700       11.6110           0  -1.08300       1.10000    
      8649 IM1H     433      IM1H     DC2      DRUD     -2.55400      0.400000           0   0.00000       0.00000    
      8650 IM1H     433      IM1H     H4       HDR5D    0.195000       1.00800           0   0.00000       0.00000    
      8651 IM1H     433      IM1H     C3       CD2R5D    2.50700       11.6110           0  -1.08300       1.10000    
      8652 IM1H     433      IM1H     DC3      DRUD     -2.55400      0.400000           0   0.00000       0.00000    
      8653 IM1H     433      IM1H     H5       HDR5D    0.192000       1.00800           0   0.00000       0.00000    
      8654 IM1H     433      IM1H     C4       CD2R5E    2.72410       11.6110           0  -1.25300       1.20000    
      8655 IM1H     433      IM1H     DC4      DRUD     -2.74710      0.400000           0   0.00000       0.00000    
      8656 IM1H     433      IM1H     H6       HDR5E    0.203000       1.00800           0   0.00000       0.00000    
      8657 IM1H     433      IM1H     N2       ND2R5C    2.04220       13.6070           0 -0.803000       1.00000    
      8658 IM1H     433      IM1H     DN2      DRUD     -2.19920      0.400000           0   0.00000       0.00000    
      8659 IM1H     433      IM1H     H7       HDP1A    0.363000       1.00800           0   0.00000       0.00000    
      8660 IM1H     433      IM1H     LPN21    LPD       0.00000       0.00000          -1   0.00000       0.00000    
      8661 IM1H     434      IM1H     C1       CD33F     2.48500       11.6110           0  -1.18100       1.10000    
      8662 IM1H     434      IM1H     DC1      DRUD     -2.66700      0.400000           0   0.00000       0.00000    
      8663 IM1H     434      IM1H     H1       HDA3A    0.135000       1.00800           0   0.00000       0.00000    
      8664 IM1H     434      IM1H     H2       HDA3A    0.135000       1.00800           0   0.00000       0.00000    
      8665 IM1H     434      IM1H     H3       HDA3A    0.135000       1.00800           0   0.00000       0.00000    
      8666 IM1H     434      IM1H     N1       ND2R5C    2.35720       13.6070           0 -0.803000       1.00000    
      8667 IM1H     434      IM1H     DN1      DRUD     -2.19920      0.400000           0   0.00000       0.00000    
      8668 IM1H     434      IM1H     C2       CD2R5D    2.44700       11.6110           0  -1.08300       1.10000    
      8669 IM1H     434      IM1H     DC2      DRUD     -2.55400      0.400000           0   0.00000       0.00000    
      8670 IM1H     434      IM1H     H4       HDR5D    0.195000       1.00800           0   0.00000       0.00000    
      8671 IM1H     434      IM1H     C3       CD2R5D    2.50700       11.6110           0  -1.08300       1.10000    
      8672 IM1H     434      IM1H     DC3      DRUD     -2.55400      0.400000           0   0.00000       0.00000    
      8673 IM1H     434      IM1H     H5       HDR5D    0.192000       1.00800           0   0.00000       0.00000    
      8674 IM1H     434      IM1H     C4       CD2R5E    2.72410       11.6110           0  -1.25300       1.20000    
      8675 IM1H     434      IM1H     DC4      DRUD     -2.74710      0.400000           0   0.00000       0.00000    
      8676 IM1H     434      IM1H     H6       HDR5E    0.203000       1.00800           0   0.00000       0.00000    
      8677 IM1H     434      IM1H     N2       ND2R5C    2.04220       13.6070           0 -0.803000       1.00000    
      8678 IM1H     434      IM1H     DN2      DRUD     -2.19920      0.400000           0   0.00000       0.00000    
      8679 IM1H     434      IM1H     H7       HDP1A    0.363000       1.00800           0   0.00000       0.00000    
      8680 IM1H     434      IM1H     LPN21    LPD       0.00000       0.00000          -1   0.00000       0.00000    
      8681 IM1H     435      IM1H     C1       CD33F     2.48500       11.6110           0  -1.18100       1.10000    
      8682 IM1H     435      IM1H     DC1      DRUD     -2.66700      0.400000           0   0.00000       0.00000    
      8683 IM1H     435      IM1H     H1       HDA3A    0.135000       1.00800           0   0.00000       0.00000    
      8684 IM1H     435      IM1H     H2       HDA3A    0.135000       1.00800           0   0.00000       0.00000    
      8685 IM1H     435      IM1H     H3       HDA3A    0.135000       1.00800           0   0.00000       0.00000    
      8686 IM1H     435      IM1H     N1       ND2R5C    2.35720       13.6070           0 -0.803000       1.00000    
      8687 IM1H     435      IM1H     DN1      DRUD     -2.19920      0.400000           0   0.00000       0.00000    
      8688 IM1H     435      IM1H     C2       CD2R5D    2.44700       11.6110           0  -1.08300       1.10000    
      8689 IM1H     435      IM1H     DC2      DRUD     -2.55400      0.400000           0   0.00000       0.00000    
      8690 IM1H     435      IM1H     H4       HDR5D    0.195000       1.00800           0   0.00000       0.00000    
      8691 IM1H     435      IM1H     C3       CD2R5D    2.50700       11.6110           0  -1.08300       1.10000    
      8692 IM1H     435      IM1H     DC3      DRUD     -2.55400      0.400000           0   0.00000       0.00000    
      8693 IM1H     435      IM1H     H5       HDR5D    0.192000       1.00800           0   0.00000       0.00000    
      8694 IM1H     435      IM1H     C4       CD2R5E    2.72410       11.6110           0  -1.25300       1.20000    
      8695 IM1H     435      IM1H     DC4      DRUD     -2.74710      0.400000           0   0.00000       0.00000    
      8696 IM1H     435      IM1H     H6       HDR5E    0.203000       1.00800           0   0.00000       0.00000    
      8697 IM1H     435      IM1H     N2       ND2R5C    2.04220       13.6070           0 -0.803000       1.00000    
      8698 IM1H     435      IM1H     DN2      DRUD     -2.19920      0.400000           0   0.00000       0.00000    
      8699 IM1H     435      IM1H     H7       HDP1A    0.363000       1.00800           0   0.00000       0.00000    
      8700 IM1H     435      IM1H     LPN21    LPD       0.00000       0.00000          -1   0.00000       0.00000    
      8701 IM1H     436      IM1H     C1       CD33F     2.48500       11.6110           0  -1.18100       1.10000    
      8702 IM1H     436      IM1H     DC1      DRUD     -2.66700      0.400000           0   0.00000       0.00000    
      8703 IM1H     436      IM1H     H1       HDA3A    0.135000       1.00800           0   0.00000       0.00000    
      8704 IM1H     436      IM1H     H2       HDA3A    0.135000       1.00800           0   0.00000       0.00000    
      8705 IM1H     436      IM1H     H3       HDA3A    0.135000       1.00800           0   0.00000       0.00000    
      8706 IM1H     436      IM1H     N1       ND2R5C    2.35720       13.6070           0 -0.803000       1.00000    
      8707 IM1H     436      IM1H     DN1      DRUD     -2.19920      0.400000           0   0.00000       0.00000    
      8708 IM1H     436      IM1H     C2       CD2R5D    2.44700       11.6110           0  -1.08300       1.10000    
      8709 IM1H     436      IM1H     DC2      DRUD     -2.55400      0.400000           0   0.00000       0.00000    
      8710 IM1H     436      IM1H     H4       HDR5D    0.195000       1.00800           0   0.00000       0.00000    
      8711 IM1H     436      IM1H     C3       CD2R5D    2.50700       11.6110           0  -1.08300       1.10000    
      8712 IM1H     436      IM1H     DC3      DRUD     -2.55400      0.400000           0   0.00000       0.00000    
      8713 IM1H     436      IM1H     H5       HDR5D    0.192000       1.00800           0   0.00000       0.00000    
      8714 IM1H     436      IM1H     C4       CD2R5E    2.72410       11.6110           0  -1.25300       1.20000    
      8715 IM1H     436      IM1H     DC4      DRUD     -2.74710      0.400000           0   0.00000       0.00000    
      8716 IM1H     436      IM1H     H6       HDR5E    0.203000       1.00800           0   0.00000       0.00000    
      8717 IM1H     436      IM1H     N2       ND2R5C    2.04220       13.6070           0 -0.803000       1.00000    
      8718 IM1H     436      IM1H     DN2      DRUD     -2.19920      0.400000           0   0.00000       0.00000    
      8719 IM1H     436      IM1H     H7       HDP1A    0.363000       1.00800           0   0.00000       0.00000    
      8720 IM1H     436      IM1H     LPN21    LPD       0.00000       0.00000          -1   0.00000       0.00000    
      8721 IM1H     437      IM1H     C1       CD33F     2.48500       11.6110           0  -1.18100       1.10000    
      8722 IM1H     437      IM1H     DC1      DRUD     -2.66700      0.400000           0   0.00000       0.00000    
      8723 IM1H     437      IM1H     H1       HDA3A    0.135000       1.00800           0   0.00000       0.00000    
      8724 IM1H     437      IM1H     H2       HDA3A    0.135000       1.00800           0   0.00000       0.00000    
      8725 IM1H     437      IM1H     H3       HDA3A    0.135000       1.00800           0   0.00000       0.00000    
      8726 IM1H     437      IM1H     N1       ND2R5C    2.35720       13.6070           0 -0.803000       1.00000    
      8727 IM1H     437      IM1H     DN1      DRUD     -2.19920      0.400000           0   0.00000       0.00000    
      8728 IM1H     437      IM1H     C2       CD2R5D    2.44700       11.6110           0  -1.08300       1.10000    
      8729 IM1H     437      IM1H     DC2      DRUD     -2.55400      0.400000           0   0.00000       0.00000    
      8730 IM1H     437      IM1H     H4       HDR5D    0.195000       1.00800           0   0.00000       0.00000    
      8731 IM1H     437      IM1H     C3       CD2R5D    2.50700       11.6110           0  -1.08300       1.10000    
      8732 IM1H     437      IM1H     DC3      DRUD     -2.55400      0.400000           0   0.00000       0.00000    
      8733 IM1H     437      IM1H     H5       HDR5D    0.192000       1.00800           0   0.00000       0.00000    
      8734 IM1H     437      IM1H     C4       CD2R5E    2.72410       11.6110           0  -1.25300       1.20000    
      8735 IM1H     437      IM1H     DC4      DRUD     -2.74710      0.400000           0   0.00000       0.00000    
      8736 IM1H     437      IM1H     H6       HDR5E    0.203000       1.00800           0   0.00000       0.00000    
      8737 IM1H     437      IM1H     N2       ND2R5C    2.04220       13.6070           0 -0.803000       1.00000    
      8738 IM1H     437      IM1H     DN2      DRUD     -2.19920      0.400000           0   0.00000       0.00000    
      8739 IM1H     437      IM1H     H7       HDP1A    0.363000       1.00800           0   0.00000       0.00000    
      8740 IM1H     437      IM1H     LPN21    LPD       0.00000       0.00000          -1   0.00000       0.00000    
      8741 IM1H     438      IM1H     C1       CD33F     2.48500       11.6110           0  -1.18100       1.10000    
      8742 IM1H     438      IM1H     DC1      DRUD     -2.66700      0.400000           0   0.00000       0.00000    
      8743 IM1H     438      IM1H     H1       HDA3A    0.135000       1.00800           0   0.00000       0.00000    
      8744 IM1H     438      IM1H     H2       HDA3A    0.135000       1.00800           0   0.00000       0.00000    
      8745 IM1H     438      IM1H     H3       HDA3A    0.135000       1.00800           0   0.00000       0.00000    
      8746 IM1H     438      IM1H     N1       ND2R5C    2.35720       13.6070           0 -0.803000       1.00000    
      8747 IM1H     438      IM1H     DN1      DRUD     -2.19920      0.400000           0   0.00000       0.00000    
      8748 IM1H     438      IM1H     C2       CD2R5D    2.44700       11.6110           0  -1.08300       1.10000    
      8749 IM1H     438      IM1H     DC2      DRUD     -2.55400      0.400000           0   0.00000       0.00000    
      8750 IM1H     438      IM1H     H4       HDR5D    0.195000       1.00800           0   0.00000       0.00000    
      8751 IM1H     438      IM1H     C3       CD2R5D    2.50700       11.6110           0  -1.08300       1.10000    
      8752 IM1H     438      IM1H     DC3      DRUD     -2.55400      0.400000           0   0.00000       0.00000    
      8753 IM1H     438      IM1H     H5       HDR5D    0.192000       1.00800           0   0.00000       0.00000    
      8754 IM1H     438      IM1H     C4       CD2R5E    2.72410       11.6110           0  -1.25300       1.20000    
      8755 IM1H     438      IM1H     DC4      DRUD     -2.74710      0.400000           0   0.00000       0.00000    
      8756 IM1H     438      IM1H     H6       HDR5E    0.203000       1.00800           0   0.00000       0.00000    
      8757 IM1H     438      IM1H     N2       ND2R5C    2.04220       13.6070           0 -0.803000       1.00000    
      8758 IM1H     438      IM1H     DN2      DRUD     -2.19920      0.400000           0   0.00000       0.00000    
      8759 IM1H     438      IM1H     H7       HDP1A    0.363000       1.00800           0   0.00000       0.00000    
      8760 IM1H     438      IM1H     LPN21    LPD       0.00000       0.00000          -1   0.00000       0.00000    
      8761 IM1H     439      IM1H     C1       CD33F     2.48500       11.6110           0  -1.18100       1.10000    
      8762 IM1H     439      IM1H     DC1      DRUD     -2.66700      0.400000           0   0.00000       0.00000    
      8763 IM1H     439      IM1H     H1       HDA3A    0.135000       1.00800           0   0.00000       0.00000    
      8764 IM1H     439      IM1H     H2       HDA3A    0.135000       1.00800           0   0.00000       0.00000    
      8765 IM1H     439      IM1H     H3       HDA3A    0.135000       1.00800           0   0.00000       0.00000    
      8766 IM1H     439      IM1H     N1       ND2R5C    2.35720       13.6070           0 -0.803000       1.00000    
      8767 IM1H     439      IM1H     DN1      DRUD     -2.19920      0.400000           0   0.00000       0.00000    
      8768 IM1H     439      IM1H     C2       CD2R5D    2.44700       11.6110           0  -1.08300       1.10000    
      8769 IM1H     439      IM1H     DC2      DRUD     -2.55400      0.400000           0   0.00000       0.00000    
      8770 IM1H     439      IM1H     H4       HDR5D    0.195000       1.00800           0   0.00000       0.00000    
      8771 IM1H     439      IM1H     C3       CD2R5D    2.50700       11.6110           0  -1.08300       1.10000    
      8772 IM1H     439      IM1H     DC3      DRUD     -2.55400      0.400000           0   0.00000       0.00000    
      8773 IM1H     439      IM1H     H5       HDR5D    0.192000       1.00800           0   0.00000       0.00000    
      8774 IM1H     439      IM1H     C4       CD2R5E    2.72410       11.6110           0  -1.25300       1.20000    
      8775 IM1H     439      IM1H     DC4      DRUD     -2.74710      0.400000           0   0.00000       0.00000    
      8776 IM1H     439      IM1H     H6       HDR5E    0.203000       1.00800           0   0.00000       0.00000    
      8777 IM1H     439      IM1H     N2       ND2R5C    2.04220       13.6070           0 -0.803000       1.00000    
      8778 IM1H     439      IM1H     DN2      DRUD     -2.19920      0.400000           0   0.00000       0.00000    
      8779 IM1H     439      IM1H     H7       HDP1A    0.363000       1.00800           0   0.00000       0.00000    
      8780 IM1H     439      IM1H     LPN21    LPD       0.00000       0.00000          -1   0.00000       0.00000    
      8781 IM1H     440      IM1H     C1       CD33F     2.48500       11.6110           0  -1.18100       1.10000    
      8782 IM1H     440      IM1H     DC1      DRUD     -2.66700      0.400000           0   0.00000       0.00000    
      8783 IM1H     440      IM1H     H1       HDA3A    0.135000       1.00800           0   0.00000       0.00000    
      8784 IM1H     440      IM1H     H2       HDA3A    0.135000       1.00800           0   0.00000       0.00000    
      8785 IM1H     440      IM1H     H3       HDA3A    0.135000       1.00800           0   0.00000       0.00000    
      8786 IM1H     440      IM1H     N1       ND2R5C    2.35720       13.6070           0 -0.803000       1.00000    
      8787 IM1H     440      IM1H     DN1      DRUD     -2.19920      0.400000           0   0.00000       0.00000    
      8788 IM1H     440      IM1H     C2       CD2R5D    2.44700       11.6110           0  -1.08300       1.10000    
      8789 IM1H     440      IM1H     DC2      DRUD     -2.55400      0.400000           0   0.00000       0.00000    
      8790 IM1H     440      IM1H     H4       HDR5D    0.195000       1.00800           0   0.00000       0.00000    
      8791 IM1H     440      IM1H     C3       CD2R5D    2.50700       11.6110           0  -1.08300       1.10000    
      8792 IM1H     440      IM1H     DC3      DRUD     -2.55400      0.400000           0   0.00000       0.00000    
      8793 IM1H     440      IM1H     H5       HDR5D    0.192000       1.00800           0   0.00000       0.00000    
      8794 IM1H     440      IM1H     C4       CD2R5E    2.72410       11.6110           0  -1.25300       1.20000    
      8795 IM1H     440      IM1H     DC4      DRUD     -2.74710      0.400000           0   0.00000       0.00000    
      8796 IM1H     440      IM1H     H6       HDR5E    0.203000       1.00800           0   0.00000       0.00000    
      8797 IM1H     440      IM1H     N2       ND2R5C    2.04220       13.6070           0 -0.803000       1.00000    
      8798 IM1H     440      IM1H     DN2      DRUD     -2.19920      0.400000           0   0.00000       0.00000    
      8799 IM1H     440      IM1H     H7       HDP1A    0.363000       1.00800           0   0.00000       0.00000    
      8800 IM1H     440      IM1H     LPN21    LPD       0.00000       0.00000          -1   0.00000       0.00000    
      8801 IM1H     441      IM1H     C1       CD33F     2.48500       11.6110           0  -1.18100       1.10000    
      8802 IM1H     441      IM1H     DC1      DRUD     -2.66700      0.400000           0   0.00000       0.00000    
      8803 IM1H     441      IM1H     H1       HDA3A    0.135000       1.00800           0   0.00000       0.00000    
      8804 IM1H     441      IM1H     H2       HDA3A    0.135000       1.00800           0   0.00000       0.00000    
      8805 IM1H     441      IM1H     H3       HDA3A    0.135000       1.00800           0   0.00000       0.00000    
      8806 IM1H     441      IM1H     N1       ND2R5C    2.35720       13.6070           0 -0.803000       1.00000    
      8807 IM1H     441      IM1H     DN1      DRUD     -2.19920      0.400000           0   0.00000       0.00000    
      8808 IM1H     441      IM1H     C2       CD2R5D    2.44700       11.6110           0  -1.08300       1.10000    
      8809 IM1H     441      IM1H     DC2      DRUD     -2.55400      0.400000           0   0.00000       0.00000    
      8810 IM1H     441      IM1H     H4       HDR5D    0.195000       1.00800           0   0.00000       0.00000    
      8811 IM1H     441      IM1H     C3       CD2R5D    2.50700       11.6110           0  -1.08300       1.10000    
      8812 IM1H     441      IM1H     DC3      DRUD     -2.55400      0.400000           0   0.00000       0.00000    
      8813 IM1H     441      IM1H     H5       HDR5D    0.192000       1.00800           0   0.00000       0.00000    
      8814 IM1H     441      IM1H     C4       CD2R5E    2.72410       11.6110           0  -1.25300       1.20000    
      8815 IM1H     441      IM1H     DC4      DRUD     -2.74710      0.400000           0   0.00000       0.00000    
      8816 IM1H     441      IM1H     H6       HDR5E    0.203000       1.00800           0   0.00000       0.00000    
      8817 IM1H     441      IM1H     N2       ND2R5C    2.04220       13.6070           0 -0.803000       1.00000    
      8818 IM1H     441      IM1H     DN2      DRUD     -2.19920      0.400000           0   0.00000       0.00000    
      8819 IM1H     441      IM1H     H7       HDP1A    0.363000       1.00800           0   0.00000       0.00000    
      8820 IM1H     441      IM1H     LPN21    LPD       0.00000       0.00000          -1   0.00000       0.00000    
      8821 IM1H     442      IM1H     C1       CD33F     2.48500       11.6110           0  -1.18100       1.10000    
      8822 IM1H     442      IM1H     DC1      DRUD     -2.66700      0.400000           0   0.00000       0.00000    
      8823 IM1H     442      IM1H     H1       HDA3A    0.135000       1.00800           0   0.00000       0.00000    
      8824 IM1H     442      IM1H     H2       HDA3A    0.135000       1.00800           0   0.00000       0.00000    
      8825 IM1H     442      IM1H     H3       HDA3A    0.135000       1.00800           0   0.00000       0.00000    
      8826 IM1H     442      IM1H     N1       ND2R5C    2.35720       13.6070           0 -0.803000       1.00000    
      8827 IM1H     442      IM1H     DN1      DRUD     -2.19920      0.400000           0   0.00000       0.00000    
      8828 IM1H     442      IM1H     C2       CD2R5D    2.44700       11.6110           0  -1.08300       1.10000    
      8829 IM1H     442      IM1H     DC2      DRUD     -2.55400      0.400000           0   0.00000       0.00000    
      8830 IM1H     442      IM1H     H4       HDR5D    0.195000       1.00800           0   0.00000       0.00000    
      8831 IM1H     442      IM1H     C3       CD2R5D    2.50700       11.6110           0  -1.08300       1.10000    
      8832 IM1H     442      IM1H     DC3      DRUD     -2.55400      0.400000           0   0.00000       0.00000    
      8833 IM1H     442      IM1H     H5       HDR5D    0.192000       1.00800           0   0.00000       0.00000    
      8834 IM1H     442      IM1H     C4       CD2R5E    2.72410       11.6110           0  -1.25300       1.20000    
      8835 IM1H     442      IM1H     DC4      DRUD     -2.74710      0.400000           0   0.00000       0.00000    
      8836 IM1H     442      IM1H     H6       HDR5E    0.203000       1.00800           0   0.00000       0.00000    
      8837 IM1H     442      IM1H     N2       ND2R5C    2.04220       13.6070           0 -0.803000       1.00000    
      8838 IM1H     442      IM1H     DN2      DRUD     -2.19920      0.400000           0   0.00000       0.00000    
      8839 IM1H     442      IM1H     H7       HDP1A    0.363000       1.00800           0   0.00000       0.00000    
      8840 IM1H     442      IM1H     LPN21    LPD       0.00000       0.00000          -1   0.00000       0.00000    
      8841 IM1H     443      IM1H     C1       CD33F     2.48500       11.6110           0  -1.18100       1.10000    
      8842 IM1H     443      IM1H     DC1      DRUD     -2.66700      0.400000           0   0.00000       0.00000    
      8843 IM1H     443      IM1H     H1       HDA3A    0.135000       1.00800           0   0.00000       0.00000    
      8844 IM1H     443      IM1H     H2       HDA3A    0.135000       1.00800           0   0.00000       0.00000    
      8845 IM1H     443      IM1H     H3       HDA3A    0.135000       1.00800           0   0.00000       0.00000    
      8846 IM1H     443      IM1H     N1       ND2R5C    2.35720       13.6070           0 -0.803000       1.00000    
      8847 IM1H     443      IM1H     DN1      DRUD     -2.19920      0.400000           0   0.00000       0.00000    
      8848 IM1H     443      IM1H     C2       CD2R5D    2.44700       11.6110           0  -1.08300       1.10000    
      8849 IM1H     443      IM1H     DC2      DRUD     -2.55400      0.400000           0   0.00000       0.00000    
      8850 IM1H     443      IM1H     H4       HDR5D    0.195000       1.00800           0   0.00000       0.00000    
      8851 IM1H     443      IM1H     C3       CD2R5D    2.50700       11.6110           0  -1.08300       1.10000    
      8852 IM1H     443      IM1H     DC3      DRUD     -2.55400      0.400000           0   0.00000       0.00000    
      8853 IM1H     443      IM1H     H5       HDR5D    0.192000       1.00800           0   0.00000       0.00000    
      8854 IM1H     443      IM1H     C4       CD2R5E    2.72410       11.6110           0  -1.25300       1.20000    
      8855 IM1H     443      IM1H     DC4      DRUD     -2.74710      0.400000           0   0.00000       0.00000    
      8856 IM1H     443      IM1H     H6       HDR5E    0.203000       1.00800           0   0.00000       0.00000    
      8857 IM1H     443      IM1H     N2       ND2R5C    2.04220       13.6070           0 -0.803000       1.00000    
      8858 IM1H     443      IM1H     DN2      DRUD     -2.19920      0.400000           0   0.00000       0.00000    
      8859 IM1H     443      IM1H     H7       HDP1A    0.363000       1.00800           0   0.00000       0.00000    
      8860 IM1H     443      IM1H     LPN21    LPD       0.00000       0.00000          -1   0.00000       0.00000    
      8861 IM1H     444      IM1H     C1       CD33F     2.48500       11.6110           0  -1.18100       1.10000    
      8862 IM1H     444      IM1H     DC1      DRUD     -2.66700      0.400000           0   0.00000       0.00000    
      8863 IM1H     444      IM1H     H1       HDA3A    0.135000       1.00800           0   0.00000       0.00000    
      8864 IM1H     444      IM1H     H2       HDA3A    0.135000       1.00800           0   0.00000       0.00000    
      8865 IM1H     444      IM1H     H3       HDA3A    0.135000       1.00800           0   0.00000       0.00000    
      8866 IM1H     444      IM1H     N1       ND2R5C    2.35720       13.6070           0 -0.803000       1.00000    
      8867 IM1H     444      IM1H     DN1      DRUD     -2.19920      0.400000           0   0.00000       0.00000    
      8868 IM1H     444      IM1H     C2       CD2R5D    2.44700       11.6110           0  -1.08300       1.10000    
      8869 IM1H     444      IM1H     DC2      DRUD     -2.55400      0.400000           0   0.00000       0.00000    
      8870 IM1H     444      IM1H     H4       HDR5D    0.195000       1.00800           0   0.00000       0.00000    
      8871 IM1H     444      IM1H     C3       CD2R5D    2.50700       11.6110           0  -1.08300       1.10000    
      8872 IM1H     444      IM1H     DC3      DRUD     -2.55400      0.400000           0   0.00000       0.00000    
      8873 IM1H     444      IM1H     H5       HDR5D    0.192000       1.00800           0   0.00000       0.00000    
      8874 IM1H     444      IM1H     C4       CD2R5E    2.72410       11.6110           0  -1.25300       1.20000    
      8875 IM1H     444      IM1H     DC4      DRUD     -2.74710      0.400000           0   0.00000       0.00000    
      8876 IM1H     444      IM1H     H6       HDR5E    0.203000       1.00800           0   0.00000       0.00000    
      8877 IM1H     444      IM1H     N2       ND2R5C    2.04220       13.6070           0 -0.803000       1.00000    
      8878 IM1H     444      IM1H     DN2      DRUD     -2.19920      0.400000           0   0.00000       0.00000    
      8879 IM1H     444      IM1H     H7       HDP1A    0.363000       1.00800           0   0.00000       0.00000    
      8880 IM1H     444      IM1H     LPN21    LPD       0.00000       0.00000          -1   0.00000       0.00000    
      8881 IM1H     445      IM1H     C1       CD33F     2.48500       11.6110           0  -1.18100       1.10000    
      8882 IM1H     445      IM1H     DC1      DRUD     -2.66700      0.400000           0   0.00000       0.00000    
      8883 IM1H     445      IM1H     H1       HDA3A    0.135000       1.00800           0   0.00000       0.00000    
      8884 IM1H     445      IM1H     H2       HDA3A    0.135000       1.00800           0   0.00000       0.00000    
      8885 IM1H     445      IM1H     H3       HDA3A    0.135000       1.00800           0   0.00000       0.00000    
      8886 IM1H     445      IM1H     N1       ND2R5C    2.35720       13.6070           0 -0.803000       1.00000    
      8887 IM1H     445      IM1H     DN1      DRUD     -2.19920      0.400000           0   0.00000       0.00000    
      8888 IM1H     445      IM1H     C2       CD2R5D    2.44700       11.6110           0  -1.08300       1.10000    
      8889 IM1H     445      IM1H     DC2      DRUD     -2.55400      0.400000           0   0.00000       0.00000    
      8890 IM1H     445      IM1H     H4       HDR5D    0.195000       1.00800           0   0.00000       0.00000    
      8891 IM1H     445      IM1H     C3       CD2R5D    2.50700       11.6110           0  -1.08300       1.10000    
      8892 IM1H     445      IM1H     DC3      DRUD     -2.55400      0.400000           0   0.00000       0.00000    
      8893 IM1H     445      IM1H     H5       HDR5D    0.192000       1.00800           0   0.00000       0.00000    
      8894 IM1H     445      IM1H     C4       CD2R5E    2.72410       11.6110           0  -1.25300       1.20000    
      8895 IM1H     445      IM1H     DC4      DRUD     -2.74710      0.400000           0   0.00000       0.00000    
      8896 IM1H     445      IM1H     H6       HDR5E    0.203000       1.00800           0   0.00000       0.00000    
      8897 IM1H     445      IM1H     N2       ND2R5C    2.04220       13.6070           0 -0.803000       1.00000    
      8898 IM1H     445      IM1H     DN2      DRUD     -2.19920      0.400000           0   0.00000       0.00000    
      8899 IM1H     445      IM1H     H7       HDP1A    0.363000       1.00800           0   0.00000       0.00000    
      8900 IM1H     445      IM1H     LPN21    LPD       0.00000       0.00000          -1   0.00000       0.00000    
      8901 IM1H     446      IM1H     C1       CD33F     2.48500       11.6110           0  -1.18100       1.10000    
      8902 IM1H     446      IM1H     DC1      DRUD     -2.66700      0.400000           0   0.00000       0.00000    
      8903 IM1H     446      IM1H     H1       HDA3A    0.135000       1.00800           0   0.00000       0.00000    
      8904 IM1H     446      IM1H     H2       HDA3A    0.135000       1.00800           0   0.00000       0.00000    
      8905 IM1H     446      IM1H     H3       HDA3A    0.135000       1.00800           0   0.00000       0.00000    
      8906 IM1H     446      IM1H     N1       ND2R5C    2.35720       13.6070           0 -0.803000       1.00000    
      8907 IM1H     446      IM1H     DN1      DRUD     -2.19920      0.400000           0   0.00000       0.00000    
      8908 IM1H     446      IM1H     C2       CD2R5D    2.44700       11.6110           0  -1.08300       1.10000    
      8909 IM1H     446      IM1H     DC2      DRUD     -2.55400      0.400000           0   0.00000       0.00000    
      8910 IM1H     446      IM1H     H4       HDR5D    0.195000       1.00800           0   0.00000       0.00000    
      8911 IM1H     446      IM1H     C3       CD2R5D    2.50700       11.6110           0  -1.08300       1.10000    
      8912 IM1H     446      IM1H     DC3      DRUD     -2.55400      0.400000           0   0.00000       0.00000    
      8913 IM1H     446      IM1H     H5       HDR5D    0.192000       1.00800           0   0.00000       0.00000    
      8914 IM1H     446      IM1H     C4       CD2R5E    2.72410       11.6110           0  -1.25300       1.20000    
      8915 IM1H     446      IM1H     DC4      DRUD     -2.74710      0.400000           0   0.00000       0.00000    
      8916 IM1H     446      IM1H     H6       HDR5E    0.203000       1.00800           0   0.00000       0.00000    
      8917 IM1H     446      IM1H     N2       ND2R5C    2.04220       13.6070           0 -0.803000       1.00000    
      8918 IM1H     446      IM1H     DN2      DRUD     -2.19920      0.400000           0   0.00000       0.00000    
      8919 IM1H     446      IM1H     H7       HDP1A    0.363000       1.00800           0   0.00000       0.00000    
      8920 IM1H     446      IM1H     LPN21    LPD       0.00000       0.00000          -1   0.00000       0.00000    
      8921 IM1H     447      IM1H     C1       CD33F     2.48500       11.6110           0  -1.18100       1.10000    
      8922 IM1H     447      IM1H     DC1      DRUD     -2.66700      0.400000           0   0.00000       0.00000    
      8923 IM1H     447      IM1H     H1       HDA3A    0.135000       1.00800           0   0.00000       0.00000    
      8924 IM1H     447      IM1H     H2       HDA3A    0.135000       1.00800           0   0.00000       0.00000    
      8925 IM1H     447      IM1H     H3       HDA3A    0.135000       1.00800           0   0.00000       0.00000    
      8926 IM1H     447      IM1H     N1       ND2R5C    2.35720       13.6070           0 -0.803000       1.00000    
      8927 IM1H     447      IM1H     DN1      DRUD     -2.19920      0.400000           0   0.00000       0.00000    
      8928 IM1H     447      IM1H     C2       CD2R5D    2.44700       11.6110           0  -1.08300       1.10000    
      8929 IM1H     447      IM1H     DC2      DRUD     -2.55400      0.400000           0   0.00000       0.00000    
      8930 IM1H     447      IM1H     H4       HDR5D    0.195000       1.00800           0   0.00000       0.00000    
      8931 IM1H     447      IM1H     C3       CD2R5D    2.50700       11.6110           0  -1.08300       1.10000    
      8932 IM1H     447      IM1H     DC3      DRUD     -2.55400      0.400000           0   0.00000       0.00000    
      8933 IM1H     447      IM1H     H5       HDR5D    0.192000       1.00800           0   0.00000       0.00000    
      8934 IM1H     447      IM1H     C4       CD2R5E    2.72410       11.6110           0  -1.25300       1.20000    
      8935 IM1H     447      IM1H     DC4      DRUD     -2.74710      0.400000           0   0.00000       0.00000    
      8936 IM1H     447      IM1H     H6       HDR5E    0.203000       1.00800           0   0.00000       0.00000    
      8937 IM1H     447      IM1H     N2       ND2R5C    2.04220       13.6070           0 -0.803000       1.00000    
      8938 IM1H     447      IM1H     DN2      DRUD     -2.19920      0.400000           0   0.00000       0.00000    
      8939 IM1H     447      IM1H     H7       HDP1A    0.363000       1.00800           0   0.00000       0.00000    
      8940 IM1H     447      IM1H     LPN21    LPD       0.00000       0.00000          -1   0.00000       0.00000    
      8941 IM1H     448      IM1H     C1       CD33F     2.48500       11.6110           0  -1.18100       1.10000    
      8942 IM1H     448      IM1H     DC1      DRUD     -2.66700      0.400000           0   0.00000       0.00000    
      8943 IM1H     448      IM1H     H1       HDA3A    0.135000       1.00800           0   0.00000       0.00000    
      8944 IM1H     448      IM1H     H2       HDA3A    0.135000       1.00800           0   0.00000       0.00000    
      8945 IM1H     448      IM1H     H3       HDA3A    0.135000       1.00800           0   0.00000       0.00000    
      8946 IM1H     448      IM1H     N1       ND2R5C    2.35720       13.6070           0 -0.803000       1.00000    
      8947 IM1H     448      IM1H     DN1      DRUD     -2.19920      0.400000           0   0.00000       0.00000    
      8948 IM1H     448      IM1H     C2       CD2R5D    2.44700       11.6110           0  -1.08300       1.10000    
      8949 IM1H     448      IM1H     DC2      DRUD     -2.55400      0.400000           0   0.00000       0.00000    
      8950 IM1H     448      IM1H     H4       HDR5D    0.195000       1.00800           0   0.00000       0.00000    
      8951 IM1H     448      IM1H     C3       CD2R5D    2.50700       11.6110           0  -1.08300       1.10000    
      8952 IM1H     448      IM1H     DC3      DRUD     -2.55400      0.400000           0   0.00000       0.00000    
      8953 IM1H     448      IM1H     H5       HDR5D    0.192000       1.00800           0   0.00000       0.00000    
      8954 IM1H     448      IM1H     C4       CD2R5E    2.72410       11.6110           0  -1.25300       1.20000    
      8955 IM1H     448      IM1H     DC4      DRUD     -2.74710      0.400000           0   0.00000       0.00000    
      8956 IM1H     448      IM1H     H6       HDR5E    0.203000       1.00800           0   0.00000       0.00000    
      8957 IM1H     448      IM1H     N2       ND2R5C    2.04220       13.6070           0 -0.803000       1.00000    
      8958 IM1H     448      IM1H     DN2      DRUD     -2.19920      0.400000           0   0.00000       0.00000    
      8959 IM1H     448      IM1H     H7       HDP1A    0.363000       1.00800           0   0.00000       0.00000    
      8960 IM1H     448      IM1H     LPN21    LPD       0.00000       0.00000          -1   0.00000       0.00000    
      8961 IM1H     449      IM1H     C1       CD33F     2.48500       11.6110           0  -1.18100       1.10000    
      8962 IM1H     449      IM1H     DC1      DRUD     -2.66700      0.400000           0   0.00000       0.00000    
      8963 IM1H     449      IM1H     H1       HDA3A    0.135000       1.00800           0   0.00000       0.00000    
      8964 IM1H     449      IM1H     H2       HDA3A    0.135000       1.00800           0   0.00000       0.00000    
      8965 IM1H     449      IM1H     H3       HDA3A    0.135000       1.00800           0   0.00000       0.00000    
      8966 IM1H     449      IM1H     N1       ND2R5C    2.35720       13.6070           0 -0.803000       1.00000    
      8967 IM1H     449      IM1H     DN1      DRUD     -2.19920      0.400000           0   0.00000       0.00000    
      8968 IM1H     449      IM1H     C2       CD2R5D    2.44700       11.6110           0  -1.08300       1.10000    
      8969 IM1H     449      IM1H     DC2      DRUD     -2.55400      0.400000           0   0.00000       0.00000    
      8970 IM1H     449      IM1H     H4       HDR5D    0.195000       1.00800           0   0.00000       0.00000    
      8971 IM1H     449      IM1H     C3       CD2R5D    2.50700       11.6110           0  -1.08300       1.10000    
      8972 IM1H     449      IM1H     DC3      DRUD     -2.55400      0.400000           0   0.00000       0.00000    
      8973 IM1H     449      IM1H     H5       HDR5D    0.192000       1.00800           0   0.00000       0.00000    
      8974 IM1H     449      IM1H     C4       CD2R5E    2.72410       11.6110           0  -1.25300       1.20000    
      8975 IM1H     449      IM1H     DC4      DRUD     -2.74710      0.400000           0   0.00000       0.00000    
      8976 IM1H     449      IM1H     H6       HDR5E    0.203000       1.00800           0   0.00000       0.00000    
      8977 IM1H     449      IM1H     N2       ND2R5C    2.04220       13.6070           0 -0.803000       1.00000    
      8978 IM1H     449      IM1H     DN2      DRUD     -2.19920      0.400000           0   0.00000       0.00000    
      8979 IM1H     449      IM1H     H7       HDP1A    0.363000       1.00800           0   0.00000       0.00000    
      8980 IM1H     449      IM1H     LPN21    LPD       0.00000       0.00000          -1   0.00000       0.00000    
      8981 IM1H     450      IM1H     C1       CD33F     2.48500       11.6110           0  -1.18100       1.10000    
      8982 IM1H     450      IM1H     DC1      DRUD     -2.66700      0.400000           0   0.00000       0.00000    
      8983 IM1H     450      IM1H     H1       HDA3A    0.135000       1.00800           0   0.00000       0.00000    
      8984 IM1H     450      IM1H     H2       HDA3A    0.135000       1.00800           0   0.00000       0.00000    
      8985 IM1H     450      IM1H     H3       HDA3A    0.135000       1.00800           0   0.00000       0.00000    
      8986 IM1H     450      IM1H     N1       ND2R5C    2.35720       13.6070           0 -0.803000       1.00000    
      8987 IM1H     450      IM1H     DN1      DRUD     -2.19920      0.400000           0   0.00000       0.00000    
      8988 IM1H     450      IM1H     C2       CD2R5D    2.44700       11.6110           0  -1.08300       1.10000    
      8989 IM1H     450      IM1H     DC2      DRUD     -2.55400      0.400000           0   0.00000       0.00000    
      8990 IM1H     450      IM1H     H4       HDR5D    0.195000       1.00800           0   0.00000       0.00000    
      8991 IM1H     450      IM1H     C3       CD2R5D    2.50700       11.6110           0  -1.08300       1.10000    
      8992 IM1H     450      IM1H     DC3      DRUD     -2.55400      0.400000           0   0.00000       0.00000    
      8993 IM1H     450      IM1H     H5       HDR5D    0.192000       1.00800           0   0.00000       0.00000    
      8994 IM1H     450      IM1H     C4       CD2R5E    2.72410       11.6110           0  -1.25300       1.20000    
      8995 IM1H     450      IM1H     DC4      DRUD     -2.74710      0.400000           0   0.00000       0.00000    
      8996 IM1H     450      IM1H     H6       HDR5E    0.203000       1.00800           0   0.00000       0.00000    
      8997 IM1H     450      IM1H     N2       ND2R5C    2.04220       13.6070           0 -0.803000       1.00000    
      8998 IM1H     450      IM1H     DN2      DRUD     -2.19920      0.400000           0   0.00000       0.00000    
      8999 IM1H     450      IM1H     H7       HDP1A    0.363000       1.00800           0   0.00000       0.00000    
      9000 IM1H     450      IM1H     LPN21    LPD       0.00000       0.00000          -1   0.00000       0.00000    
      9001 IM1H     451      IM1H     C1       CD33F     2.48500       11.6110           0  -1.18100       1.10000    
      9002 IM1H     451      IM1H     DC1      DRUD     -2.66700      0.400000           0   0.00000       0.00000    
      9003 IM1H     451      IM1H     H1       HDA3A    0.135000       1.00800           0   0.00000       0.00000    
      9004 IM1H     451      IM1H     H2       HDA3A    0.135000       1.00800           0   0.00000       0.00000    
      9005 IM1H     451      IM1H     H3       HDA3A    0.135000       1.00800           0   0.00000       0.00000    
      9006 IM1H     451      IM1H     N1       ND2R5C    2.35720       13.6070           0 -0.803000       1.00000    
      9007 IM1H     451      IM1H     DN1      DRUD     -2.19920      0.400000           0   0.00000       0.00000    
      9008 IM1H     451      IM1H     C2       CD2R5D    2.44700       11.6110           0  -1.08300       1.10000    
      9009 IM1H     451      IM1H     DC2      DRUD     -2.55400      0.400000           0   0.00000       0.00000    
      9010 IM1H     451      IM1H     H4       HDR5D    0.195000       1.00800           0   0.00000       0.00000    
      9011 IM1H     451      IM1H     C3       CD2R5D    2.50700       11.6110           0  -1.08300       1.10000    
      9012 IM1H     451      IM1H     DC3      DRUD     -2.55400      0.400000           0   0.00000       0.00000    
      9013 IM1H     451      IM1H     H5       HDR5D    0.192000       1.00800           0   0.00000       0.00000    
      9014 IM1H     451      IM1H     C4       CD2R5E    2.72410       11.6110           0  -1.25300       1.20000    
      9015 IM1H     451      IM1H     DC4      DRUD     -2.74710      0.400000           0   0.00000       0.00000    
      9016 IM1H     451      IM1H     H6       HDR5E    0.203000       1.00800           0   0.00000       0.00000    
      9017 IM1H     451      IM1H     N2       ND2R5C    2.04220       13.6070           0 -0.803000       1.00000    
      9018 IM1H     451      IM1H     DN2      DRUD     -2.19920      0.400000           0   0.00000       0.00000    
      9019 IM1H     451      IM1H     H7       HDP1A    0.363000       1.00800           0   0.00000       0.00000    
      9020 IM1H     451      IM1H     LPN21    LPD       0.00000       0.00000          -1   0.00000       0.00000    
      9021 IM1H     452      IM1H     C1       CD33F     2.48500       11.6110           0  -1.18100       1.10000    
      9022 IM1H     452      IM1H     DC1      DRUD     -2.66700      0.400000           0   0.00000       0.00000    
      9023 IM1H     452      IM1H     H1       HDA3A    0.135000       1.00800           0   0.00000       0.00000    
      9024 IM1H     452      IM1H     H2       HDA3A    0.135000       1.00800           0   0.00000       0.00000    
      9025 IM1H     452      IM1H     H3       HDA3A    0.135000       1.00800           0   0.00000       0.00000    
      9026 IM1H     452      IM1H     N1       ND2R5C    2.35720       13.6070           0 -0.803000       1.00000    
      9027 IM1H     452      IM1H     DN1      DRUD     -2.19920      0.400000           0   0.00000       0.00000    
      9028 IM1H     452      IM1H     C2       CD2R5D    2.44700       11.6110           0  -1.08300       1.10000    
      9029 IM1H     452      IM1H     DC2      DRUD     -2.55400      0.400000           0   0.00000       0.00000    
      9030 IM1H     452      IM1H     H4       HDR5D    0.195000       1.00800           0   0.00000       0.00000    
      9031 IM1H     452      IM1H     C3       CD2R5D    2.50700       11.6110           0  -1.08300       1.10000    
      9032 IM1H     452      IM1H     DC3      DRUD     -2.55400      0.400000           0   0.00000       0.00000    
      9033 IM1H     452      IM1H     H5       HDR5D    0.192000       1.00800           0   0.00000       0.00000    
      9034 IM1H     452      IM1H     C4       CD2R5E    2.72410       11.6110           0  -1.25300       1.20000    
      9035 IM1H     452      IM1H     DC4      DRUD     -2.74710      0.400000           0   0.00000       0.00000    
      9036 IM1H     452      IM1H     H6       HDR5E    0.203000       1.00800           0   0.00000       0.00000    
      9037 IM1H     452      IM1H     N2       ND2R5C    2.04220       13.6070           0 -0.803000       1.00000    
      9038 IM1H     452      IM1H     DN2      DRUD     -2.19920      0.400000           0   0.00000       0.00000    
      9039 IM1H     452      IM1H     H7       HDP1A    0.363000       1.00800           0   0.00000       0.00000    
      9040 IM1H     452      IM1H     LPN21    LPD       0.00000       0.00000          -1   0.00000       0.00000    
      9041 IM1H     453      IM1H     C1       CD33F     2.48500       11.6110           0  -1.18100       1.10000    
      9042 IM1H     453      IM1H     DC1      DRUD     -2.66700      0.400000           0   0.00000       0.00000    
      9043 IM1H     453      IM1H     H1       HDA3A    0.135000       1.00800           0   0.00000       0.00000    
      9044 IM1H     453      IM1H     H2       HDA3A    0.135000       1.00800           0   0.00000       0.00000    
      9045 IM1H     453      IM1H     H3       HDA3A    0.135000       1.00800           0   0.00000       0.00000    
      9046 IM1H     453      IM1H     N1       ND2R5C    2.35720       13.6070           0 -0.803000       1.00000    
      9047 IM1H     453      IM1H     DN1      DRUD     -2.19920      0.400000           0   0.00000       0.00000    
      9048 IM1H     453      IM1H     C2       CD2R5D    2.44700       11.6110           0  -1.08300       1.10000    
      9049 IM1H     453      IM1H     DC2      DRUD     -2.55400      0.400000           0   0.00000       0.00000    
      9050 IM1H     453      IM1H     H4       HDR5D    0.195000       1.00800           0   0.00000       0.00000    
      9051 IM1H     453      IM1H     C3       CD2R5D    2.50700       11.6110           0  -1.08300       1.10000    
      9052 IM1H     453      IM1H     DC3      DRUD     -2.55400      0.400000           0   0.00000       0.00000    
      9053 IM1H     453      IM1H     H5       HDR5D    0.192000       1.00800           0   0.00000       0.00000    
      9054 IM1H     453      IM1H     C4       CD2R5E    2.72410       11.6110           0  -1.25300       1.20000    
      9055 IM1H     453      IM1H     DC4      DRUD     -2.74710      0.400000           0   0.00000       0.00000    
      9056 IM1H     453      IM1H     H6       HDR5E    0.203000       1.00800           0   0.00000       0.00000    
      9057 IM1H     453      IM1H     N2       ND2R5C    2.04220       13.6070           0 -0.803000       1.00000    
      9058 IM1H     453      IM1H     DN2      DRUD     -2.19920      0.400000           0   0.00000       0.00000    
      9059 IM1H     453      IM1H     H7       HDP1A    0.363000       1.00800           0   0.00000       0.00000    
      9060 IM1H     453      IM1H     LPN21    LPD       0.00000       0.00000          -1   0.00000       0.00000    
      9061 IM1H     454      IM1H     C1       CD33F     2.48500       11.6110           0  -1.18100       1.10000    
      9062 IM1H     454      IM1H     DC1      DRUD     -2.66700      0.400000           0   0.00000       0.00000    
      9063 IM1H     454      IM1H     H1       HDA3A    0.135000       1.00800           0   0.00000       0.00000    
      9064 IM1H     454      IM1H     H2       HDA3A    0.135000       1.00800           0   0.00000       0.00000    
      9065 IM1H     454      IM1H     H3       HDA3A    0.135000       1.00800           0   0.00000       0.00000    
      9066 IM1H     454      IM1H     N1       ND2R5C    2.35720       13.6070           0 -0.803000       1.00000    
      9067 IM1H     454      IM1H     DN1      DRUD     -2.19920      0.400000           0   0.00000       0.00000    
      9068 IM1H     454      IM1H     C2       CD2R5D    2.44700       11.6110           0  -1.08300       1.10000    
      9069 IM1H     454      IM1H     DC2      DRUD     -2.55400      0.400000           0   0.00000       0.00000    
      9070 IM1H     454      IM1H     H4       HDR5D    0.195000       1.00800           0   0.00000       0.00000    
      9071 IM1H     454      IM1H     C3       CD2R5D    2.50700       11.6110           0  -1.08300       1.10000    
      9072 IM1H     454      IM1H     DC3      DRUD     -2.55400      0.400000           0   0.00000       0.00000    
      9073 IM1H     454      IM1H     H5       HDR5D    0.192000       1.00800           0   0.00000       0.00000    
      9074 IM1H     454      IM1H     C4       CD2R5E    2.72410       11.6110           0  -1.25300       1.20000    
      9075 IM1H     454      IM1H     DC4      DRUD     -2.74710      0.400000           0   0.00000       0.00000    
      9076 IM1H     454      IM1H     H6       HDR5E    0.203000       1.00800           0   0.00000       0.00000    
      9077 IM1H     454      IM1H     N2       ND2R5C    2.04220       13.6070           0 -0.803000       1.00000    
      9078 IM1H     454      IM1H     DN2      DRUD     -2.19920      0.400000           0   0.00000       0.00000    
      9079 IM1H     454      IM1H     H7       HDP1A    0.363000       1.00800           0   0.00000       0.00000    
      9080 IM1H     454      IM1H     LPN21    LPD       0.00000       0.00000          -1   0.00000       0.00000    
      9081 IM1H     455      IM1H     C1       CD33F     2.48500       11.6110           0  -1.18100       1.10000    
      9082 IM1H     455      IM1H     DC1      DRUD     -2.66700      0.400000           0   0.00000       0.00000    
      9083 IM1H     455      IM1H     H1       HDA3A    0.135000       1.00800           0   0.00000       0.00000    
      9084 IM1H     455      IM1H     H2       HDA3A    0.135000       1.00800           0   0.00000       0.00000    
      9085 IM1H     455      IM1H     H3       HDA3A    0.135000       1.00800           0   0.00000       0.00000    
      9086 IM1H     455      IM1H     N1       ND2R5C    2.35720       13.6070           0 -0.803000       1.00000    
      9087 IM1H     455      IM1H     DN1      DRUD     -2.19920      0.400000           0   0.00000       0.00000    
      9088 IM1H     455      IM1H     C2       CD2R5D    2.44700       11.6110           0  -1.08300       1.10000    
      9089 IM1H     455      IM1H     DC2      DRUD     -2.55400      0.400000           0   0.00000       0.00000    
      9090 IM1H     455      IM1H     H4       HDR5D    0.195000       1.00800           0   0.00000       0.00000    
      9091 IM1H     455      IM1H     C3       CD2R5D    2.50700       11.6110           0  -1.08300       1.10000    
      9092 IM1H     455      IM1H     DC3      DRUD     -2.55400      0.400000           0   0.00000       0.00000    
      9093 IM1H     455      IM1H     H5       HDR5D    0.192000       1.00800           0   0.00000       0.00000    
      9094 IM1H     455      IM1H     C4       CD2R5E    2.72410       11.6110           0  -1.25300       1.20000    
      9095 IM1H     455      IM1H     DC4      DRUD     -2.74710      0.400000           0   0.00000       0.00000    
      9096 IM1H     455      IM1H     H6       HDR5E    0.203000       1.00800           0   0.00000       0.00000    
      9097 IM1H     455      IM1H     N2       ND2R5C    2.04220       13.6070           0 -0.803000       1.00000    
      9098 IM1H     455      IM1H     DN2      DRUD     -2.19920      0.400000           0   0.00000       0.00000    
      9099 IM1H     455      IM1H     H7       HDP1A    0.363000       1.00800           0   0.00000       0.00000    
      9100 IM1H     455      IM1H     LPN21    LPD       0.00000       0.00000          -1   0.00000       0.00000    
      9101 IM1H     456      IM1H     C1       CD33F     2.48500       11.6110           0  -1.18100       1.10000    
      9102 IM1H     456      IM1H     DC1      DRUD     -2.66700      0.400000           0   0.00000       0.00000    
      9103 IM1H     456      IM1H     H1       HDA3A    0.135000       1.00800           0   0.00000       0.00000    
      9104 IM1H     456      IM1H     H2       HDA3A    0.135000       1.00800           0   0.00000       0.00000    
      9105 IM1H     456      IM1H     H3       HDA3A    0.135000       1.00800           0   0.00000       0.00000    
      9106 IM1H     456      IM1H     N1       ND2R5C    2.35720       13.6070           0 -0.803000       1.00000    
      9107 IM1H     456      IM1H     DN1      DRUD     -2.19920      0.400000           0   0.00000       0.00000    
      9108 IM1H     456      IM1H     C2       CD2R5D    2.44700       11.6110           0  -1.08300       1.10000    
      9109 IM1H     456      IM1H     DC2      DRUD     -2.55400      0.400000           0   0.00000       0.00000    
      9110 IM1H     456      IM1H     H4       HDR5D    0.195000       1.00800           0   0.00000       0.00000    
      9111 IM1H     456      IM1H     C3       CD2R5D    2.50700       11.6110           0  -1.08300       1.10000    
      9112 IM1H     456      IM1H     DC3      DRUD     -2.55400      0.400000           0   0.00000       0.00000    
      9113 IM1H     456      IM1H     H5       HDR5D    0.192000       1.00800           0   0.00000       0.00000    
      9114 IM1H     456      IM1H     C4       CD2R5E    2.72410       11.6110           0  -1.25300       1.20000    
      9115 IM1H     456      IM1H     DC4      DRUD     -2.74710      0.400000           0   0.00000       0.00000    
      9116 IM1H     456      IM1H     H6       HDR5E    0.203000       1.00800           0   0.00000       0.00000    
      9117 IM1H     456      IM1H     N2       ND2R5C    2.04220       13.6070           0 -0.803000       1.00000    
      9118 IM1H     456      IM1H     DN2      DRUD     -2.19920      0.400000           0   0.00000       0.00000    
      9119 IM1H     456      IM1H     H7       HDP1A    0.363000       1.00800           0   0.00000       0.00000    
      9120 IM1H     456      IM1H     LPN21    LPD       0.00000       0.00000          -1   0.00000       0.00000    
      9121 IM1H     457      IM1H     C1       CD33F     2.48500       11.6110           0  -1.18100       1.10000    
      9122 IM1H     457      IM1H     DC1      DRUD     -2.66700      0.400000           0   0.00000       0.00000    
      9123 IM1H     457      IM1H     H1       HDA3A    0.135000       1.00800           0   0.00000       0.00000    
      9124 IM1H     457      IM1H     H2       HDA3A    0.135000       1.00800           0   0.00000       0.00000    
      9125 IM1H     457      IM1H     H3       HDA3A    0.135000       1.00800           0   0.00000       0.00000    
      9126 IM1H     457      IM1H     N1       ND2R5C    2.35720       13.6070           0 -0.803000       1.00000    
      9127 IM1H     457      IM1H     DN1      DRUD     -2.19920      0.400000           0   0.00000       0.00000    
      9128 IM1H     457      IM1H     C2       CD2R5D    2.44700       11.6110           0  -1.08300       1.10000    
      9129 IM1H     457      IM1H     DC2      DRUD     -2.55400      0.400000           0   0.00000       0.00000    
      9130 IM1H     457      IM1H     H4       HDR5D    0.195000       1.00800           0   0.00000       0.00000    
      9131 IM1H     457      IM1H     C3       CD2R5D    2.50700       11.6110           0  -1.08300       1.10000    
      9132 IM1H     457      IM1H     DC3      DRUD     -2.55400      0.400000           0   0.00000       0.00000    
      9133 IM1H     457      IM1H     H5       HDR5D    0.192000       1.00800           0   0.00000       0.00000    
      9134 IM1H     457      IM1H     C4       CD2R5E    2.72410       11.6110           0  -1.25300       1.20000    
      9135 IM1H     457      IM1H     DC4      DRUD     -2.74710      0.400000           0   0.00000       0.00000    
      9136 IM1H     457      IM1H     H6       HDR5E    0.203000       1.00800           0   0.00000       0.00000    
      9137 IM1H     457      IM1H     N2       ND2R5C    2.04220       13.6070           0 -0.803000       1.00000    
      9138 IM1H     457      IM1H     DN2      DRUD     -2.19920      0.400000           0   0.00000       0.00000    
      9139 IM1H     457      IM1H     H7       HDP1A    0.363000       1.00800           0   0.00000       0.00000    
      9140 IM1H     457      IM1H     LPN21    LPD       0.00000       0.00000          -1   0.00000       0.00000    
      9141 IM1H     458      IM1H     C1       CD33F     2.48500       11.6110           0  -1.18100       1.10000    
      9142 IM1H     458      IM1H     DC1      DRUD     -2.66700      0.400000           0   0.00000       0.00000    
      9143 IM1H     458      IM1H     H1       HDA3A    0.135000       1.00800           0   0.00000       0.00000    
      9144 IM1H     458      IM1H     H2       HDA3A    0.135000       1.00800           0   0.00000       0.00000    
      9145 IM1H     458      IM1H     H3       HDA3A    0.135000       1.00800           0   0.00000       0.00000    
      9146 IM1H     458      IM1H     N1       ND2R5C    2.35720       13.6070           0 -0.803000       1.00000    
      9147 IM1H     458      IM1H     DN1      DRUD     -2.19920      0.400000           0   0.00000       0.00000    
      9148 IM1H     458      IM1H     C2       CD2R5D    2.44700       11.6110           0  -1.08300       1.10000    
      9149 IM1H     458      IM1H     DC2      DRUD     -2.55400      0.400000           0   0.00000       0.00000    
      9150 IM1H     458      IM1H     H4       HDR5D    0.195000       1.00800           0   0.00000       0.00000    
      9151 IM1H     458      IM1H     C3       CD2R5D    2.50700       11.6110           0  -1.08300       1.10000    
      9152 IM1H     458      IM1H     DC3      DRUD     -2.55400      0.400000           0   0.00000       0.00000    
      9153 IM1H     458      IM1H     H5       HDR5D    0.192000       1.00800           0   0.00000       0.00000    
      9154 IM1H     458      IM1H     C4       CD2R5E    2.72410       11.6110           0  -1.25300       1.20000    
      9155 IM1H     458      IM1H     DC4      DRUD     -2.74710      0.400000           0   0.00000       0.00000    
      9156 IM1H     458      IM1H     H6       HDR5E    0.203000       1.00800           0   0.00000       0.00000    
      9157 IM1H     458      IM1H     N2       ND2R5C    2.04220       13.6070           0 -0.803000       1.00000    
      9158 IM1H     458      IM1H     DN2      DRUD     -2.19920      0.400000           0   0.00000       0.00000    
      9159 IM1H     458      IM1H     H7       HDP1A    0.363000       1.00800           0   0.00000       0.00000    
      9160 IM1H     458      IM1H     LPN21    LPD       0.00000       0.00000          -1   0.00000       0.00000    
      9161 IM1H     459      IM1H     C1       CD33F     2.48500       11.6110           0  -1.18100       1.10000    
      9162 IM1H     459      IM1H     DC1      DRUD     -2.66700      0.400000           0   0.00000       0.00000    
      9163 IM1H     459      IM1H     H1       HDA3A    0.135000       1.00800           0   0.00000       0.00000    
      9164 IM1H     459      IM1H     H2       HDA3A    0.135000       1.00800           0   0.00000       0.00000    
      9165 IM1H     459      IM1H     H3       HDA3A    0.135000       1.00800           0   0.00000       0.00000    
      9166 IM1H     459      IM1H     N1       ND2R5C    2.35720       13.6070           0 -0.803000       1.00000    
      9167 IM1H     459      IM1H     DN1      DRUD     -2.19920      0.400000           0   0.00000       0.00000    
      9168 IM1H     459      IM1H     C2       CD2R5D    2.44700       11.6110           0  -1.08300       1.10000    
      9169 IM1H     459      IM1H     DC2      DRUD     -2.55400      0.400000           0   0.00000       0.00000    
      9170 IM1H     459      IM1H     H4       HDR5D    0.195000       1.00800           0   0.00000       0.00000    
      9171 IM1H     459      IM1H     C3       CD2R5D    2.50700       11.6110           0  -1.08300       1.10000    
      9172 IM1H     459      IM1H     DC3      DRUD     -2.55400      0.400000           0   0.00000       0.00000    
      9173 IM1H     459      IM1H     H5       HDR5D    0.192000       1.00800           0   0.00000       0.00000    
      9174 IM1H     459      IM1H     C4       CD2R5E    2.72410       11.6110           0  -1.25300       1.20000    
      9175 IM1H     459      IM1H     DC4      DRUD     -2.74710      0.400000           0   0.00000       0.00000    
      9176 IM1H     459      IM1H     H6       HDR5E    0.203000       1.00800           0   0.00000       0.00000    
      9177 IM1H     459      IM1H     N2       ND2R5C    2.04220       13.6070           0 -0.803000       1.00000    
      9178 IM1H     459      IM1H     DN2      DRUD     -2.19920      0.400000           0   0.00000       0.00000    
      9179 IM1H     459      IM1H     H7       HDP1A    0.363000       1.00800           0   0.00000       0.00000    
      9180 IM1H     459      IM1H     LPN21    LPD       0.00000       0.00000          -1   0.00000       0.00000    
      9181 IM1H     460      IM1H     C1       CD33F     2.48500       11.6110           0  -1.18100       1.10000    
      9182 IM1H     460      IM1H     DC1      DRUD     -2.66700      0.400000           0   0.00000       0.00000    
      9183 IM1H     460      IM1H     H1       HDA3A    0.135000       1.00800           0   0.00000       0.00000    
      9184 IM1H     460      IM1H     H2       HDA3A    0.135000       1.00800           0   0.00000       0.00000    
      9185 IM1H     460      IM1H     H3       HDA3A    0.135000       1.00800           0   0.00000       0.00000    
      9186 IM1H     460      IM1H     N1       ND2R5C    2.35720       13.6070           0 -0.803000       1.00000    
      9187 IM1H     460      IM1H     DN1      DRUD     -2.19920      0.400000           0   0.00000       0.00000    
      9188 IM1H     460      IM1H     C2       CD2R5D    2.44700       11.6110           0  -1.08300       1.10000    
      9189 IM1H     460      IM1H     DC2      DRUD     -2.55400      0.400000           0   0.00000       0.00000    
      9190 IM1H     460      IM1H     H4       HDR5D    0.195000       1.00800           0   0.00000       0.00000    
      9191 IM1H     460      IM1H     C3       CD2R5D    2.50700       11.6110           0  -1.08300       1.10000    
      9192 IM1H     460      IM1H     DC3      DRUD     -2.55400      0.400000           0   0.00000       0.00000    
      9193 IM1H     460      IM1H     H5       HDR5D    0.192000       1.00800           0   0.00000       0.00000    
      9194 IM1H     460      IM1H     C4       CD2R5E    2.72410       11.6110           0  -1.25300       1.20000    
      9195 IM1H     460      IM1H     DC4      DRUD     -2.74710      0.400000           0   0.00000       0.00000    
      9196 IM1H     460      IM1H     H6       HDR5E    0.203000       1.00800           0   0.00000       0.00000    
      9197 IM1H     460      IM1H     N2       ND2R5C    2.04220       13.6070           0 -0.803000       1.00000    
      9198 IM1H     460      IM1H     DN2      DRUD     -2.19920      0.400000           0   0.00000       0.00000    
      9199 IM1H     460      IM1H     H7       HDP1A    0.363000       1.00800           0   0.00000       0.00000    
      9200 IM1H     460      IM1H     LPN21    LPD       0.00000       0.00000          -1   0.00000       0.00000    
      9201 IM1H     461      IM1H     C1       CD33F     2.48500       11.6110           0  -1.18100       1.10000    
      9202 IM1H     461      IM1H     DC1      DRUD     -2.66700      0.400000           0   0.00000       0.00000    
      9203 IM1H     461      IM1H     H1       HDA3A    0.135000       1.00800           0   0.00000       0.00000    
      9204 IM1H     461      IM1H     H2       HDA3A    0.135000       1.00800           0   0.00000       0.00000    
      9205 IM1H     461      IM1H     H3       HDA3A    0.135000       1.00800           0   0.00000       0.00000    
      9206 IM1H     461      IM1H     N1       ND2R5C    2.35720       13.6070           0 -0.803000       1.00000    
      9207 IM1H     461      IM1H     DN1      DRUD     -2.19920      0.400000           0   0.00000       0.00000    
      9208 IM1H     461      IM1H     C2       CD2R5D    2.44700       11.6110           0  -1.08300       1.10000    
      9209 IM1H     461      IM1H     DC2      DRUD     -2.55400      0.400000           0   0.00000       0.00000    
      9210 IM1H     461      IM1H     H4       HDR5D    0.195000       1.00800           0   0.00000       0.00000    
      9211 IM1H     461      IM1H     C3       CD2R5D    2.50700       11.6110           0  -1.08300       1.10000    
      9212 IM1H     461      IM1H     DC3      DRUD     -2.55400      0.400000           0   0.00000       0.00000    
      9213 IM1H     461      IM1H     H5       HDR5D    0.192000       1.00800           0   0.00000       0.00000    
      9214 IM1H     461      IM1H     C4       CD2R5E    2.72410       11.6110           0  -1.25300       1.20000    
      9215 IM1H     461      IM1H     DC4      DRUD     -2.74710      0.400000           0   0.00000       0.00000    
      9216 IM1H     461      IM1H     H6       HDR5E    0.203000       1.00800           0   0.00000       0.00000    
      9217 IM1H     461      IM1H     N2       ND2R5C    2.04220       13.6070           0 -0.803000       1.00000    
      9218 IM1H     461      IM1H     DN2      DRUD     -2.19920      0.400000           0   0.00000       0.00000    
      9219 IM1H     461      IM1H     H7       HDP1A    0.363000       1.00800           0   0.00000       0.00000    
      9220 IM1H     461      IM1H     LPN21    LPD       0.00000       0.00000          -1   0.00000       0.00000    
      9221 IM1H     462      IM1H     C1       CD33F     2.48500       11.6110           0  -1.18100       1.10000    
      9222 IM1H     462      IM1H     DC1      DRUD     -2.66700      0.400000           0   0.00000       0.00000    
      9223 IM1H     462      IM1H     H1       HDA3A    0.135000       1.00800           0   0.00000       0.00000    
      9224 IM1H     462      IM1H     H2       HDA3A    0.135000       1.00800           0   0.00000       0.00000    
      9225 IM1H     462      IM1H     H3       HDA3A    0.135000       1.00800           0   0.00000       0.00000    
      9226 IM1H     462      IM1H     N1       ND2R5C    2.35720       13.6070           0 -0.803000       1.00000    
      9227 IM1H     462      IM1H     DN1      DRUD     -2.19920      0.400000           0   0.00000       0.00000    
      9228 IM1H     462      IM1H     C2       CD2R5D    2.44700       11.6110           0  -1.08300       1.10000    
      9229 IM1H     462      IM1H     DC2      DRUD     -2.55400      0.400000           0   0.00000       0.00000    
      9230 IM1H     462      IM1H     H4       HDR5D    0.195000       1.00800           0   0.00000       0.00000    
      9231 IM1H     462      IM1H     C3       CD2R5D    2.50700       11.6110           0  -1.08300       1.10000    
      9232 IM1H     462      IM1H     DC3      DRUD     -2.55400      0.400000           0   0.00000       0.00000    
      9233 IM1H     462      IM1H     H5       HDR5D    0.192000       1.00800           0   0.00000       0.00000    
      9234 IM1H     462      IM1H     C4       CD2R5E    2.72410       11.6110           0  -1.25300       1.20000    
      9235 IM1H     462      IM1H     DC4      DRUD     -2.74710      0.400000           0   0.00000       0.00000    
      9236 IM1H     462      IM1H     H6       HDR5E    0.203000       1.00800           0   0.00000       0.00000    
      9237 IM1H     462      IM1H     N2       ND2R5C    2.04220       13.6070           0 -0.803000       1.00000    
      9238 IM1H     462      IM1H     DN2      DRUD     -2.19920      0.400000           0   0.00000       0.00000    
      9239 IM1H     462      IM1H     H7       HDP1A    0.363000       1.00800           0   0.00000       0.00000    
      9240 IM1H     462      IM1H     LPN21    LPD       0.00000       0.00000          -1   0.00000       0.00000    
      9241 IM1H     463      IM1H     C1       CD33F     2.48500       11.6110           0  -1.18100       1.10000    
      9242 IM1H     463      IM1H     DC1      DRUD     -2.66700      0.400000           0   0.00000       0.00000    
      9243 IM1H     463      IM1H     H1       HDA3A    0.135000       1.00800           0   0.00000       0.00000    
      9244 IM1H     463      IM1H     H2       HDA3A    0.135000       1.00800           0   0.00000       0.00000    
      9245 IM1H     463      IM1H     H3       HDA3A    0.135000       1.00800           0   0.00000       0.00000    
      9246 IM1H     463      IM1H     N1       ND2R5C    2.35720       13.6070           0 -0.803000       1.00000    
      9247 IM1H     463      IM1H     DN1      DRUD     -2.19920      0.400000           0   0.00000       0.00000    
      9248 IM1H     463      IM1H     C2       CD2R5D    2.44700       11.6110           0  -1.08300       1.10000    
      9249 IM1H     463      IM1H     DC2      DRUD     -2.55400      0.400000           0   0.00000       0.00000    
      9250 IM1H     463      IM1H     H4       HDR5D    0.195000       1.00800           0   0.00000       0.00000    
      9251 IM1H     463      IM1H     C3       CD2R5D    2.50700       11.6110           0  -1.08300       1.10000    
      9252 IM1H     463      IM1H     DC3      DRUD     -2.55400      0.400000           0   0.00000       0.00000    
      9253 IM1H     463      IM1H     H5       HDR5D    0.192000       1.00800           0   0.00000       0.00000    
      9254 IM1H     463      IM1H     C4       CD2R5E    2.72410       11.6110           0  -1.25300       1.20000    
      9255 IM1H     463      IM1H     DC4      DRUD     -2.74710      0.400000           0   0.00000       0.00000    
      9256 IM1H     463      IM1H     H6       HDR5E    0.203000       1.00800           0   0.00000       0.00000    
      9257 IM1H     463      IM1H     N2       ND2R5C    2.04220       13.6070           0 -0.803000       1.00000    
      9258 IM1H     463      IM1H     DN2      DRUD     -2.19920      0.400000           0   0.00000       0.00000    
      9259 IM1H     463      IM1H     H7       HDP1A    0.363000       1.00800           0   0.00000       0.00000    
      9260 IM1H     463      IM1H     LPN21    LPD       0.00000       0.00000          -1   0.00000       0.00000    
      9261 IM1H     464      IM1H     C1       CD33F     2.48500       11.6110           0  -1.18100       1.10000    
      9262 IM1H     464      IM1H     DC1      DRUD     -2.66700      0.400000           0   0.00000       0.00000    
      9263 IM1H     464      IM1H     H1       HDA3A    0.135000       1.00800           0   0.00000       0.00000    
      9264 IM1H     464      IM1H     H2       HDA3A    0.135000       1.00800           0   0.00000       0.00000    
      9265 IM1H     464      IM1H     H3       HDA3A    0.135000       1.00800           0   0.00000       0.00000    
      9266 IM1H     464      IM1H     N1       ND2R5C    2.35720       13.6070           0 -0.803000       1.00000    
      9267 IM1H     464      IM1H     DN1      DRUD     -2.19920      0.400000           0   0.00000       0.00000    
      9268 IM1H     464      IM1H     C2       CD2R5D    2.44700       11.6110           0  -1.08300       1.10000    
      9269 IM1H     464      IM1H     DC2      DRUD     -2.55400      0.400000           0   0.00000       0.00000    
      9270 IM1H     464      IM1H     H4       HDR5D    0.195000       1.00800           0   0.00000       0.00000    
      9271 IM1H     464      IM1H     C3       CD2R5D    2.50700       11.6110           0  -1.08300       1.10000    
      9272 IM1H     464      IM1H     DC3      DRUD     -2.55400      0.400000           0   0.00000       0.00000    
      9273 IM1H     464      IM1H     H5       HDR5D    0.192000       1.00800           0   0.00000       0.00000    
      9274 IM1H     464      IM1H     C4       CD2R5E    2.72410       11.6110           0  -1.25300       1.20000    
      9275 IM1H     464      IM1H     DC4      DRUD     -2.74710      0.400000           0   0.00000       0.00000    
      9276 IM1H     464      IM1H     H6       HDR5E    0.203000       1.00800           0   0.00000       0.00000    
      9277 IM1H     464      IM1H     N2       ND2R5C    2.04220       13.6070           0 -0.803000       1.00000    
      9278 IM1H     464      IM1H     DN2      DRUD     -2.19920      0.400000           0   0.00000       0.00000    
      9279 IM1H     464      IM1H     H7       HDP1A    0.363000       1.00800           0   0.00000       0.00000    
      9280 IM1H     464      IM1H     LPN21    LPD       0.00000       0.00000          -1   0.00000       0.00000    
      9281 IM1H     465      IM1H     C1       CD33F     2.48500       11.6110           0  -1.18100       1.10000    
      9282 IM1H     465      IM1H     DC1      DRUD     -2.66700      0.400000           0   0.00000       0.00000    
      9283 IM1H     465      IM1H     H1       HDA3A    0.135000       1.00800           0   0.00000       0.00000    
      9284 IM1H     465      IM1H     H2       HDA3A    0.135000       1.00800           0   0.00000       0.00000    
      9285 IM1H     465      IM1H     H3       HDA3A    0.135000       1.00800           0   0.00000       0.00000    
      9286 IM1H     465      IM1H     N1       ND2R5C    2.35720       13.6070           0 -0.803000       1.00000    
      9287 IM1H     465      IM1H     DN1      DRUD     -2.19920      0.400000           0   0.00000       0.00000    
      9288 IM1H     465      IM1H     C2       CD2R5D    2.44700       11.6110           0  -1.08300       1.10000    
      9289 IM1H     465      IM1H     DC2      DRUD     -2.55400      0.400000           0   0.00000       0.00000    
      9290 IM1H     465      IM1H     H4       HDR5D    0.195000       1.00800           0   0.00000       0.00000    
      9291 IM1H     465      IM1H     C3       CD2R5D    2.50700       11.6110           0  -1.08300       1.10000    
      9292 IM1H     465      IM1H     DC3      DRUD     -2.55400      0.400000           0   0.00000       0.00000    
      9293 IM1H     465      IM1H     H5       HDR5D    0.192000       1.00800           0   0.00000       0.00000    
      9294 IM1H     465      IM1H     C4       CD2R5E    2.72410       11.6110           0  -1.25300       1.20000    
      9295 IM1H     465      IM1H     DC4      DRUD     -2.74710      0.400000           0   0.00000       0.00000    
      9296 IM1H     465      IM1H     H6       HDR5E    0.203000       1.00800           0   0.00000       0.00000    
      9297 IM1H     465      IM1H     N2       ND2R5C    2.04220       13.6070           0 -0.803000       1.00000    
      9298 IM1H     465      IM1H     DN2      DRUD     -2.19920      0.400000           0   0.00000       0.00000    
      9299 IM1H     465      IM1H     H7       HDP1A    0.363000       1.00800           0   0.00000       0.00000    
      9300 IM1H     465      IM1H     LPN21    LPD       0.00000       0.00000          -1   0.00000       0.00000    
      9301 IM1H     466      IM1H     C1       CD33F     2.48500       11.6110           0  -1.18100       1.10000    
      9302 IM1H     466      IM1H     DC1      DRUD     -2.66700      0.400000           0   0.00000       0.00000    
      9303 IM1H     466      IM1H     H1       HDA3A    0.135000       1.00800           0   0.00000       0.00000    
      9304 IM1H     466      IM1H     H2       HDA3A    0.135000       1.00800           0   0.00000       0.00000    
      9305 IM1H     466      IM1H     H3       HDA3A    0.135000       1.00800           0   0.00000       0.00000    
      9306 IM1H     466      IM1H     N1       ND2R5C    2.35720       13.6070           0 -0.803000       1.00000    
      9307 IM1H     466      IM1H     DN1      DRUD     -2.19920      0.400000           0   0.00000       0.00000    
      9308 IM1H     466      IM1H     C2       CD2R5D    2.44700       11.6110           0  -1.08300       1.10000    
      9309 IM1H     466      IM1H     DC2      DRUD     -2.55400      0.400000           0   0.00000       0.00000    
      9310 IM1H     466      IM1H     H4       HDR5D    0.195000       1.00800           0   0.00000       0.00000    
      9311 IM1H     466      IM1H     C3       CD2R5D    2.50700       11.6110           0  -1.08300       1.10000    
      9312 IM1H     466      IM1H     DC3      DRUD     -2.55400      0.400000           0   0.00000       0.00000    
      9313 IM1H     466      IM1H     H5       HDR5D    0.192000       1.00800           0   0.00000       0.00000    
      9314 IM1H     466      IM1H     C4       CD2R5E    2.72410       11.6110           0  -1.25300       1.20000    
      9315 IM1H     466      IM1H     DC4      DRUD     -2.74710      0.400000           0   0.00000       0.00000    
      9316 IM1H     466      IM1H     H6       HDR5E    0.203000       1.00800           0   0.00000       0.00000    
      9317 IM1H     466      IM1H     N2       ND2R5C    2.04220       13.6070           0 -0.803000       1.00000    
      9318 IM1H     466      IM1H     DN2      DRUD     -2.19920      0.400000           0   0.00000       0.00000    
      9319 IM1H     466      IM1H     H7       HDP1A    0.363000       1.00800           0   0.00000       0.00000    
      9320 IM1H     466      IM1H     LPN21    LPD       0.00000       0.00000          -1   0.00000       0.00000    
      9321 IM1H     467      IM1H     C1       CD33F     2.48500       11.6110           0  -1.18100       1.10000    
      9322 IM1H     467      IM1H     DC1      DRUD     -2.66700      0.400000           0   0.00000       0.00000    
      9323 IM1H     467      IM1H     H1       HDA3A    0.135000       1.00800           0   0.00000       0.00000    
      9324 IM1H     467      IM1H     H2       HDA3A    0.135000       1.00800           0   0.00000       0.00000    
      9325 IM1H     467      IM1H     H3       HDA3A    0.135000       1.00800           0   0.00000       0.00000    
      9326 IM1H     467      IM1H     N1       ND2R5C    2.35720       13.6070           0 -0.803000       1.00000    
      9327 IM1H     467      IM1H     DN1      DRUD     -2.19920      0.400000           0   0.00000       0.00000    
      9328 IM1H     467      IM1H     C2       CD2R5D    2.44700       11.6110           0  -1.08300       1.10000    
      9329 IM1H     467      IM1H     DC2      DRUD     -2.55400      0.400000           0   0.00000       0.00000    
      9330 IM1H     467      IM1H     H4       HDR5D    0.195000       1.00800           0   0.00000       0.00000    
      9331 IM1H     467      IM1H     C3       CD2R5D    2.50700       11.6110           0  -1.08300       1.10000    
      9332 IM1H     467      IM1H     DC3      DRUD     -2.55400      0.400000           0   0.00000       0.00000    
      9333 IM1H     467      IM1H     H5       HDR5D    0.192000       1.00800           0   0.00000       0.00000    
      9334 IM1H     467      IM1H     C4       CD2R5E    2.72410       11.6110           0  -1.25300       1.20000    
      9335 IM1H     467      IM1H     DC4      DRUD     -2.74710      0.400000           0   0.00000       0.00000    
      9336 IM1H     467      IM1H     H6       HDR5E    0.203000       1.00800           0   0.00000       0.00000    
      9337 IM1H     467      IM1H     N2       ND2R5C    2.04220       13.6070           0 -0.803000       1.00000    
      9338 IM1H     467      IM1H     DN2      DRUD     -2.19920      0.400000           0   0.00000       0.00000    
      9339 IM1H     467      IM1H     H7       HDP1A    0.363000       1.00800           0   0.00000       0.00000    
      9340 IM1H     467      IM1H     LPN21    LPD       0.00000       0.00000          -1   0.00000       0.00000    
      9341 IM1H     468      IM1H     C1       CD33F     2.48500       11.6110           0  -1.18100       1.10000    
      9342 IM1H     468      IM1H     DC1      DRUD     -2.66700      0.400000           0   0.00000       0.00000    
      9343 IM1H     468      IM1H     H1       HDA3A    0.135000       1.00800           0   0.00000       0.00000    
      9344 IM1H     468      IM1H     H2       HDA3A    0.135000       1.00800           0   0.00000       0.00000    
      9345 IM1H     468      IM1H     H3       HDA3A    0.135000       1.00800           0   0.00000       0.00000    
      9346 IM1H     468      IM1H     N1       ND2R5C    2.35720       13.6070           0 -0.803000       1.00000    
      9347 IM1H     468      IM1H     DN1      DRUD     -2.19920      0.400000           0   0.00000       0.00000    
      9348 IM1H     468      IM1H     C2       CD2R5D    2.44700       11.6110           0  -1.08300       1.10000    
      9349 IM1H     468      IM1H     DC2      DRUD     -2.55400      0.400000           0   0.00000       0.00000    
      9350 IM1H     468      IM1H     H4       HDR5D    0.195000       1.00800           0   0.00000       0.00000    
      9351 IM1H     468      IM1H     C3       CD2R5D    2.50700       11.6110           0  -1.08300       1.10000    
      9352 IM1H     468      IM1H     DC3      DRUD     -2.55400      0.400000           0   0.00000       0.00000    
      9353 IM1H     468      IM1H     H5       HDR5D    0.192000       1.00800           0   0.00000       0.00000    
      9354 IM1H     468      IM1H     C4       CD2R5E    2.72410       11.6110           0  -1.25300       1.20000    
      9355 IM1H     468      IM1H     DC4      DRUD     -2.74710      0.400000           0   0.00000       0.00000    
      9356 IM1H     468      IM1H     H6       HDR5E    0.203000       1.00800           0   0.00000       0.00000    
      9357 IM1H     468      IM1H     N2       ND2R5C    2.04220       13.6070           0 -0.803000       1.00000    
      9358 IM1H     468      IM1H     DN2      DRUD     -2.19920      0.400000           0   0.00000       0.00000    
      9359 IM1H     468      IM1H     H7       HDP1A    0.363000       1.00800           0   0.00000       0.00000    
      9360 IM1H     468      IM1H     LPN21    LPD       0.00000       0.00000          -1   0.00000       0.00000    
      9361 IM1H     469      IM1H     C1       CD33F     2.48500       11.6110           0  -1.18100       1.10000    
      9362 IM1H     469      IM1H     DC1      DRUD     -2.66700      0.400000           0   0.00000       0.00000    
      9363 IM1H     469      IM1H     H1       HDA3A    0.135000       1.00800           0   0.00000       0.00000    
      9364 IM1H     469      IM1H     H2       HDA3A    0.135000       1.00800           0   0.00000       0.00000    
      9365 IM1H     469      IM1H     H3       HDA3A    0.135000       1.00800           0   0.00000       0.00000    
      9366 IM1H     469      IM1H     N1       ND2R5C    2.35720       13.6070           0 -0.803000       1.00000    
      9367 IM1H     469      IM1H     DN1      DRUD     -2.19920      0.400000           0   0.00000       0.00000    
      9368 IM1H     469      IM1H     C2       CD2R5D    2.44700       11.6110           0  -1.08300       1.10000    
      9369 IM1H     469      IM1H     DC2      DRUD     -2.55400      0.400000           0   0.00000       0.00000    
      9370 IM1H     469      IM1H     H4       HDR5D    0.195000       1.00800           0   0.00000       0.00000    
      9371 IM1H     469      IM1H     C3       CD2R5D    2.50700       11.6110           0  -1.08300       1.10000    
      9372 IM1H     469      IM1H     DC3      DRUD     -2.55400      0.400000           0   0.00000       0.00000    
      9373 IM1H     469      IM1H     H5       HDR5D    0.192000       1.00800           0   0.00000       0.00000    
      9374 IM1H     469      IM1H     C4       CD2R5E    2.72410       11.6110           0  -1.25300       1.20000    
      9375 IM1H     469      IM1H     DC4      DRUD     -2.74710      0.400000           0   0.00000       0.00000    
      9376 IM1H     469      IM1H     H6       HDR5E    0.203000       1.00800           0   0.00000       0.00000    
      9377 IM1H     469      IM1H     N2       ND2R5C    2.04220       13.6070           0 -0.803000       1.00000    
      9378 IM1H     469      IM1H     DN2      DRUD     -2.19920      0.400000           0   0.00000       0.00000    
      9379 IM1H     469      IM1H     H7       HDP1A    0.363000       1.00800           0   0.00000       0.00000    
      9380 IM1H     469      IM1H     LPN21    LPD       0.00000       0.00000          -1   0.00000       0.00000    
      9381 IM1H     470      IM1H     C1       CD33F     2.48500       11.6110           0  -1.18100       1.10000    
      9382 IM1H     470      IM1H     DC1      DRUD     -2.66700      0.400000           0   0.00000       0.00000    
      9383 IM1H     470      IM1H     H1       HDA3A    0.135000       1.00800           0   0.00000       0.00000    
      9384 IM1H     470      IM1H     H2       HDA3A    0.135000       1.00800           0   0.00000       0.00000    
      9385 IM1H     470      IM1H     H3       HDA3A    0.135000       1.00800           0   0.00000       0.00000    
      9386 IM1H     470      IM1H     N1       ND2R5C    2.35720       13.6070           0 -0.803000       1.00000    
      9387 IM1H     470      IM1H     DN1      DRUD     -2.19920      0.400000           0   0.00000       0.00000    
      9388 IM1H     470      IM1H     C2       CD2R5D    2.44700       11.6110           0  -1.08300       1.10000    
      9389 IM1H     470      IM1H     DC2      DRUD     -2.55400      0.400000           0   0.00000       0.00000    
      9390 IM1H     470      IM1H     H4       HDR5D    0.195000       1.00800           0   0.00000       0.00000    
      9391 IM1H     470      IM1H     C3       CD2R5D    2.50700       11.6110           0  -1.08300       1.10000    
      9392 IM1H     470      IM1H     DC3      DRUD     -2.55400      0.400000           0   0.00000       0.00000    
      9393 IM1H     470      IM1H     H5       HDR5D    0.192000       1.00800           0   0.00000       0.00000    
      9394 IM1H     470      IM1H     C4       CD2R5E    2.72410       11.6110           0  -1.25300       1.20000    
      9395 IM1H     470      IM1H     DC4      DRUD     -2.74710      0.400000           0   0.00000       0.00000    
      9396 IM1H     470      IM1H     H6       HDR5E    0.203000       1.00800           0   0.00000       0.00000    
      9397 IM1H     470      IM1H     N2       ND2R5C    2.04220       13.6070           0 -0.803000       1.00000    
      9398 IM1H     470      IM1H     DN2      DRUD     -2.19920      0.400000           0   0.00000       0.00000    
      9399 IM1H     470      IM1H     H7       HDP1A    0.363000       1.00800           0   0.00000       0.00000    
      9400 IM1H     470      IM1H     LPN21    LPD       0.00000       0.00000          -1   0.00000       0.00000    
      9401 IM1H     471      IM1H     C1       CD33F     2.48500       11.6110           0  -1.18100       1.10000    
      9402 IM1H     471      IM1H     DC1      DRUD     -2.66700      0.400000           0   0.00000       0.00000    
      9403 IM1H     471      IM1H     H1       HDA3A    0.135000       1.00800           0   0.00000       0.00000    
      9404 IM1H     471      IM1H     H2       HDA3A    0.135000       1.00800           0   0.00000       0.00000    
      9405 IM1H     471      IM1H     H3       HDA3A    0.135000       1.00800           0   0.00000       0.00000    
      9406 IM1H     471      IM1H     N1       ND2R5C    2.35720       13.6070           0 -0.803000       1.00000    
      9407 IM1H     471      IM1H     DN1      DRUD     -2.19920      0.400000           0   0.00000       0.00000    
      9408 IM1H     471      IM1H     C2       CD2R5D    2.44700       11.6110           0  -1.08300       1.10000    
      9409 IM1H     471      IM1H     DC2      DRUD     -2.55400      0.400000           0   0.00000       0.00000    
      9410 IM1H     471      IM1H     H4       HDR5D    0.195000       1.00800           0   0.00000       0.00000    
      9411 IM1H     471      IM1H     C3       CD2R5D    2.50700       11.6110           0  -1.08300       1.10000    
      9412 IM1H     471      IM1H     DC3      DRUD     -2.55400      0.400000           0   0.00000       0.00000    
      9413 IM1H     471      IM1H     H5       HDR5D    0.192000       1.00800           0   0.00000       0.00000    
      9414 IM1H     471      IM1H     C4       CD2R5E    2.72410       11.6110           0  -1.25300       1.20000    
      9415 IM1H     471      IM1H     DC4      DRUD     -2.74710      0.400000           0   0.00000       0.00000    
      9416 IM1H     471      IM1H     H6       HDR5E    0.203000       1.00800           0   0.00000       0.00000    
      9417 IM1H     471      IM1H     N2       ND2R5C    2.04220       13.6070           0 -0.803000       1.00000    
      9418 IM1H     471      IM1H     DN2      DRUD     -2.19920      0.400000           0   0.00000       0.00000    
      9419 IM1H     471      IM1H     H7       HDP1A    0.363000       1.00800           0   0.00000       0.00000    
      9420 IM1H     471      IM1H     LPN21    LPD       0.00000       0.00000          -1   0.00000       0.00000    
      9421 IM1H     472      IM1H     C1       CD33F     2.48500       11.6110           0  -1.18100       1.10000    
      9422 IM1H     472      IM1H     DC1      DRUD     -2.66700      0.400000           0   0.00000       0.00000    
      9423 IM1H     472      IM1H     H1       HDA3A    0.135000       1.00800           0   0.00000       0.00000    
      9424 IM1H     472      IM1H     H2       HDA3A    0.135000       1.00800           0   0.00000       0.00000    
      9425 IM1H     472      IM1H     H3       HDA3A    0.135000       1.00800           0   0.00000       0.00000    
      9426 IM1H     472      IM1H     N1       ND2R5C    2.35720       13.6070           0 -0.803000       1.00000    
      9427 IM1H     472      IM1H     DN1      DRUD     -2.19920      0.400000           0   0.00000       0.00000    
      9428 IM1H     472      IM1H     C2       CD2R5D    2.44700       11.6110           0  -1.08300       1.10000    
      9429 IM1H     472      IM1H     DC2      DRUD     -2.55400      0.400000           0   0.00000       0.00000    
      9430 IM1H     472      IM1H     H4       HDR5D    0.195000       1.00800           0   0.00000       0.00000    
      9431 IM1H     472      IM1H     C3       CD2R5D    2.50700       11.6110           0  -1.08300       1.10000    
      9432 IM1H     472      IM1H     DC3      DRUD     -2.55400      0.400000           0   0.00000       0.00000    
      9433 IM1H     472      IM1H     H5       HDR5D    0.192000       1.00800           0   0.00000       0.00000    
      9434 IM1H     472      IM1H     C4       CD2R5E    2.72410       11.6110           0  -1.25300       1.20000    
      9435 IM1H     472      IM1H     DC4      DRUD     -2.74710      0.400000           0   0.00000       0.00000    
      9436 IM1H     472      IM1H     H6       HDR5E    0.203000       1.00800           0   0.00000       0.00000    
      9437 IM1H     472      IM1H     N2       ND2R5C    2.04220       13.6070           0 -0.803000       1.00000    
      9438 IM1H     472      IM1H     DN2      DRUD     -2.19920      0.400000           0   0.00000       0.00000    
      9439 IM1H     472      IM1H     H7       HDP1A    0.363000       1.00800           0   0.00000       0.00000    
      9440 IM1H     472      IM1H     LPN21    LPD       0.00000       0.00000          -1   0.00000       0.00000    
      9441 IM1H     473      IM1H     C1       CD33F     2.48500       11.6110           0  -1.18100       1.10000    
      9442 IM1H     473      IM1H     DC1      DRUD     -2.66700      0.400000           0   0.00000       0.00000    
      9443 IM1H     473      IM1H     H1       HDA3A    0.135000       1.00800           0   0.00000       0.00000    
      9444 IM1H     473      IM1H     H2       HDA3A    0.135000       1.00800           0   0.00000       0.00000    
      9445 IM1H     473      IM1H     H3       HDA3A    0.135000       1.00800           0   0.00000       0.00000    
      9446 IM1H     473      IM1H     N1       ND2R5C    2.35720       13.6070           0 -0.803000       1.00000    
      9447 IM1H     473      IM1H     DN1      DRUD     -2.19920      0.400000           0   0.00000       0.00000    
      9448 IM1H     473      IM1H     C2       CD2R5D    2.44700       11.6110           0  -1.08300       1.10000    
      9449 IM1H     473      IM1H     DC2      DRUD     -2.55400      0.400000           0   0.00000       0.00000    
      9450 IM1H     473      IM1H     H4       HDR5D    0.195000       1.00800           0   0.00000       0.00000    
      9451 IM1H     473      IM1H     C3       CD2R5D    2.50700       11.6110           0  -1.08300       1.10000    
      9452 IM1H     473      IM1H     DC3      DRUD     -2.55400      0.400000           0   0.00000       0.00000    
      9453 IM1H     473      IM1H     H5       HDR5D    0.192000       1.00800           0   0.00000       0.00000    
      9454 IM1H     473      IM1H     C4       CD2R5E    2.72410       11.6110           0  -1.25300       1.20000    
      9455 IM1H     473      IM1H     DC4      DRUD     -2.74710      0.400000           0   0.00000       0.00000    
      9456 IM1H     473      IM1H     H6       HDR5E    0.203000       1.00800           0   0.00000       0.00000    
      9457 IM1H     473      IM1H     N2       ND2R5C    2.04220       13.6070           0 -0.803000       1.00000    
      9458 IM1H     473      IM1H     DN2      DRUD     -2.19920      0.400000           0   0.00000       0.00000    
      9459 IM1H     473      IM1H     H7       HDP1A    0.363000       1.00800           0   0.00000       0.00000    
      9460 IM1H     473      IM1H     LPN21    LPD       0.00000       0.00000          -1   0.00000       0.00000    
      9461 IM1H     474      IM1H     C1       CD33F     2.48500       11.6110           0  -1.18100       1.10000    
      9462 IM1H     474      IM1H     DC1      DRUD     -2.66700      0.400000           0   0.00000       0.00000    
      9463 IM1H     474      IM1H     H1       HDA3A    0.135000       1.00800           0   0.00000       0.00000    
      9464 IM1H     474      IM1H     H2       HDA3A    0.135000       1.00800           0   0.00000       0.00000    
      9465 IM1H     474      IM1H     H3       HDA3A    0.135000       1.00800           0   0.00000       0.00000    
      9466 IM1H     474      IM1H     N1       ND2R5C    2.35720       13.6070           0 -0.803000       1.00000    
      9467 IM1H     474      IM1H     DN1      DRUD     -2.19920      0.400000           0   0.00000       0.00000    
      9468 IM1H     474      IM1H     C2       CD2R5D    2.44700       11.6110           0  -1.08300       1.10000    
      9469 IM1H     474      IM1H     DC2      DRUD     -2.55400      0.400000           0   0.00000       0.00000    
      9470 IM1H     474      IM1H     H4       HDR5D    0.195000       1.00800           0   0.00000       0.00000    
      9471 IM1H     474      IM1H     C3       CD2R5D    2.50700       11.6110           0  -1.08300       1.10000    
      9472 IM1H     474      IM1H     DC3      DRUD     -2.55400      0.400000           0   0.00000       0.00000    
      9473 IM1H     474      IM1H     H5       HDR5D    0.192000       1.00800           0   0.00000       0.00000    
      9474 IM1H     474      IM1H     C4       CD2R5E    2.72410       11.6110           0  -1.25300       1.20000    
      9475 IM1H     474      IM1H     DC4      DRUD     -2.74710      0.400000           0   0.00000       0.00000    
      9476 IM1H     474      IM1H     H6       HDR5E    0.203000       1.00800           0   0.00000       0.00000    
      9477 IM1H     474      IM1H     N2       ND2R5C    2.04220       13.6070           0 -0.803000       1.00000    
      9478 IM1H     474      IM1H     DN2      DRUD     -2.19920      0.400000           0   0.00000       0.00000    
      9479 IM1H     474      IM1H     H7       HDP1A    0.363000       1.00800           0   0.00000       0.00000    
      9480 IM1H     474      IM1H     LPN21    LPD       0.00000       0.00000          -1   0.00000       0.00000    
      9481 IM1H     475      IM1H     C1       CD33F     2.48500       11.6110           0  -1.18100       1.10000    
      9482 IM1H     475      IM1H     DC1      DRUD     -2.66700      0.400000           0   0.00000       0.00000    
      9483 IM1H     475      IM1H     H1       HDA3A    0.135000       1.00800           0   0.00000       0.00000    
      9484 IM1H     475      IM1H     H2       HDA3A    0.135000       1.00800           0   0.00000       0.00000    
      9485 IM1H     475      IM1H     H3       HDA3A    0.135000       1.00800           0   0.00000       0.00000    
      9486 IM1H     475      IM1H     N1       ND2R5C    2.35720       13.6070           0 -0.803000       1.00000    
      9487 IM1H     475      IM1H     DN1      DRUD     -2.19920      0.400000           0   0.00000       0.00000    
      9488 IM1H     475      IM1H     C2       CD2R5D    2.44700       11.6110           0  -1.08300       1.10000    
      9489 IM1H     475      IM1H     DC2      DRUD     -2.55400      0.400000           0   0.00000       0.00000    
      9490 IM1H     475      IM1H     H4       HDR5D    0.195000       1.00800           0   0.00000       0.00000    
      9491 IM1H     475      IM1H     C3       CD2R5D    2.50700       11.6110           0  -1.08300       1.10000    
      9492 IM1H     475      IM1H     DC3      DRUD     -2.55400      0.400000           0   0.00000       0.00000    
      9493 IM1H     475      IM1H     H5       HDR5D    0.192000       1.00800           0   0.00000       0.00000    
      9494 IM1H     475      IM1H     C4       CD2R5E    2.72410       11.6110           0  -1.25300       1.20000    
      9495 IM1H     475      IM1H     DC4      DRUD     -2.74710      0.400000           0   0.00000       0.00000    
      9496 IM1H     475      IM1H     H6       HDR5E    0.203000       1.00800           0   0.00000       0.00000    
      9497 IM1H     475      IM1H     N2       ND2R5C    2.04220       13.6070           0 -0.803000       1.00000    
      9498 IM1H     475      IM1H     DN2      DRUD     -2.19920      0.400000           0   0.00000       0.00000    
      9499 IM1H     475      IM1H     H7       HDP1A    0.363000       1.00800           0   0.00000       0.00000    
      9500 IM1H     475      IM1H     LPN21    LPD       0.00000       0.00000          -1   0.00000       0.00000    
      9501 IM1H     476      IM1H     C1       CD33F     2.48500       11.6110           0  -1.18100       1.10000    
      9502 IM1H     476      IM1H     DC1      DRUD     -2.66700      0.400000           0   0.00000       0.00000    
      9503 IM1H     476      IM1H     H1       HDA3A    0.135000       1.00800           0   0.00000       0.00000    
      9504 IM1H     476      IM1H     H2       HDA3A    0.135000       1.00800           0   0.00000       0.00000    
      9505 IM1H     476      IM1H     H3       HDA3A    0.135000       1.00800           0   0.00000       0.00000    
      9506 IM1H     476      IM1H     N1       ND2R5C    2.35720       13.6070           0 -0.803000       1.00000    
      9507 IM1H     476      IM1H     DN1      DRUD     -2.19920      0.400000           0   0.00000       0.00000    
      9508 IM1H     476      IM1H     C2       CD2R5D    2.44700       11.6110           0  -1.08300       1.10000    
      9509 IM1H     476      IM1H     DC2      DRUD     -2.55400      0.400000           0   0.00000       0.00000    
      9510 IM1H     476      IM1H     H4       HDR5D    0.195000       1.00800           0   0.00000       0.00000    
      9511 IM1H     476      IM1H     C3       CD2R5D    2.50700       11.6110           0  -1.08300       1.10000    
      9512 IM1H     476      IM1H     DC3      DRUD     -2.55400      0.400000           0   0.00000       0.00000    
      9513 IM1H     476      IM1H     H5       HDR5D    0.192000       1.00800           0   0.00000       0.00000    
      9514 IM1H     476      IM1H     C4       CD2R5E    2.72410       11.6110           0  -1.25300       1.20000    
      9515 IM1H     476      IM1H     DC4      DRUD     -2.74710      0.400000           0   0.00000       0.00000    
      9516 IM1H     476      IM1H     H6       HDR5E    0.203000       1.00800           0   0.00000       0.00000    
      9517 IM1H     476      IM1H     N2       ND2R5C    2.04220       13.6070           0 -0.803000       1.00000    
      9518 IM1H     476      IM1H     DN2      DRUD     -2.19920      0.400000           0   0.00000       0.00000    
      9519 IM1H     476      IM1H     H7       HDP1A    0.363000       1.00800           0   0.00000       0.00000    
      9520 IM1H     476      IM1H     LPN21    LPD       0.00000       0.00000          -1   0.00000       0.00000    
      9521 IM1H     477      IM1H     C1       CD33F     2.48500       11.6110           0  -1.18100       1.10000    
      9522 IM1H     477      IM1H     DC1      DRUD     -2.66700      0.400000           0   0.00000       0.00000    
      9523 IM1H     477      IM1H     H1       HDA3A    0.135000       1.00800           0   0.00000       0.00000    
      9524 IM1H     477      IM1H     H2       HDA3A    0.135000       1.00800           0   0.00000       0.00000    
      9525 IM1H     477      IM1H     H3       HDA3A    0.135000       1.00800           0   0.00000       0.00000    
      9526 IM1H     477      IM1H     N1       ND2R5C    2.35720       13.6070           0 -0.803000       1.00000    
      9527 IM1H     477      IM1H     DN1      DRUD     -2.19920      0.400000           0   0.00000       0.00000    
      9528 IM1H     477      IM1H     C2       CD2R5D    2.44700       11.6110           0  -1.08300       1.10000    
      9529 IM1H     477      IM1H     DC2      DRUD     -2.55400      0.400000           0   0.00000       0.00000    
      9530 IM1H     477      IM1H     H4       HDR5D    0.195000       1.00800           0   0.00000       0.00000    
      9531 IM1H     477      IM1H     C3       CD2R5D    2.50700       11.6110           0  -1.08300       1.10000    
      9532 IM1H     477      IM1H     DC3      DRUD     -2.55400      0.400000           0   0.00000       0.00000    
      9533 IM1H     477      IM1H     H5       HDR5D    0.192000       1.00800           0   0.00000       0.00000    
      9534 IM1H     477      IM1H     C4       CD2R5E    2.72410       11.6110           0  -1.25300       1.20000    
      9535 IM1H     477      IM1H     DC4      DRUD     -2.74710      0.400000           0   0.00000       0.00000    
      9536 IM1H     477      IM1H     H6       HDR5E    0.203000       1.00800           0   0.00000       0.00000    
      9537 IM1H     477      IM1H     N2       ND2R5C    2.04220       13.6070           0 -0.803000       1.00000    
      9538 IM1H     477      IM1H     DN2      DRUD     -2.19920      0.400000           0   0.00000       0.00000    
      9539 IM1H     477      IM1H     H7       HDP1A    0.363000       1.00800           0   0.00000       0.00000    
      9540 IM1H     477      IM1H     LPN21    LPD       0.00000       0.00000          -1   0.00000       0.00000    
      9541 IM1H     478      IM1H     C1       CD33F     2.48500       11.6110           0  -1.18100       1.10000    
      9542 IM1H     478      IM1H     DC1      DRUD     -2.66700      0.400000           0   0.00000       0.00000    
      9543 IM1H     478      IM1H     H1       HDA3A    0.135000       1.00800           0   0.00000       0.00000    
      9544 IM1H     478      IM1H     H2       HDA3A    0.135000       1.00800           0   0.00000       0.00000    
      9545 IM1H     478      IM1H     H3       HDA3A    0.135000       1.00800           0   0.00000       0.00000    
      9546 IM1H     478      IM1H     N1       ND2R5C    2.35720       13.6070           0 -0.803000       1.00000    
      9547 IM1H     478      IM1H     DN1      DRUD     -2.19920      0.400000           0   0.00000       0.00000    
      9548 IM1H     478      IM1H     C2       CD2R5D    2.44700       11.6110           0  -1.08300       1.10000    
      9549 IM1H     478      IM1H     DC2      DRUD     -2.55400      0.400000           0   0.00000       0.00000    
      9550 IM1H     478      IM1H     H4       HDR5D    0.195000       1.00800           0   0.00000       0.00000    
      9551 IM1H     478      IM1H     C3       CD2R5D    2.50700       11.6110           0  -1.08300       1.10000    
      9552 IM1H     478      IM1H     DC3      DRUD     -2.55400      0.400000           0   0.00000       0.00000    
      9553 IM1H     478      IM1H     H5       HDR5D    0.192000       1.00800           0   0.00000       0.00000    
      9554 IM1H     478      IM1H     C4       CD2R5E    2.72410       11.6110           0  -1.25300       1.20000    
      9555 IM1H     478      IM1H     DC4      DRUD     -2.74710      0.400000           0   0.00000       0.00000    
      9556 IM1H     478      IM1H     H6       HDR5E    0.203000       1.00800           0   0.00000       0.00000    
      9557 IM1H     478      IM1H     N2       ND2R5C    2.04220       13.6070           0 -0.803000       1.00000    
      9558 IM1H     478      IM1H     DN2      DRUD     -2.19920      0.400000           0   0.00000       0.00000    
      9559 IM1H     478      IM1H     H7       HDP1A    0.363000       1.00800           0   0.00000       0.00000    
      9560 IM1H     478      IM1H     LPN21    LPD       0.00000       0.00000          -1   0.00000       0.00000    
      9561 IM1H     479      IM1H     C1       CD33F     2.48500       11.6110           0  -1.18100       1.10000    
      9562 IM1H     479      IM1H     DC1      DRUD     -2.66700      0.400000           0   0.00000       0.00000    
      9563 IM1H     479      IM1H     H1       HDA3A    0.135000       1.00800           0   0.00000       0.00000    
      9564 IM1H     479      IM1H     H2       HDA3A    0.135000       1.00800           0   0.00000       0.00000    
      9565 IM1H     479      IM1H     H3       HDA3A    0.135000       1.00800           0   0.00000       0.00000    
      9566 IM1H     479      IM1H     N1       ND2R5C    2.35720       13.6070           0 -0.803000       1.00000    
      9567 IM1H     479      IM1H     DN1      DRUD     -2.19920      0.400000           0   0.00000       0.00000    
      9568 IM1H     479      IM1H     C2       CD2R5D    2.44700       11.6110           0  -1.08300       1.10000    
      9569 IM1H     479      IM1H     DC2      DRUD     -2.55400      0.400000           0   0.00000       0.00000    
      9570 IM1H     479      IM1H     H4       HDR5D    0.195000       1.00800           0   0.00000       0.00000    
      9571 IM1H     479      IM1H     C3       CD2R5D    2.50700       11.6110           0  -1.08300       1.10000    
      9572 IM1H     479      IM1H     DC3      DRUD     -2.55400      0.400000           0   0.00000       0.00000    
      9573 IM1H     479      IM1H     H5       HDR5D    0.192000       1.00800           0   0.00000       0.00000    
      9574 IM1H     479      IM1H     C4       CD2R5E    2.72410       11.6110           0  -1.25300       1.20000    
      9575 IM1H     479      IM1H     DC4      DRUD     -2.74710      0.400000           0   0.00000       0.00000    
      9576 IM1H     479      IM1H     H6       HDR5E    0.203000       1.00800           0   0.00000       0.00000    
      9577 IM1H     479      IM1H     N2       ND2R5C    2.04220       13.6070           0 -0.803000       1.00000    
      9578 IM1H     479      IM1H     DN2      DRUD     -2.19920      0.400000           0   0.00000       0.00000    
      9579 IM1H     479      IM1H     H7       HDP1A    0.363000       1.00800           0   0.00000       0.00000    
      9580 IM1H     479      IM1H     LPN21    LPD       0.00000       0.00000          -1   0.00000       0.00000    
      9581 IM1H     480      IM1H     C1       CD33F     2.48500       11.6110           0  -1.18100       1.10000    
      9582 IM1H     480      IM1H     DC1      DRUD     -2.66700      0.400000           0   0.00000       0.00000    
      9583 IM1H     480      IM1H     H1       HDA3A    0.135000       1.00800           0   0.00000       0.00000    
      9584 IM1H     480      IM1H     H2       HDA3A    0.135000       1.00800           0   0.00000       0.00000    
      9585 IM1H     480      IM1H     H3       HDA3A    0.135000       1.00800           0   0.00000       0.00000    
      9586 IM1H     480      IM1H     N1       ND2R5C    2.35720       13.6070           0 -0.803000       1.00000    
      9587 IM1H     480      IM1H     DN1      DRUD     -2.19920      0.400000           0   0.00000       0.00000    
      9588 IM1H     480      IM1H     C2       CD2R5D    2.44700       11.6110           0  -1.08300       1.10000    
      9589 IM1H     480      IM1H     DC2      DRUD     -2.55400      0.400000           0   0.00000       0.00000    
      9590 IM1H     480      IM1H     H4       HDR5D    0.195000       1.00800           0   0.00000       0.00000    
      9591 IM1H     480      IM1H     C3       CD2R5D    2.50700       11.6110           0  -1.08300       1.10000    
      9592 IM1H     480      IM1H     DC3      DRUD     -2.55400      0.400000           0   0.00000       0.00000    
      9593 IM1H     480      IM1H     H5       HDR5D    0.192000       1.00800           0   0.00000       0.00000    
      9594 IM1H     480      IM1H     C4       CD2R5E    2.72410       11.6110           0  -1.25300       1.20000    
      9595 IM1H     480      IM1H     DC4      DRUD     -2.74710      0.400000           0   0.00000       0.00000    
      9596 IM1H     480      IM1H     H6       HDR5E    0.203000       1.00800           0   0.00000       0.00000    
      9597 IM1H     480      IM1H     N2       ND2R5C    2.04220       13.6070           0 -0.803000       1.00000    
      9598 IM1H     480      IM1H     DN2      DRUD     -2.19920      0.400000           0   0.00000       0.00000    
      9599 IM1H     480      IM1H     H7       HDP1A    0.363000       1.00800           0   0.00000       0.00000    
      9600 IM1H     480      IM1H     LPN21    LPD       0.00000       0.00000          -1   0.00000       0.00000    
      9601 IM1H     481      IM1H     C1       CD33F     2.48500       11.6110           0  -1.18100       1.10000    
      9602 IM1H     481      IM1H     DC1      DRUD     -2.66700      0.400000           0   0.00000       0.00000    
      9603 IM1H     481      IM1H     H1       HDA3A    0.135000       1.00800           0   0.00000       0.00000    
      9604 IM1H     481      IM1H     H2       HDA3A    0.135000       1.00800           0   0.00000       0.00000    
      9605 IM1H     481      IM1H     H3       HDA3A    0.135000       1.00800           0   0.00000       0.00000    
      9606 IM1H     481      IM1H     N1       ND2R5C    2.35720       13.6070           0 -0.803000       1.00000    
      9607 IM1H     481      IM1H     DN1      DRUD     -2.19920      0.400000           0   0.00000       0.00000    
      9608 IM1H     481      IM1H     C2       CD2R5D    2.44700       11.6110           0  -1.08300       1.10000    
      9609 IM1H     481      IM1H     DC2      DRUD     -2.55400      0.400000           0   0.00000       0.00000    
      9610 IM1H     481      IM1H     H4       HDR5D    0.195000       1.00800           0   0.00000       0.00000    
      9611 IM1H     481      IM1H     C3       CD2R5D    2.50700       11.6110           0  -1.08300       1.10000    
      9612 IM1H     481      IM1H     DC3      DRUD     -2.55400      0.400000           0   0.00000       0.00000    
      9613 IM1H     481      IM1H     H5       HDR5D    0.192000       1.00800           0   0.00000       0.00000    
      9614 IM1H     481      IM1H     C4       CD2R5E    2.72410       11.6110           0  -1.25300       1.20000    
      9615 IM1H     481      IM1H     DC4      DRUD     -2.74710      0.400000           0   0.00000       0.00000    
      9616 IM1H     481      IM1H     H6       HDR5E    0.203000       1.00800           0   0.00000       0.00000    
      9617 IM1H     481      IM1H     N2       ND2R5C    2.04220       13.6070           0 -0.803000       1.00000    
      9618 IM1H     481      IM1H     DN2      DRUD     -2.19920      0.400000           0   0.00000       0.00000    
      9619 IM1H     481      IM1H     H7       HDP1A    0.363000       1.00800           0   0.00000       0.00000    
      9620 IM1H     481      IM1H     LPN21    LPD       0.00000       0.00000          -1   0.00000       0.00000    
      9621 IM1H     482      IM1H     C1       CD33F     2.48500       11.6110           0  -1.18100       1.10000    
      9622 IM1H     482      IM1H     DC1      DRUD     -2.66700      0.400000           0   0.00000       0.00000    
      9623 IM1H     482      IM1H     H1       HDA3A    0.135000       1.00800           0   0.00000       0.00000    
      9624 IM1H     482      IM1H     H2       HDA3A    0.135000       1.00800           0   0.00000       0.00000    
      9625 IM1H     482      IM1H     H3       HDA3A    0.135000       1.00800           0   0.00000       0.00000    
      9626 IM1H     482      IM1H     N1       ND2R5C    2.35720       13.6070           0 -0.803000       1.00000    
      9627 IM1H     482      IM1H     DN1      DRUD     -2.19920      0.400000           0   0.00000       0.00000    
      9628 IM1H     482      IM1H     C2       CD2R5D    2.44700       11.6110           0  -1.08300       1.10000    
      9629 IM1H     482      IM1H     DC2      DRUD     -2.55400      0.400000           0   0.00000       0.00000    
      9630 IM1H     482      IM1H     H4       HDR5D    0.195000       1.00800           0   0.00000       0.00000    
      9631 IM1H     482      IM1H     C3       CD2R5D    2.50700       11.6110           0  -1.08300       1.10000    
      9632 IM1H     482      IM1H     DC3      DRUD     -2.55400      0.400000           0   0.00000       0.00000    
      9633 IM1H     482      IM1H     H5       HDR5D    0.192000       1.00800           0   0.00000       0.00000    
      9634 IM1H     482      IM1H     C4       CD2R5E    2.72410       11.6110           0  -1.25300       1.20000    
      9635 IM1H     482      IM1H     DC4      DRUD     -2.74710      0.400000           0   0.00000       0.00000    
      9636 IM1H     482      IM1H     H6       HDR5E    0.203000       1.00800           0   0.00000       0.00000    
      9637 IM1H     482      IM1H     N2       ND2R5C    2.04220       13.6070           0 -0.803000       1.00000    
      9638 IM1H     482      IM1H     DN2      DRUD     -2.19920      0.400000           0   0.00000       0.00000    
      9639 IM1H     482      IM1H     H7       HDP1A    0.363000       1.00800           0   0.00000       0.00000    
      9640 IM1H     482      IM1H     LPN21    LPD       0.00000       0.00000          -1   0.00000       0.00000    
      9641 IM1H     483      IM1H     C1       CD33F     2.48500       11.6110           0  -1.18100       1.10000    
      9642 IM1H     483      IM1H     DC1      DRUD     -2.66700      0.400000           0   0.00000       0.00000    
      9643 IM1H     483      IM1H     H1       HDA3A    0.135000       1.00800           0   0.00000       0.00000    
      9644 IM1H     483      IM1H     H2       HDA3A    0.135000       1.00800           0   0.00000       0.00000    
      9645 IM1H     483      IM1H     H3       HDA3A    0.135000       1.00800           0   0.00000       0.00000    
      9646 IM1H     483      IM1H     N1       ND2R5C    2.35720       13.6070           0 -0.803000       1.00000    
      9647 IM1H     483      IM1H     DN1      DRUD     -2.19920      0.400000           0   0.00000       0.00000    
      9648 IM1H     483      IM1H     C2       CD2R5D    2.44700       11.6110           0  -1.08300       1.10000    
      9649 IM1H     483      IM1H     DC2      DRUD     -2.55400      0.400000           0   0.00000       0.00000    
      9650 IM1H     483      IM1H     H4       HDR5D    0.195000       1.00800           0   0.00000       0.00000    
      9651 IM1H     483      IM1H     C3       CD2R5D    2.50700       11.6110           0  -1.08300       1.10000    
      9652 IM1H     483      IM1H     DC3      DRUD     -2.55400      0.400000           0   0.00000       0.00000    
      9653 IM1H     483      IM1H     H5       HDR5D    0.192000       1.00800           0   0.00000       0.00000    
      9654 IM1H     483      IM1H     C4       CD2R5E    2.72410       11.6110           0  -1.25300       1.20000    
      9655 IM1H     483      IM1H     DC4      DRUD     -2.74710      0.400000           0   0.00000       0.00000    
      9656 IM1H     483      IM1H     H6       HDR5E    0.203000       1.00800           0   0.00000       0.00000    
      9657 IM1H     483      IM1H     N2       ND2R5C    2.04220       13.6070           0 -0.803000       1.00000    
      9658 IM1H     483      IM1H     DN2      DRUD     -2.19920      0.400000           0   0.00000       0.00000    
      9659 IM1H     483      IM1H     H7       HDP1A    0.363000       1.00800           0   0.00000       0.00000    
      9660 IM1H     483      IM1H     LPN21    LPD       0.00000       0.00000          -1   0.00000       0.00000    
      9661 IM1H     484      IM1H     C1       CD33F     2.48500       11.6110           0  -1.18100       1.10000    
      9662 IM1H     484      IM1H     DC1      DRUD     -2.66700      0.400000           0   0.00000       0.00000    
      9663 IM1H     484      IM1H     H1       HDA3A    0.135000       1.00800           0   0.00000       0.00000    
      9664 IM1H     484      IM1H     H2       HDA3A    0.135000       1.00800           0   0.00000       0.00000    
      9665 IM1H     484      IM1H     H3       HDA3A    0.135000       1.00800           0   0.00000       0.00000    
      9666 IM1H     484      IM1H     N1       ND2R5C    2.35720       13.6070           0 -0.803000       1.00000    
      9667 IM1H     484      IM1H     DN1      DRUD     -2.19920      0.400000           0   0.00000       0.00000    
      9668 IM1H     484      IM1H     C2       CD2R5D    2.44700       11.6110           0  -1.08300       1.10000    
      9669 IM1H     484      IM1H     DC2      DRUD     -2.55400      0.400000           0   0.00000       0.00000    
      9670 IM1H     484      IM1H     H4       HDR5D    0.195000       1.00800           0   0.00000       0.00000    
      9671 IM1H     484      IM1H     C3       CD2R5D    2.50700       11.6110           0  -1.08300       1.10000    
      9672 IM1H     484      IM1H     DC3      DRUD     -2.55400      0.400000           0   0.00000       0.00000    
      9673 IM1H     484      IM1H     H5       HDR5D    0.192000       1.00800           0   0.00000       0.00000    
      9674 IM1H     484      IM1H     C4       CD2R5E    2.72410       11.6110           0  -1.25300       1.20000    
      9675 IM1H     484      IM1H     DC4      DRUD     -2.74710      0.400000           0   0.00000       0.00000    
      9676 IM1H     484      IM1H     H6       HDR5E    0.203000       1.00800           0   0.00000       0.00000    
      9677 IM1H     484      IM1H     N2       ND2R5C    2.04220       13.6070           0 -0.803000       1.00000    
      9678 IM1H     484      IM1H     DN2      DRUD     -2.19920      0.400000           0   0.00000       0.00000    
      9679 IM1H     484      IM1H     H7       HDP1A    0.363000       1.00800           0   0.00000       0.00000    
      9680 IM1H     484      IM1H     LPN21    LPD       0.00000       0.00000          -1   0.00000       0.00000    
      9681 IM1H     485      IM1H     C1       CD33F     2.48500       11.6110           0  -1.18100       1.10000    
      9682 IM1H     485      IM1H     DC1      DRUD     -2.66700      0.400000           0   0.00000       0.00000    
      9683 IM1H     485      IM1H     H1       HDA3A    0.135000       1.00800           0   0.00000       0.00000    
      9684 IM1H     485      IM1H     H2       HDA3A    0.135000       1.00800           0   0.00000       0.00000    
      9685 IM1H     485      IM1H     H3       HDA3A    0.135000       1.00800           0   0.00000       0.00000    
      9686 IM1H     485      IM1H     N1       ND2R5C    2.35720       13.6070           0 -0.803000       1.00000    
      9687 IM1H     485      IM1H     DN1      DRUD     -2.19920      0.400000           0   0.00000       0.00000    
      9688 IM1H     485      IM1H     C2       CD2R5D    2.44700       11.6110           0  -1.08300       1.10000    
      9689 IM1H     485      IM1H     DC2      DRUD     -2.55400      0.400000           0   0.00000       0.00000    
      9690 IM1H     485      IM1H     H4       HDR5D    0.195000       1.00800           0   0.00000       0.00000    
      9691 IM1H     485      IM1H     C3       CD2R5D    2.50700       11.6110           0  -1.08300       1.10000    
      9692 IM1H     485      IM1H     DC3      DRUD     -2.55400      0.400000           0   0.00000       0.00000    
      9693 IM1H     485      IM1H     H5       HDR5D    0.192000       1.00800           0   0.00000       0.00000    
      9694 IM1H     485      IM1H     C4       CD2R5E    2.72410       11.6110           0  -1.25300       1.20000    
      9695 IM1H     485      IM1H     DC4      DRUD     -2.74710      0.400000           0   0.00000       0.00000    
      9696 IM1H     485      IM1H     H6       HDR5E    0.203000       1.00800           0   0.00000       0.00000    
      9697 IM1H     485      IM1H     N2       ND2R5C    2.04220       13.6070           0 -0.803000       1.00000    
      9698 IM1H     485      IM1H     DN2      DRUD     -2.19920      0.400000           0   0.00000       0.00000    
      9699 IM1H     485      IM1H     H7       HDP1A    0.363000       1.00800           0   0.00000       0.00000    
      9700 IM1H     485      IM1H     LPN21    LPD       0.00000       0.00000          -1   0.00000       0.00000    
      9701 IM1H     486      IM1H     C1       CD33F     2.48500       11.6110           0  -1.18100       1.10000    
      9702 IM1H     486      IM1H     DC1      DRUD     -2.66700      0.400000           0   0.00000       0.00000    
      9703 IM1H     486      IM1H     H1       HDA3A    0.135000       1.00800           0   0.00000       0.00000    
      9704 IM1H     486      IM1H     H2       HDA3A    0.135000       1.00800           0   0.00000       0.00000    
      9705 IM1H     486      IM1H     H3       HDA3A    0.135000       1.00800           0   0.00000       0.00000    
      9706 IM1H     486      IM1H     N1       ND2R5C    2.35720       13.6070           0 -0.803000       1.00000    
      9707 IM1H     486      IM1H     DN1      DRUD     -2.19920      0.400000           0   0.00000       0.00000    
      9708 IM1H     486      IM1H     C2       CD2R5D    2.44700       11.6110           0  -1.08300       1.10000    
      9709 IM1H     486      IM1H     DC2      DRUD     -2.55400      0.400000           0   0.00000       0.00000    
      9710 IM1H     486      IM1H     H4       HDR5D    0.195000       1.00800           0   0.00000       0.00000    
      9711 IM1H     486      IM1H     C3       CD2R5D    2.50700       11.6110           0  -1.08300       1.10000    
      9712 IM1H     486      IM1H     DC3      DRUD     -2.55400      0.400000           0   0.00000       0.00000    
      9713 IM1H     486      IM1H     H5       HDR5D    0.192000       1.00800           0   0.00000       0.00000    
      9714 IM1H     486      IM1H     C4       CD2R5E    2.72410       11.6110           0  -1.25300       1.20000    
      9715 IM1H     486      IM1H     DC4      DRUD     -2.74710      0.400000           0   0.00000       0.00000    
      9716 IM1H     486      IM1H     H6       HDR5E    0.203000       1.00800           0   0.00000       0.00000    
      9717 IM1H     486      IM1H     N2       ND2R5C    2.04220       13.6070           0 -0.803000       1.00000    
      9718 IM1H     486      IM1H     DN2      DRUD     -2.19920      0.400000           0   0.00000       0.00000    
      9719 IM1H     486      IM1H     H7       HDP1A    0.363000       1.00800           0   0.00000       0.00000    
      9720 IM1H     486      IM1H     LPN21    LPD       0.00000       0.00000          -1   0.00000       0.00000    
      9721 IM1H     487      IM1H     C1       CD33F     2.48500       11.6110           0  -1.18100       1.10000    
      9722 IM1H     487      IM1H     DC1      DRUD     -2.66700      0.400000           0   0.00000       0.00000    
      9723 IM1H     487      IM1H     H1       HDA3A    0.135000       1.00800           0   0.00000       0.00000    
      9724 IM1H     487      IM1H     H2       HDA3A    0.135000       1.00800           0   0.00000       0.00000    
      9725 IM1H     487      IM1H     H3       HDA3A    0.135000       1.00800           0   0.00000       0.00000    
      9726 IM1H     487      IM1H     N1       ND2R5C    2.35720       13.6070           0 -0.803000       1.00000    
      9727 IM1H     487      IM1H     DN1      DRUD     -2.19920      0.400000           0   0.00000       0.00000    
      9728 IM1H     487      IM1H     C2       CD2R5D    2.44700       11.6110           0  -1.08300       1.10000    
      9729 IM1H     487      IM1H     DC2      DRUD     -2.55400      0.400000           0   0.00000       0.00000    
      9730 IM1H     487      IM1H     H4       HDR5D    0.195000       1.00800           0   0.00000       0.00000    
      9731 IM1H     487      IM1H     C3       CD2R5D    2.50700       11.6110           0  -1.08300       1.10000    
      9732 IM1H     487      IM1H     DC3      DRUD     -2.55400      0.400000           0   0.00000       0.00000    
      9733 IM1H     487      IM1H     H5       HDR5D    0.192000       1.00800           0   0.00000       0.00000    
      9734 IM1H     487      IM1H     C4       CD2R5E    2.72410       11.6110           0  -1.25300       1.20000    
      9735 IM1H     487      IM1H     DC4      DRUD     -2.74710      0.400000           0   0.00000       0.00000    
      9736 IM1H     487      IM1H     H6       HDR5E    0.203000       1.00800           0   0.00000       0.00000    
      9737 IM1H     487      IM1H     N2       ND2R5C    2.04220       13.6070           0 -0.803000       1.00000    
      9738 IM1H     487      IM1H     DN2      DRUD     -2.19920      0.400000           0   0.00000       0.00000    
      9739 IM1H     487      IM1H     H7       HDP1A    0.363000       1.00800           0   0.00000       0.00000    
      9740 IM1H     487      IM1H     LPN21    LPD       0.00000       0.00000          -1   0.00000       0.00000    
      9741 IM1H     488      IM1H     C1       CD33F     2.48500       11.6110           0  -1.18100       1.10000    
      9742 IM1H     488      IM1H     DC1      DRUD     -2.66700      0.400000           0   0.00000       0.00000    
      9743 IM1H     488      IM1H     H1       HDA3A    0.135000       1.00800           0   0.00000       0.00000    
      9744 IM1H     488      IM1H     H2       HDA3A    0.135000       1.00800           0   0.00000       0.00000    
      9745 IM1H     488      IM1H     H3       HDA3A    0.135000       1.00800           0   0.00000       0.00000    
      9746 IM1H     488      IM1H     N1       ND2R5C    2.35720       13.6070           0 -0.803000       1.00000    
      9747 IM1H     488      IM1H     DN1      DRUD     -2.19920      0.400000           0   0.00000       0.00000    
      9748 IM1H     488      IM1H     C2       CD2R5D    2.44700       11.6110           0  -1.08300       1.10000    
      9749 IM1H     488      IM1H     DC2      DRUD     -2.55400      0.400000           0   0.00000       0.00000    
      9750 IM1H     488      IM1H     H4       HDR5D    0.195000       1.00800           0   0.00000       0.00000    
      9751 IM1H     488      IM1H     C3       CD2R5D    2.50700       11.6110           0  -1.08300       1.10000    
      9752 IM1H     488      IM1H     DC3      DRUD     -2.55400      0.400000           0   0.00000       0.00000    
      9753 IM1H     488      IM1H     H5       HDR5D    0.192000       1.00800           0   0.00000       0.00000    
      9754 IM1H     488      IM1H     C4       CD2R5E    2.72410       11.6110           0  -1.25300       1.20000    
      9755 IM1H     488      IM1H     DC4      DRUD     -2.74710      0.400000           0   0.00000       0.00000    
      9756 IM1H     488      IM1H     H6       HDR5E    0.203000       1.00800           0   0.00000       0.00000    
      9757 IM1H     488      IM1H     N2       ND2R5C    2.04220       13.6070           0 -0.803000       1.00000    
      9758 IM1H     488      IM1H     DN2      DRUD     -2.19920      0.400000           0   0.00000       0.00000    
      9759 IM1H     488      IM1H     H7       HDP1A    0.363000       1.00800           0   0.00000       0.00000    
      9760 IM1H     488      IM1H     LPN21    LPD       0.00000       0.00000          -1   0.00000       0.00000    
      9761 IM1H     489      IM1H     C1       CD33F     2.48500       11.6110           0  -1.18100       1.10000    
      9762 IM1H     489      IM1H     DC1      DRUD     -2.66700      0.400000           0   0.00000       0.00000    
      9763 IM1H     489      IM1H     H1       HDA3A    0.135000       1.00800           0   0.00000       0.00000    
      9764 IM1H     489      IM1H     H2       HDA3A    0.135000       1.00800           0   0.00000       0.00000    
      9765 IM1H     489      IM1H     H3       HDA3A    0.135000       1.00800           0   0.00000       0.00000    
      9766 IM1H     489      IM1H     N1       ND2R5C    2.35720       13.6070           0 -0.803000       1.00000    
      9767 IM1H     489      IM1H     DN1      DRUD     -2.19920      0.400000           0   0.00000       0.00000    
      9768 IM1H     489      IM1H     C2       CD2R5D    2.44700       11.6110           0  -1.08300       1.10000    
      9769 IM1H     489      IM1H     DC2      DRUD     -2.55400      0.400000           0   0.00000       0.00000    
      9770 IM1H     489      IM1H     H4       HDR5D    0.195000       1.00800           0   0.00000       0.00000    
      9771 IM1H     489      IM1H     C3       CD2R5D    2.50700       11.6110           0  -1.08300       1.10000    
      9772 IM1H     489      IM1H     DC3      DRUD     -2.55400      0.400000           0   0.00000       0.00000    
      9773 IM1H     489      IM1H     H5       HDR5D    0.192000       1.00800           0   0.00000       0.00000    
      9774 IM1H     489      IM1H     C4       CD2R5E    2.72410       11.6110           0  -1.25300       1.20000    
      9775 IM1H     489      IM1H     DC4      DRUD     -2.74710      0.400000           0   0.00000       0.00000    
      9776 IM1H     489      IM1H     H6       HDR5E    0.203000       1.00800           0   0.00000       0.00000    
      9777 IM1H     489      IM1H     N2       ND2R5C    2.04220       13.6070           0 -0.803000       1.00000    
      9778 IM1H     489      IM1H     DN2      DRUD     -2.19920      0.400000           0   0.00000       0.00000    
      9779 IM1H     489      IM1H     H7       HDP1A    0.363000       1.00800           0   0.00000       0.00000    
      9780 IM1H     489      IM1H     LPN21    LPD       0.00000       0.00000          -1   0.00000       0.00000    
      9781 IM1H     490      IM1H     C1       CD33F     2.48500       11.6110           0  -1.18100       1.10000    
      9782 IM1H     490      IM1H     DC1      DRUD     -2.66700      0.400000           0   0.00000       0.00000    
      9783 IM1H     490      IM1H     H1       HDA3A    0.135000       1.00800           0   0.00000       0.00000    
      9784 IM1H     490      IM1H     H2       HDA3A    0.135000       1.00800           0   0.00000       0.00000    
      9785 IM1H     490      IM1H     H3       HDA3A    0.135000       1.00800           0   0.00000       0.00000    
      9786 IM1H     490      IM1H     N1       ND2R5C    2.35720       13.6070           0 -0.803000       1.00000    
      9787 IM1H     490      IM1H     DN1      DRUD     -2.19920      0.400000           0   0.00000       0.00000    
      9788 IM1H     490      IM1H     C2       CD2R5D    2.44700       11.6110           0  -1.08300       1.10000    
      9789 IM1H     490      IM1H     DC2      DRUD     -2.55400      0.400000           0   0.00000       0.00000    
      9790 IM1H     490      IM1H     H4       HDR5D    0.195000       1.00800           0   0.00000       0.00000    
      9791 IM1H     490      IM1H     C3       CD2R5D    2.50700       11.6110           0  -1.08300       1.10000    
      9792 IM1H     490      IM1H     DC3      DRUD     -2.55400      0.400000           0   0.00000       0.00000    
      9793 IM1H     490      IM1H     H5       HDR5D    0.192000       1.00800           0   0.00000       0.00000    
      9794 IM1H     490      IM1H     C4       CD2R5E    2.72410       11.6110           0  -1.25300       1.20000    
      9795 IM1H     490      IM1H     DC4      DRUD     -2.74710      0.400000           0   0.00000       0.00000    
      9796 IM1H     490      IM1H     H6       HDR5E    0.203000       1.00800           0   0.00000       0.00000    
      9797 IM1H     490      IM1H     N2       ND2R5C    2.04220       13.6070           0 -0.803000       1.00000    
      9798 IM1H     490      IM1H     DN2      DRUD     -2.19920      0.400000           0   0.00000       0.00000    
      9799 IM1H     490      IM1H     H7       HDP1A    0.363000       1.00800           0   0.00000       0.00000    
      9800 IM1H     490      IM1H     LPN21    LPD       0.00000       0.00000          -1   0.00000       0.00000    
      9801 IM1H     491      IM1H     C1       CD33F     2.48500       11.6110           0  -1.18100       1.10000    
      9802 IM1H     491      IM1H     DC1      DRUD     -2.66700      0.400000           0   0.00000       0.00000    
      9803 IM1H     491      IM1H     H1       HDA3A    0.135000       1.00800           0   0.00000       0.00000    
      9804 IM1H     491      IM1H     H2       HDA3A    0.135000       1.00800           0   0.00000       0.00000    
      9805 IM1H     491      IM1H     H3       HDA3A    0.135000       1.00800           0   0.00000       0.00000    
      9806 IM1H     491      IM1H     N1       ND2R5C    2.35720       13.6070           0 -0.803000       1.00000    
      9807 IM1H     491      IM1H     DN1      DRUD     -2.19920      0.400000           0   0.00000       0.00000    
      9808 IM1H     491      IM1H     C2       CD2R5D    2.44700       11.6110           0  -1.08300       1.10000    
      9809 IM1H     491      IM1H     DC2      DRUD     -2.55400      0.400000           0   0.00000       0.00000    
      9810 IM1H     491      IM1H     H4       HDR5D    0.195000       1.00800           0   0.00000       0.00000    
      9811 IM1H     491      IM1H     C3       CD2R5D    2.50700       11.6110           0  -1.08300       1.10000    
      9812 IM1H     491      IM1H     DC3      DRUD     -2.55400      0.400000           0   0.00000       0.00000    
      9813 IM1H     491      IM1H     H5       HDR5D    0.192000       1.00800           0   0.00000       0.00000    
      9814 IM1H     491      IM1H     C4       CD2R5E    2.72410       11.6110           0  -1.25300       1.20000    
      9815 IM1H     491      IM1H     DC4      DRUD     -2.74710      0.400000           0   0.00000       0.00000    
      9816 IM1H     491      IM1H     H6       HDR5E    0.203000       1.00800           0   0.00000       0.00000    
      9817 IM1H     491      IM1H     N2       ND2R5C    2.04220       13.6070           0 -0.803000       1.00000    
      9818 IM1H     491      IM1H     DN2      DRUD     -2.19920      0.400000           0   0.00000       0.00000    
      9819 IM1H     491      IM1H     H7       HDP1A    0.363000       1.00800           0   0.00000       0.00000    
      9820 IM1H     491      IM1H     LPN21    LPD       0.00000       0.00000          -1   0.00000       0.00000    
      9821 IM1H     492      IM1H     C1       CD33F     2.48500       11.6110           0  -1.18100       1.10000    
      9822 IM1H     492      IM1H     DC1      DRUD     -2.66700      0.400000           0   0.00000       0.00000    
      9823 IM1H     492      IM1H     H1       HDA3A    0.135000       1.00800           0   0.00000       0.00000    
      9824 IM1H     492      IM1H     H2       HDA3A    0.135000       1.00800           0   0.00000       0.00000    
      9825 IM1H     492      IM1H     H3       HDA3A    0.135000       1.00800           0   0.00000       0.00000    
      9826 IM1H     492      IM1H     N1       ND2R5C    2.35720       13.6070           0 -0.803000       1.00000    
      9827 IM1H     492      IM1H     DN1      DRUD     -2.19920      0.400000           0   0.00000       0.00000    
      9828 IM1H     492      IM1H     C2       CD2R5D    2.44700       11.6110           0  -1.08300       1.10000    
      9829 IM1H     492      IM1H     DC2      DRUD     -2.55400      0.400000           0   0.00000       0.00000    
      9830 IM1H     492      IM1H     H4       HDR5D    0.195000       1.00800           0   0.00000       0.00000    
      9831 IM1H     492      IM1H     C3       CD2R5D    2.50700       11.6110           0  -1.08300       1.10000    
      9832 IM1H     492      IM1H     DC3      DRUD     -2.55400      0.400000           0   0.00000       0.00000    
      9833 IM1H     492      IM1H     H5       HDR5D    0.192000       1.00800           0   0.00000       0.00000    
      9834 IM1H     492      IM1H     C4       CD2R5E    2.72410       11.6110           0  -1.25300       1.20000    
      9835 IM1H     492      IM1H     DC4      DRUD     -2.74710      0.400000           0   0.00000       0.00000    
      9836 IM1H     492      IM1H     H6       HDR5E    0.203000       1.00800           0   0.00000       0.00000    
      9837 IM1H     492      IM1H     N2       ND2R5C    2.04220       13.6070           0 -0.803000       1.00000    
      9838 IM1H     492      IM1H     DN2      DRUD     -2.19920      0.400000           0   0.00000       0.00000    
      9839 IM1H     492      IM1H     H7       HDP1A    0.363000       1.00800           0   0.00000       0.00000    
      9840 IM1H     492      IM1H     LPN21    LPD       0.00000       0.00000          -1   0.00000       0.00000    
      9841 IM1H     493      IM1H     C1       CD33F     2.48500       11.6110           0  -1.18100       1.10000    
      9842 IM1H     493      IM1H     DC1      DRUD     -2.66700      0.400000           0   0.00000       0.00000    
      9843 IM1H     493      IM1H     H1       HDA3A    0.135000       1.00800           0   0.00000       0.00000    
      9844 IM1H     493      IM1H     H2       HDA3A    0.135000       1.00800           0   0.00000       0.00000    
      9845 IM1H     493      IM1H     H3       HDA3A    0.135000       1.00800           0   0.00000       0.00000    
      9846 IM1H     493      IM1H     N1       ND2R5C    2.35720       13.6070           0 -0.803000       1.00000    
      9847 IM1H     493      IM1H     DN1      DRUD     -2.19920      0.400000           0   0.00000       0.00000    
      9848 IM1H     493      IM1H     C2       CD2R5D    2.44700       11.6110           0  -1.08300       1.10000    
      9849 IM1H     493      IM1H     DC2      DRUD     -2.55400      0.400000           0   0.00000       0.00000    
      9850 IM1H     493      IM1H     H4       HDR5D    0.195000       1.00800           0   0.00000       0.00000    
      9851 IM1H     493      IM1H     C3       CD2R5D    2.50700       11.6110           0  -1.08300       1.10000    
      9852 IM1H     493      IM1H     DC3      DRUD     -2.55400      0.400000           0   0.00000       0.00000    
      9853 IM1H     493      IM1H     H5       HDR5D    0.192000       1.00800           0   0.00000       0.00000    
      9854 IM1H     493      IM1H     C4       CD2R5E    2.72410       11.6110           0  -1.25300       1.20000    
      9855 IM1H     493      IM1H     DC4      DRUD     -2.74710      0.400000           0   0.00000       0.00000    
      9856 IM1H     493      IM1H     H6       HDR5E    0.203000       1.00800           0   0.00000       0.00000    
      9857 IM1H     493      IM1H     N2       ND2R5C    2.04220       13.6070           0 -0.803000       1.00000    
      9858 IM1H     493      IM1H     DN2      DRUD     -2.19920      0.400000           0   0.00000       0.00000    
      9859 IM1H     493      IM1H     H7       HDP1A    0.363000       1.00800           0   0.00000       0.00000    
      9860 IM1H     493      IM1H     LPN21    LPD       0.00000       0.00000          -1   0.00000       0.00000    
      9861 IM1H     494      IM1H     C1       CD33F     2.48500       11.6110           0  -1.18100       1.10000    
      9862 IM1H     494      IM1H     DC1      DRUD     -2.66700      0.400000           0   0.00000       0.00000    
      9863 IM1H     494      IM1H     H1       HDA3A    0.135000       1.00800           0   0.00000       0.00000    
      9864 IM1H     494      IM1H     H2       HDA3A    0.135000       1.00800           0   0.00000       0.00000    
      9865 IM1H     494      IM1H     H3       HDA3A    0.135000       1.00800           0   0.00000       0.00000    
      9866 IM1H     494      IM1H     N1       ND2R5C    2.35720       13.6070           0 -0.803000       1.00000    
      9867 IM1H     494      IM1H     DN1      DRUD     -2.19920      0.400000           0   0.00000       0.00000    
      9868 IM1H     494      IM1H     C2       CD2R5D    2.44700       11.6110           0  -1.08300       1.10000    
      9869 IM1H     494      IM1H     DC2      DRUD     -2.55400      0.400000           0   0.00000       0.00000    
      9870 IM1H     494      IM1H     H4       HDR5D    0.195000       1.00800           0   0.00000       0.00000    
      9871 IM1H     494      IM1H     C3       CD2R5D    2.50700       11.6110           0  -1.08300       1.10000    
      9872 IM1H     494      IM1H     DC3      DRUD     -2.55400      0.400000           0   0.00000       0.00000    
      9873 IM1H     494      IM1H     H5       HDR5D    0.192000       1.00800           0   0.00000       0.00000    
      9874 IM1H     494      IM1H     C4       CD2R5E    2.72410       11.6110           0  -1.25300       1.20000    
      9875 IM1H     494      IM1H     DC4      DRUD     -2.74710      0.400000           0   0.00000       0.00000    
      9876 IM1H     494      IM1H     H6       HDR5E    0.203000       1.00800           0   0.00000       0.00000    
      9877 IM1H     494      IM1H     N2       ND2R5C    2.04220       13.6070           0 -0.803000       1.00000    
      9878 IM1H     494      IM1H     DN2      DRUD     -2.19920      0.400000           0   0.00000       0.00000    
      9879 IM1H     494      IM1H     H7       HDP1A    0.363000       1.00800           0   0.00000       0.00000    
      9880 IM1H     494      IM1H     LPN21    LPD       0.00000       0.00000          -1   0.00000       0.00000    
      9881 IM1H     495      IM1H     C1       CD33F     2.48500       11.6110           0  -1.18100       1.10000    
      9882 IM1H     495      IM1H     DC1      DRUD     -2.66700      0.400000           0   0.00000       0.00000    
      9883 IM1H     495      IM1H     H1       HDA3A    0.135000       1.00800           0   0.00000       0.00000    
      9884 IM1H     495      IM1H     H2       HDA3A    0.135000       1.00800           0   0.00000       0.00000    
      9885 IM1H     495      IM1H     H3       HDA3A    0.135000       1.00800           0   0.00000       0.00000    
      9886 IM1H     495      IM1H     N1       ND2R5C    2.35720       13.6070           0 -0.803000       1.00000    
      9887 IM1H     495      IM1H     DN1      DRUD     -2.19920      0.400000           0   0.00000       0.00000    
      9888 IM1H     495      IM1H     C2       CD2R5D    2.44700       11.6110           0  -1.08300       1.10000    
      9889 IM1H     495      IM1H     DC2      DRUD     -2.55400      0.400000           0   0.00000       0.00000    
      9890 IM1H     495      IM1H     H4       HDR5D    0.195000       1.00800           0   0.00000       0.00000    
      9891 IM1H     495      IM1H     C3       CD2R5D    2.50700       11.6110           0  -1.08300       1.10000    
      9892 IM1H     495      IM1H     DC3      DRUD     -2.55400      0.400000           0   0.00000       0.00000    
      9893 IM1H     495      IM1H     H5       HDR5D    0.192000       1.00800           0   0.00000       0.00000    
      9894 IM1H     495      IM1H     C4       CD2R5E    2.72410       11.6110           0  -1.25300       1.20000    
      9895 IM1H     495      IM1H     DC4      DRUD     -2.74710      0.400000           0   0.00000       0.00000    
      9896 IM1H     495      IM1H     H6       HDR5E    0.203000       1.00800           0   0.00000       0.00000    
      9897 IM1H     495      IM1H     N2       ND2R5C    2.04220       13.6070           0 -0.803000       1.00000    
      9898 IM1H     495      IM1H     DN2      DRUD     -2.19920      0.400000           0   0.00000       0.00000    
      9899 IM1H     495      IM1H     H7       HDP1A    0.363000       1.00800           0   0.00000       0.00000    
      9900 IM1H     495      IM1H     LPN21    LPD       0.00000       0.00000          -1   0.00000       0.00000    
      9901 IM1H     496      IM1H     C1       CD33F     2.48500       11.6110           0  -1.18100       1.10000    
      9902 IM1H     496      IM1H     DC1      DRUD     -2.66700      0.400000           0   0.00000       0.00000    
      9903 IM1H     496      IM1H     H1       HDA3A    0.135000       1.00800           0   0.00000       0.00000    
      9904 IM1H     496      IM1H     H2       HDA3A    0.135000       1.00800           0   0.00000       0.00000    
      9905 IM1H     496      IM1H     H3       HDA3A    0.135000       1.00800           0   0.00000       0.00000    
      9906 IM1H     496      IM1H     N1       ND2R5C    2.35720       13.6070           0 -0.803000       1.00000    
      9907 IM1H     496      IM1H     DN1      DRUD     -2.19920      0.400000           0   0.00000       0.00000    
      9908 IM1H     496      IM1H     C2       CD2R5D    2.44700       11.6110           0  -1.08300       1.10000    
      9909 IM1H     496      IM1H     DC2      DRUD     -2.55400      0.400000           0   0.00000       0.00000    
      9910 IM1H     496      IM1H     H4       HDR5D    0.195000       1.00800           0   0.00000       0.00000    
      9911 IM1H     496      IM1H     C3       CD2R5D    2.50700       11.6110           0  -1.08300       1.10000    
      9912 IM1H     496      IM1H     DC3      DRUD     -2.55400      0.400000           0   0.00000       0.00000    
      9913 IM1H     496      IM1H     H5       HDR5D    0.192000       1.00800           0   0.00000       0.00000    
      9914 IM1H     496      IM1H     C4       CD2R5E    2.72410       11.6110           0  -1.25300       1.20000    
      9915 IM1H     496      IM1H     DC4      DRUD     -2.74710      0.400000           0   0.00000       0.00000    
      9916 IM1H     496      IM1H     H6       HDR5E    0.203000       1.00800           0   0.00000       0.00000    
      9917 IM1H     496      IM1H     N2       ND2R5C    2.04220       13.6070           0 -0.803000       1.00000    
      9918 IM1H     496      IM1H     DN2      DRUD     -2.19920      0.400000           0   0.00000       0.00000    
      9919 IM1H     496      IM1H     H7       HDP1A    0.363000       1.00800           0   0.00000       0.00000    
      9920 IM1H     496      IM1H     LPN21    LPD       0.00000       0.00000          -1   0.00000       0.00000    
      9921 IM1H     497      IM1H     C1       CD33F     2.48500       11.6110           0  -1.18100       1.10000    
      9922 IM1H     497      IM1H     DC1      DRUD     -2.66700      0.400000           0   0.00000       0.00000    
      9923 IM1H     497      IM1H     H1       HDA3A    0.135000       1.00800           0   0.00000       0.00000    
      9924 IM1H     497      IM1H     H2       HDA3A    0.135000       1.00800           0   0.00000       0.00000    
      9925 IM1H     497      IM1H     H3       HDA3A    0.135000       1.00800           0   0.00000       0.00000    
      9926 IM1H     497      IM1H     N1       ND2R5C    2.35720       13.6070           0 -0.803000       1.00000    
      9927 IM1H     497      IM1H     DN1      DRUD     -2.19920      0.400000           0   0.00000       0.00000    
      9928 IM1H     497      IM1H     C2       CD2R5D    2.44700       11.6110           0  -1.08300       1.10000    
      9929 IM1H     497      IM1H     DC2      DRUD     -2.55400      0.400000           0   0.00000       0.00000    
      9930 IM1H     497      IM1H     H4       HDR5D    0.195000       1.00800           0   0.00000       0.00000    
      9931 IM1H     497      IM1H     C3       CD2R5D    2.50700       11.6110           0  -1.08300       1.10000    
      9932 IM1H     497      IM1H     DC3      DRUD     -2.55400      0.400000           0   0.00000       0.00000    
      9933 IM1H     497      IM1H     H5       HDR5D    0.192000       1.00800           0   0.00000       0.00000    
      9934 IM1H     497      IM1H     C4       CD2R5E    2.72410       11.6110           0  -1.25300       1.20000    
      9935 IM1H     497      IM1H     DC4      DRUD     -2.74710      0.400000           0   0.00000       0.00000    
      9936 IM1H     497      IM1H     H6       HDR5E    0.203000       1.00800           0   0.00000       0.00000    
      9937 IM1H     497      IM1H     N2       ND2R5C    2.04220       13.6070           0 -0.803000       1.00000    
      9938 IM1H     497      IM1H     DN2      DRUD     -2.19920      0.400000           0   0.00000       0.00000    
      9939 IM1H     497      IM1H     H7       HDP1A    0.363000       1.00800           0   0.00000       0.00000    
      9940 IM1H     497      IM1H     LPN21    LPD       0.00000       0.00000          -1   0.00000       0.00000    
      9941 IM1H     498      IM1H     C1       CD33F     2.48500       11.6110           0  -1.18100       1.10000    
      9942 IM1H     498      IM1H     DC1      DRUD     -2.66700      0.400000           0   0.00000       0.00000    
      9943 IM1H     498      IM1H     H1       HDA3A    0.135000       1.00800           0   0.00000       0.00000    
      9944 IM1H     498      IM1H     H2       HDA3A    0.135000       1.00800           0   0.00000       0.00000    
      9945 IM1H     498      IM1H     H3       HDA3A    0.135000       1.00800           0   0.00000       0.00000    
      9946 IM1H     498      IM1H     N1       ND2R5C    2.35720       13.6070           0 -0.803000       1.00000    
      9947 IM1H     498      IM1H     DN1      DRUD     -2.19920      0.400000           0   0.00000       0.00000    
      9948 IM1H     498      IM1H     C2       CD2R5D    2.44700       11.6110           0  -1.08300       1.10000    
      9949 IM1H     498      IM1H     DC2      DRUD     -2.55400      0.400000           0   0.00000       0.00000    
      9950 IM1H     498      IM1H     H4       HDR5D    0.195000       1.00800           0   0.00000       0.00000    
      9951 IM1H     498      IM1H     C3       CD2R5D    2.50700       11.6110           0  -1.08300       1.10000    
      9952 IM1H     498      IM1H     DC3      DRUD     -2.55400      0.400000           0   0.00000       0.00000    
      9953 IM1H     498      IM1H     H5       HDR5D    0.192000       1.00800           0   0.00000       0.00000    
      9954 IM1H     498      IM1H     C4       CD2R5E    2.72410       11.6110           0  -1.25300       1.20000    
      9955 IM1H     498      IM1H     DC4      DRUD     -2.74710      0.400000           0   0.00000       0.00000    
      9956 IM1H     498      IM1H     H6       HDR5E    0.203000       1.00800           0   0.00000       0.00000    
      9957 IM1H     498      IM1H     N2       ND2R5C    2.04220       13.6070           0 -0.803000       1.00000    
      9958 IM1H     498      IM1H     DN2      DRUD     -2.19920      0.400000           0   0.00000       0.00000    
      9959 IM1H     498      IM1H     H7       HDP1A    0.363000       1.00800           0   0.00000       0.00000    
      9960 IM1H     498      IM1H     LPN21    LPD       0.00000       0.00000          -1   0.00000       0.00000    
      9961 IM1H     499      IM1H     C1       CD33F     2.48500       11.6110           0  -1.18100       1.10000    
      9962 IM1H     499      IM1H     DC1      DRUD     -2.66700      0.400000           0   0.00000       0.00000    
      9963 IM1H     499      IM1H     H1       HDA3A    0.135000       1.00800           0   0.00000       0.00000    
      9964 IM1H     499      IM1H     H2       HDA3A    0.135000       1.00800           0   0.00000       0.00000    
      9965 IM1H     499      IM1H     H3       HDA3A    0.135000       1.00800           0   0.00000       0.00000    
      9966 IM1H     499      IM1H     N1       ND2R5C    2.35720       13.6070           0 -0.803000       1.00000    
      9967 IM1H     499      IM1H     DN1      DRUD     -2.19920      0.400000           0   0.00000       0.00000    
      9968 IM1H     499      IM1H     C2       CD2R5D    2.44700       11.6110           0  -1.08300       1.10000    
      9969 IM1H     499      IM1H     DC2      DRUD     -2.55400      0.400000           0   0.00000       0.00000    
      9970 IM1H     499      IM1H     H4       HDR5D    0.195000       1.00800           0   0.00000       0.00000    
      9971 IM1H     499      IM1H     C3       CD2R5D    2.50700       11.6110           0  -1.08300       1.10000    
      9972 IM1H     499      IM1H     DC3      DRUD     -2.55400      0.400000           0   0.00000       0.00000    
      9973 IM1H     499      IM1H     H5       HDR5D    0.192000       1.00800           0   0.00000       0.00000    
      9974 IM1H     499      IM1H     C4       CD2R5E    2.72410       11.6110           0  -1.25300       1.20000    
      9975 IM1H     499      IM1H     DC4      DRUD     -2.74710      0.400000           0   0.00000       0.00000    
      9976 IM1H     499      IM1H     H6       HDR5E    0.203000       1.00800           0   0.00000       0.00000    
      9977 IM1H     499      IM1H     N2       ND2R5C    2.04220       13.6070           0 -0.803000       1.00000    
      9978 IM1H     499      IM1H     DN2      DRUD     -2.19920      0.400000           0   0.00000       0.00000    
      9979 IM1H     499      IM1H     H7       HDP1A    0.363000       1.00800           0   0.00000       0.00000    
      9980 IM1H     499      IM1H     LPN21    LPD       0.00000       0.00000          -1   0.00000       0.00000    
      9981 IM1H     500      IM1H     C1       CD33F     2.48500       11.6110           0  -1.18100       1.10000    
      9982 IM1H     500      IM1H     DC1      DRUD     -2.66700      0.400000           0   0.00000       0.00000    
      9983 IM1H     500      IM1H     H1       HDA3A    0.135000       1.00800           0   0.00000       0.00000    
      9984 IM1H     500      IM1H     H2       HDA3A    0.135000       1.00800           0   0.00000       0.00000    
      9985 IM1H     500      IM1H     H3       HDA3A    0.135000       1.00800           0   0.00000       0.00000    
      9986 IM1H     500      IM1H     N1       ND2R5C    2.35720       13.6070           0 -0.803000       1.00000    
      9987 IM1H     500      IM1H     DN1      DRUD     -2.19920      0.400000           0   0.00000       0.00000    
      9988 IM1H     500      IM1H     C2       CD2R5D    2.44700       11.6110           0  -1.08300       1.10000    
      9989 IM1H     500      IM1H     DC2      DRUD     -2.55400      0.400000           0   0.00000       0.00000    
      9990 IM1H     500      IM1H     H4       HDR5D    0.195000       1.00800           0   0.00000       0.00000    
      9991 IM1H     500      IM1H     C3       CD2R5D    2.50700       11.6110           0  -1.08300       1.10000    
      9992 IM1H     500      IM1H     DC3      DRUD     -2.55400      0.400000           0   0.00000       0.00000    
      9993 IM1H     500      IM1H     H5       HDR5D    0.192000       1.00800           0   0.00000       0.00000    
      9994 IM1H     500      IM1H     C4       CD2R5E    2.72410       11.6110           0  -1.25300       1.20000    
      9995 IM1H     500      IM1H     DC4      DRUD     -2.74710      0.400000           0   0.00000       0.00000    
      9996 IM1H     500      IM1H     H6       HDR5E    0.203000       1.00800           0   0.00000       0.00000    
      9997 IM1H     500      IM1H     N2       ND2R5C    2.04220       13.6070           0 -0.803000       1.00000    
      9998 IM1H     500      IM1H     DN2      DRUD     -2.19920      0.400000           0   0.00000       0.00000    
      9999 IM1H     500      IM1H     H7       HDP1A    0.363000       1.00800           0   0.00000       0.00000    
     10000 IM1H     500      IM1H     LPN21    LPD       0.00000       0.00000          -1   0.00000       0.00000    
     10001 FORA     1        FORA     C        CD2O2A    2.99370       11.6110           0  -1.01600      0.899000    
     10002 FORA     1        FORA     DC       DRUD     -2.47370      0.400000           0   0.00000       0.00000    
     10003 FORA     1        FORA     H        HDP1C     0.00000       1.00800           0   0.00000       0.00000    
     10004 FORA     1        FORA     O2       OD2C2A    2.05180       15.5994           0 -0.699000       2.39900    
     10005 FORA     1        FORA     DO2      DRUD     -2.05180      0.400000           0   0.00000       0.00000    
     10006 FORA     1        FORA     O1       OD2C2A    2.05180       15.5994           0 -0.699000       2.39900    
     10007 FORA     1        FORA     DO1      DRUD     -2.05180      0.400000           0   0.00000       0.00000    
     10008 FORA     1        FORA     HO1      DUMH      0.00000       1.00800           0   0.00000       0.00000    
     10009 FORA     1        FORA     LPO21    LPDO1   -0.380000       0.00000          -1   0.00000       0.00000    
     10010 FORA     1        FORA     LPO22    LPDO1   -0.380000       0.00000          -1   0.00000       0.00000    
     10011 FORA     1        FORA     LPO11    LPDO1   -0.380000       0.00000          -1   0.00000       0.00000    
     10012 FORA     1        FORA     LPO12    LPDO1   -0.380000       0.00000          -1   0.00000       0.00000    
     10013 FORA     2        FORA     C        CD2O2A    2.99370       11.6110           0  -1.01600      0.899000    
     10014 FORA     2        FORA     DC       DRUD     -2.47370      0.400000           0   0.00000       0.00000    
     10015 FORA     2        FORA     H        HDP1C     0.00000       1.00800           0   0.00000       0.00000    
     10016 FORA     2        FORA     O2       OD2C2A    2.05180       15.5994           0 -0.699000       2.39900    
     10017 FORA     2        FORA     DO2      DRUD     -2.05180      0.400000           0   0.00000       0.00000    
     10018 FORA     2        FORA     O1       OD2C2A    2.05180       15.5994           0 -0.699000       2.39900    
     10019 FORA     2        FORA     DO1      DRUD     -2.05180      0.400000           0   0.00000       0.00000    
     10020 FORA     2        FORA     HO1      DUMH      0.00000       1.00800           0   0.00000       0.00000    
     10021 FORA     2        FORA     LPO21    LPDO1   -0.380000       0.00000          -1   0.00000       0.00000    
     10022 FORA     2        FORA     LPO22    LPDO1   -0.380000       0.00000          -1   0.00000       0.00000    
     10023 FORA     2        FORA     LPO11    LPDO1   -0.380000       0.00000          -1   0.00000       0.00000    
     10024 FORA     2        FORA     LPO12    LPDO1   -0.380000       0.00000          -1   0.00000       0.00000    
     10025 FORA     3        FORA     C        CD2O2A    2.99370       11.6110           0  -1.01600      0.899000    
     10026 FORA     3        FORA     DC       DRUD     -2.47370      0.400000           0   0.00000       0.00000    
     10027 FORA     3        FORA     H        HDP1C     0.00000       1.00800           0   0.00000       0.00000    
     10028 FORA     3        FORA     O2       OD2C2A    2.05180       15.5994           0 -0.699000       2.39900    
     10029 FORA     3        FORA     DO2      DRUD     -2.05180      0.400000           0   0.00000       0.00000    
     10030 FORA     3        FORA     O1       OD2C2A    2.05180       15.5994           0 -0.699000       2.39900    
     10031 FORA     3        FORA     DO1      DRUD     -2.05180      0.400000           0   0.00000       0.00000    
     10032 FORA     3        FORA     HO1      DUMH      0.00000       1.00800           0   0.00000       0.00000    
     10033 FORA     3        FORA     LPO21    LPDO1   -0.380000       0.00000          -1   0.00000       0.00000    
     10034 FORA     3        FORA     LPO22    LPDO1   -0.380000       0.00000          -1   0.00000       0.00000    
     10035 FORA     3        FORA     LPO11    LPDO1   -0.380000       0.00000          -1   0.00000       0.00000    
     10036 FORA     3        FORA     LPO12    LPDO1   -0.380000       0.00000          -1   0.00000       0.00000    
     10037 FORA     4        FORA     C        CD2O2A    2.99370       11.6110           0  -1.01600      0.899000    
     10038 FORA     4        FORA     DC       DRUD     -2.47370      0.400000           0   0.00000       0.00000    
     10039 FORA     4        FORA     H        HDP1C     0.00000       1.00800           0   0.00000       0.00000    
     10040 FORA     4        FORA     O2       OD2C2A    2.05180       15.5994           0 -0.699000       2.39900    
     10041 FORA     4        FORA     DO2      DRUD     -2.05180      0.400000           0   0.00000       0.00000    
     10042 FORA     4        FORA     O1       OD2C2A    2.05180       15.5994           0 -0.699000       2.39900    
     10043 FORA     4        FORA     DO1      DRUD     -2.05180      0.400000           0   0.00000       0.00000    
     10044 FORA     4        FORA     HO1      DUMH      0.00000       1.00800           0   0.00000       0.00000    
     10045 FORA     4        FORA     LPO21    LPDO1   -0.380000       0.00000          -1   0.00000       0.00000    
     10046 FORA     4        FORA     LPO22    LPDO1   -0.380000       0.00000          -1   0.00000       0.00000    
     10047 FORA     4        FORA     LPO11    LPDO1   -0.380000       0.00000          -1   0.00000       0.00000    
     10048 FORA     4        FORA     LPO12    LPDO1   -0.380000       0.00000          -1   0.00000       0.00000    
     10049 FORA     5        FORA     C        CD2O2A    2.99370       11.6110           0  -1.01600      0.899000    
     10050 FORA     5        FORA     DC       DRUD     -2.47370      0.400000           0   0.00000       0.00000    
     10051 FORA     5        FORA     H        HDP1C     0.00000       1.00800           0   0.00000       0.00000    
     10052 FORA     5        FORA     O2       OD2C2A    2.05180       15.5994           0 -0.699000       2.39900    
     10053 FORA     5        FORA     DO2      DRUD     -2.05180      0.400000           0   0.00000       0.00000    
     10054 FORA     5        FORA     O1       OD2C2A    2.05180       15.5994           0 -0.699000       2.39900    
     10055 FORA     5        FORA     DO1      DRUD     -2.05180      0.400000           0   0.00000       0.00000    
     10056 FORA     5        FORA     HO1      DUMH      0.00000       1.00800           0   0.00000       0.00000    
     10057 FORA     5        FORA     LPO21    LPDO1   -0.380000       0.00000          -1   0.00000       0.00000    
     10058 FORA     5        FORA     LPO22    LPDO1   -0.380000       0.00000          -1   0.00000       0.00000    
     10059 FORA     5        FORA     LPO11    LPDO1   -0.380000       0.00000          -1   0.00000       0.00000    
     10060 FORA     5        FORA     LPO12    LPDO1   -0.380000       0.00000          -1   0.00000       0.00000    
     10061 FORA     6        FORA     C        CD2O2A    2.99370       11.6110           0  -1.01600      0.899000    
     10062 FORA     6        FORA     DC       DRUD     -2.47370      0.400000           0   0.00000       0.00000    
     10063 FORA     6        FORA     H        HDP1C     0.00000       1.00800           0   0.00000       0.00000    
     10064 FORA     6        FORA     O2       OD2C2A    2.05180       15.5994           0 -0.699000       2.39900    
     10065 FORA     6        FORA     DO2      DRUD     -2.05180      0.400000           0   0.00000       0.00000    
     10066 FORA     6        FORA     O1       OD2C2A    2.05180       15.5994           0 -0.699000       2.39900    
     10067 FORA     6        FORA     DO1      DRUD     -2.05180      0.400000           0   0.00000       0.00000    
     10068 FORA     6        FORA     HO1      DUMH      0.00000       1.00800           0   0.00000       0.00000    
     10069 FORA     6        FORA     LPO21    LPDO1   -0.380000       0.00000          -1   0.00000       0.00000    
     10070 FORA     6        FORA     LPO22    LPDO1   -0.380000       0.00000          -1   0.00000       0.00000    
     10071 FORA     6        FORA     LPO11    LPDO1   -0.380000       0.00000          -1   0.00000       0.00000    
     10072 FORA     6        FORA     LPO12    LPDO1   -0.380000       0.00000          -1   0.00000       0.00000    
     10073 FORA     7        FORA     C        CD2O2A    2.99370       11.6110           0  -1.01600      0.899000    
     10074 FORA     7        FORA     DC       DRUD     -2.47370      0.400000           0   0.00000       0.00000    
     10075 FORA     7        FORA     H        HDP1C     0.00000       1.00800           0   0.00000       0.00000    
     10076 FORA     7        FORA     O2       OD2C2A    2.05180       15.5994           0 -0.699000       2.39900    
     10077 FORA     7        FORA     DO2      DRUD     -2.05180      0.400000           0   0.00000       0.00000    
     10078 FORA     7        FORA     O1       OD2C2A    2.05180       15.5994           0 -0.699000       2.39900    
     10079 FORA     7        FORA     DO1      DRUD     -2.05180      0.400000           0   0.00000       0.00000    
     10080 FORA     7        FORA     HO1      DUMH      0.00000       1.00800           0   0.00000       0.00000    
     10081 FORA     7        FORA     LPO21    LPDO1   -0.380000       0.00000          -1   0.00000       0.00000    
     10082 FORA     7        FORA     LPO22    LPDO1   -0.380000       0.00000          -1   0.00000       0.00000    
     10083 FORA     7        FORA     LPO11    LPDO1   -0.380000       0.00000          -1   0.00000       0.00000    
     10084 FORA     7        FORA     LPO12    LPDO1   -0.380000       0.00000          -1   0.00000       0.00000    
     10085 FORA     8        FORA     C        CD2O2A    2.99370       11.6110           0  -1.01600      0.899000    
     10086 FORA     8        FORA     DC       DRUD     -2.47370      0.400000           0   0.00000       0.00000    
     10087 FORA     8        FORA     H        HDP1C     0.00000       1.00800           0   0.00000       0.00000    
     10088 FORA     8        FORA     O2       OD2C2A    2.05180       15.5994           0 -0.699000       2.39900    
     10089 FORA     8        FORA     DO2      DRUD     -2.05180      0.400000           0   0.00000       0.00000    
     10090 FORA     8        FORA     O1       OD2C2A    2.05180       15.5994           0 -0.699000       2.39900    
     10091 FORA     8        FORA     DO1      DRUD     -2.05180      0.400000           0   0.00000       0.00000    
     10092 FORA     8        FORA     HO1      DUMH      0.00000       1.00800           0   0.00000       0.00000    
     10093 FORA     8        FORA     LPO21    LPDO1   -0.380000       0.00000          -1   0.00000       0.00000    
     10094 FORA     8        FORA     LPO22    LPDO1   -0.380000       0.00000          -1   0.00000       0.00000    
     10095 FORA     8        FORA     LPO11    LPDO1   -0.380000       0.00000          -1   0.00000       0.00000    
     10096 FORA     8        FORA     LPO12    LPDO1   -0.380000       0.00000          -1   0.00000       0.00000    
     10097 FORA     9        FORA     C        CD2O2A    2.99370       11.6110           0  -1.01600      0.899000    
     10098 FORA     9        FORA     DC       DRUD     -2.47370      0.400000           0   0.00000       0.00000    
     10099 FORA     9        FORA     H        HDP1C     0.00000       1.00800           0   0.00000       0.00000    
     10100 FORA     9        FORA     O2       OD2C2A    2.05180       15.5994           0 -0.699000       2.39900    
     10101 FORA     9        FORA     DO2      DRUD     -2.05180      0.400000           0   0.00000       0.00000    
     10102 FORA     9        FORA     O1       OD2C2A    2.05180       15.5994           0 -0.699000       2.39900    
     10103 FORA     9        FORA     DO1      DRUD     -2.05180      0.400000           0   0.00000       0.00000    
     10104 FORA     9        FORA     HO1      DUMH      0.00000       1.00800           0   0.00000       0.00000    
     10105 FORA     9        FORA     LPO21    LPDO1   -0.380000       0.00000          -1   0.00000       0.00000    
     10106 FORA     9        FORA     LPO22    LPDO1   -0.380000       0.00000          -1   0.00000       0.00000    
     10107 FORA     9        FORA     LPO11    LPDO1   -0.380000       0.00000          -1   0.00000       0.00000    
     10108 FORA     9        FORA     LPO12    LPDO1   -0.380000       0.00000          -1   0.00000       0.00000    
     10109 FORA     10       FORA     C        CD2O2A    2.99370       11.6110           0  -1.01600      0.899000    
     10110 FORA     10       FORA     DC       DRUD     -2.47370      0.400000           0   0.00000       0.00000    
     10111 FORA     10       FORA     H        HDP1C     0.00000       1.00800           0   0.00000       0.00000    
     10112 FORA     10       FORA     O2       OD2C2A    2.05180       15.5994           0 -0.699000       2.39900    
     10113 FORA     10       FORA     DO2      DRUD     -2.05180      0.400000           0   0.00000       0.00000    
     10114 FORA     10       FORA     O1       OD2C2A    2.05180       15.5994           0 -0.699000       2.39900    
     10115 FORA     10       FORA     DO1      DRUD     -2.05180      0.400000           0   0.00000       0.00000    
     10116 FORA     10       FORA     HO1      DUMH      0.00000       1.00800           0   0.00000       0.00000    
     10117 FORA     10       FORA     LPO21    LPDO1   -0.380000       0.00000          -1   0.00000       0.00000    
     10118 FORA     10       FORA     LPO22    LPDO1   -0.380000       0.00000          -1   0.00000       0.00000    
     10119 FORA     10       FORA     LPO11    LPDO1   -0.380000       0.00000          -1   0.00000       0.00000    
     10120 FORA     10       FORA     LPO12    LPDO1   -0.380000       0.00000          -1   0.00000       0.00000    
     10121 FORA     11       FORA     C        CD2O2A    2.99370       11.6110           0  -1.01600      0.899000    
     10122 FORA     11       FORA     DC       DRUD     -2.47370      0.400000           0   0.00000       0.00000    
     10123 FORA     11       FORA     H        HDP1C     0.00000       1.00800           0   0.00000       0.00000    
     10124 FORA     11       FORA     O2       OD2C2A    2.05180       15.5994           0 -0.699000       2.39900    
     10125 FORA     11       FORA     DO2      DRUD     -2.05180      0.400000           0   0.00000       0.00000    
     10126 FORA     11       FORA     O1       OD2C2A    2.05180       15.5994           0 -0.699000       2.39900    
     10127 FORA     11       FORA     DO1      DRUD     -2.05180      0.400000           0   0.00000       0.00000    
     10128 FORA     11       FORA     HO1      DUMH      0.00000       1.00800           0   0.00000       0.00000    
     10129 FORA     11       FORA     LPO21    LPDO1   -0.380000       0.00000          -1   0.00000       0.00000    
     10130 FORA     11       FORA     LPO22    LPDO1   -0.380000       0.00000          -1   0.00000       0.00000    
     10131 FORA     11       FORA     LPO11    LPDO1   -0.380000       0.00000          -1   0.00000       0.00000    
     10132 FORA     11       FORA     LPO12    LPDO1   -0.380000       0.00000          -1   0.00000       0.00000    
     10133 FORA     12       FORA     C        CD2O2A    2.99370       11.6110           0  -1.01600      0.899000    
     10134 FORA     12       FORA     DC       DRUD     -2.47370      0.400000           0   0.00000       0.00000    
     10135 FORA     12       FORA     H        HDP1C     0.00000       1.00800           0   0.00000       0.00000    
     10136 FORA     12       FORA     O2       OD2C2A    2.05180       15.5994           0 -0.699000       2.39900    
     10137 FORA     12       FORA     DO2      DRUD     -2.05180      0.400000           0   0.00000       0.00000    
     10138 FORA     12       FORA     O1       OD2C2A    2.05180       15.5994           0 -0.699000       2.39900    
     10139 FORA     12       FORA     DO1      DRUD     -2.05180      0.400000           0   0.00000       0.00000    
     10140 FORA     12       FORA     HO1      DUMH      0.00000       1.00800           0   0.00000       0.00000    
     10141 FORA     12       FORA     LPO21    LPDO1   -0.380000       0.00000          -1   0.00000       0.00000    
     10142 FORA     12       FORA     LPO22    LPDO1   -0.380000       0.00000          -1   0.00000       0.00000    
     10143 FORA     12       FORA     LPO11    LPDO1   -0.380000       0.00000          -1   0.00000       0.00000    
     10144 FORA     12       FORA     LPO12    LPDO1   -0.380000       0.00000          -1   0.00000       0.00000    
     10145 FORA     13       FORA     C        CD2O2A    2.99370       11.6110           0  -1.01600      0.899000    
     10146 FORA     13       FORA     DC       DRUD     -2.47370      0.400000           0   0.00000       0.00000    
     10147 FORA     13       FORA     H        HDP1C     0.00000       1.00800           0   0.00000       0.00000    
     10148 FORA     13       FORA     O2       OD2C2A    2.05180       15.5994           0 -0.699000       2.39900    
     10149 FORA     13       FORA     DO2      DRUD     -2.05180      0.400000           0   0.00000       0.00000    
     10150 FORA     13       FORA     O1       OD2C2A    2.05180       15.5994           0 -0.699000       2.39900    
     10151 FORA     13       FORA     DO1      DRUD     -2.05180      0.400000           0   0.00000       0.00000    
     10152 FORA     13       FORA     HO1      DUMH      0.00000       1.00800           0   0.00000       0.00000    
     10153 FORA     13       FORA     LPO21    LPDO1   -0.380000       0.00000          -1   0.00000       0.00000    
     10154 FORA     13       FORA     LPO22    LPDO1   -0.380000       0.00000          -1   0.00000       0.00000    
     10155 FORA     13       FORA     LPO11    LPDO1   -0.380000       0.00000          -1   0.00000       0.00000    
     10156 FORA     13       FORA     LPO12    LPDO1   -0.380000       0.00000          -1   0.00000       0.00000    
     10157 FORA     14       FORA     C        CD2O2A    2.99370       11.6110           0  -1.01600      0.899000    
     10158 FORA     14       FORA     DC       DRUD     -2.47370      0.400000           0   0.00000       0.00000    
     10159 FORA     14       FORA     H        HDP1C     0.00000       1.00800           0   0.00000       0.00000    
     10160 FORA     14       FORA     O2       OD2C2A    2.05180       15.5994           0 -0.699000       2.39900    
     10161 FORA     14       FORA     DO2      DRUD     -2.05180      0.400000           0   0.00000       0.00000    
     10162 FORA     14       FORA     O1       OD2C2A    2.05180       15.5994           0 -0.699000       2.39900    
     10163 FORA     14       FORA     DO1      DRUD     -2.05180      0.400000           0   0.00000       0.00000    
     10164 FORA     14       FORA     HO1      DUMH      0.00000       1.00800           0   0.00000       0.00000    
     10165 FORA     14       FORA     LPO21    LPDO1   -0.380000       0.00000          -1   0.00000       0.00000    
     10166 FORA     14       FORA     LPO22    LPDO1   -0.380000       0.00000          -1   0.00000       0.00000    
     10167 FORA     14       FORA     LPO11    LPDO1   -0.380000       0.00000          -1   0.00000       0.00000    
     10168 FORA     14       FORA     LPO12    LPDO1   -0.380000       0.00000          -1   0.00000       0.00000    
     10169 FORA     15       FORA     C        CD2O2A    2.99370       11.6110           0  -1.01600      0.899000    
     10170 FORA     15       FORA     DC       DRUD     -2.47370      0.400000           0   0.00000       0.00000    
     10171 FORA     15       FORA     H        HDP1C     0.00000       1.00800           0   0.00000       0.00000    
     10172 FORA     15       FORA     O2       OD2C2A    2.05180       15.5994           0 -0.699000       2.39900    
     10173 FORA     15       FORA     DO2      DRUD     -2.05180      0.400000           0   0.00000       0.00000    
     10174 FORA     15       FORA     O1       OD2C2A    2.05180       15.5994           0 -0.699000       2.39900    
     10175 FORA     15       FORA     DO1      DRUD     -2.05180      0.400000           0   0.00000       0.00000    
     10176 FORA     15       FORA     HO1      DUMH      0.00000       1.00800           0   0.00000       0.00000    
     10177 FORA     15       FORA     LPO21    LPDO1   -0.380000       0.00000          -1   0.00000       0.00000    
     10178 FORA     15       FORA     LPO22    LPDO1   -0.380000       0.00000          -1   0.00000       0.00000    
     10179 FORA     15       FORA     LPO11    LPDO1   -0.380000       0.00000          -1   0.00000       0.00000    
     10180 FORA     15       FORA     LPO12    LPDO1   -0.380000       0.00000          -1   0.00000       0.00000    
     10181 FORA     16       FORA     C        CD2O2A    2.99370       11.6110           0  -1.01600      0.899000    
     10182 FORA     16       FORA     DC       DRUD     -2.47370      0.400000           0   0.00000       0.00000    
     10183 FORA     16       FORA     H        HDP1C     0.00000       1.00800           0   0.00000       0.00000    
     10184 FORA     16       FORA     O2       OD2C2A    2.05180       15.5994           0 -0.699000       2.39900    
     10185 FORA     16       FORA     DO2      DRUD     -2.05180      0.400000           0   0.00000       0.00000    
     10186 FORA     16       FORA     O1       OD2C2A    2.05180       15.5994           0 -0.699000       2.39900    
     10187 FORA     16       FORA     DO1      DRUD     -2.05180      0.400000           0   0.00000       0.00000    
     10188 FORA     16       FORA     HO1      DUMH      0.00000       1.00800           0   0.00000       0.00000    
     10189 FORA     16       FORA     LPO21    LPDO1   -0.380000       0.00000          -1   0.00000       0.00000    
     10190 FORA     16       FORA     LPO22    LPDO1   -0.380000       0.00000          -1   0.00000       0.00000    
     10191 FORA     16       FORA     LPO11    LPDO1   -0.380000       0.00000          -1   0.00000       0.00000    
     10192 FORA     16       FORA     LPO12    LPDO1   -0.380000       0.00000          -1   0.00000       0.00000    
     10193 FORA     17       FORA     C        CD2O2A    2.99370       11.6110           0  -1.01600      0.899000    
     10194 FORA     17       FORA     DC       DRUD     -2.47370      0.400000           0   0.00000       0.00000    
     10195 FORA     17       FORA     H        HDP1C     0.00000       1.00800           0   0.00000       0.00000    
     10196 FORA     17       FORA     O2       OD2C2A    2.05180       15.5994           0 -0.699000       2.39900    
     10197 FORA     17       FORA     DO2      DRUD     -2.05180      0.400000           0   0.00000       0.00000    
     10198 FORA     17       FORA     O1       OD2C2A    2.05180       15.5994           0 -0.699000       2.39900    
     10199 FORA     17       FORA     DO1      DRUD     -2.05180      0.400000           0   0.00000       0.00000    
     10200 FORA     17       FORA     HO1      DUMH      0.00000       1.00800           0   0.00000       0.00000    
     10201 FORA     17       FORA     LPO21    LPDO1   -0.380000       0.00000          -1   0.00000       0.00000    
     10202 FORA     17       FORA     LPO22    LPDO1   -0.380000       0.00000          -1   0.00000       0.00000    
     10203 FORA     17       FORA     LPO11    LPDO1   -0.380000       0.00000          -1   0.00000       0.00000    
     10204 FORA     17       FORA     LPO12    LPDO1   -0.380000       0.00000          -1   0.00000       0.00000    
     10205 FORA     18       FORA     C        CD2O2A    2.99370       11.6110           0  -1.01600      0.899000    
     10206 FORA     18       FORA     DC       DRUD     -2.47370      0.400000           0   0.00000       0.00000    
     10207 FORA     18       FORA     H        HDP1C     0.00000       1.00800           0   0.00000       0.00000    
     10208 FORA     18       FORA     O2       OD2C2A    2.05180       15.5994           0 -0.699000       2.39900    
     10209 FORA     18       FORA     DO2      DRUD     -2.05180      0.400000           0   0.00000       0.00000    
     10210 FORA     18       FORA     O1       OD2C2A    2.05180       15.5994           0 -0.699000       2.39900    
     10211 FORA     18       FORA     DO1      DRUD     -2.05180      0.400000           0   0.00000       0.00000    
     10212 FORA     18       FORA     HO1      DUMH      0.00000       1.00800           0   0.00000       0.00000    
     10213 FORA     18       FORA     LPO21    LPDO1   -0.380000       0.00000          -1   0.00000       0.00000    
     10214 FORA     18       FORA     LPO22    LPDO1   -0.380000       0.00000          -1   0.00000       0.00000    
     10215 FORA     18       FORA     LPO11    LPDO1   -0.380000       0.00000          -1   0.00000       0.00000    
     10216 FORA     18       FORA     LPO12    LPDO1   -0.380000       0.00000          -1   0.00000       0.00000    
     10217 FORA     19       FORA     C        CD2O2A    2.99370       11.6110           0  -1.01600      0.899000    
     10218 FORA     19       FORA     DC       DRUD     -2.47370      0.400000           0   0.00000       0.00000    
     10219 FORA     19       FORA     H        HDP1C     0.00000       1.00800           0   0.00000       0.00000    
     10220 FORA     19       FORA     O2       OD2C2A    2.05180       15.5994           0 -0.699000       2.39900    
     10221 FORA     19       FORA     DO2      DRUD     -2.05180      0.400000           0   0.00000       0.00000    
     10222 FORA     19       FORA     O1       OD2C2A    2.05180       15.5994           0 -0.699000       2.39900    
     10223 FORA     19       FORA     DO1      DRUD     -2.05180      0.400000           0   0.00000       0.00000    
     10224 FORA     19       FORA     HO1      DUMH      0.00000       1.00800           0   0.00000       0.00000    
     10225 FORA     19       FORA     LPO21    LPDO1   -0.380000       0.00000          -1   0.00000       0.00000    
     10226 FORA     19       FORA     LPO22    LPDO1   -0.380000       0.00000          -1   0.00000       0.00000    
     10227 FORA     19       FORA     LPO11    LPDO1   -0.380000       0.00000          -1   0.00000       0.00000    
     10228 FORA     19       FORA     LPO12    LPDO1   -0.380000       0.00000          -1   0.00000       0.00000    
     10229 FORA     20       FORA     C        CD2O2A    2.99370       11.6110           0  -1.01600      0.899000    
     10230 FORA     20       FORA     DC       DRUD     -2.47370      0.400000           0   0.00000       0.00000    
     10231 FORA     20       FORA     H        HDP1C     0.00000       1.00800           0   0.00000       0.00000    
     10232 FORA     20       FORA     O2       OD2C2A    2.05180       15.5994           0 -0.699000       2.39900    
     10233 FORA     20       FORA     DO2      DRUD     -2.05180      0.400000           0   0.00000       0.00000    
     10234 FORA     20       FORA     O1       OD2C2A    2.05180       15.5994           0 -0.699000       2.39900    
     10235 FORA     20       FORA     DO1      DRUD     -2.05180      0.400000           0   0.00000       0.00000    
     10236 FORA     20       FORA     HO1      DUMH      0.00000       1.00800           0   0.00000       0.00000    
     10237 FORA     20       FORA     LPO21    LPDO1   -0.380000       0.00000          -1   0.00000       0.00000    
     10238 FORA     20       FORA     LPO22    LPDO1   -0.380000       0.00000          -1   0.00000       0.00000    
     10239 FORA     20       FORA     LPO11    LPDO1   -0.380000       0.00000          -1   0.00000       0.00000    
     10240 FORA     20       FORA     LPO12    LPDO1   -0.380000       0.00000          -1   0.00000       0.00000    
     10241 FORA     21       FORA     C        CD2O2A    2.99370       11.6110           0  -1.01600      0.899000    
     10242 FORA     21       FORA     DC       DRUD     -2.47370      0.400000           0   0.00000       0.00000    
     10243 FORA     21       FORA     H        HDP1C     0.00000       1.00800           0   0.00000       0.00000    
     10244 FORA     21       FORA     O2       OD2C2A    2.05180       15.5994           0 -0.699000       2.39900    
     10245 FORA     21       FORA     DO2      DRUD     -2.05180      0.400000           0   0.00000       0.00000    
     10246 FORA     21       FORA     O1       OD2C2A    2.05180       15.5994           0 -0.699000       2.39900    
     10247 FORA     21       FORA     DO1      DRUD     -2.05180      0.400000           0   0.00000       0.00000    
     10248 FORA     21       FORA     HO1      DUMH      0.00000       1.00800           0   0.00000       0.00000    
     10249 FORA     21       FORA     LPO21    LPDO1   -0.380000       0.00000          -1   0.00000       0.00000    
     10250 FORA     21       FORA     LPO22    LPDO1   -0.380000       0.00000          -1   0.00000       0.00000    
     10251 FORA     21       FORA     LPO11    LPDO1   -0.380000       0.00000          -1   0.00000       0.00000    
     10252 FORA     21       FORA     LPO12    LPDO1   -0.380000       0.00000          -1   0.00000       0.00000    
     10253 FORA     22       FORA     C        CD2O2A    2.99370       11.6110           0  -1.01600      0.899000    
     10254 FORA     22       FORA     DC       DRUD     -2.47370      0.400000           0   0.00000       0.00000    
     10255 FORA     22       FORA     H        HDP1C     0.00000       1.00800           0   0.00000       0.00000    
     10256 FORA     22       FORA     O2       OD2C2A    2.05180       15.5994           0 -0.699000       2.39900    
     10257 FORA     22       FORA     DO2      DRUD     -2.05180      0.400000           0   0.00000       0.00000    
     10258 FORA     22       FORA     O1       OD2C2A    2.05180       15.5994           0 -0.699000       2.39900    
     10259 FORA     22       FORA     DO1      DRUD     -2.05180      0.400000           0   0.00000       0.00000    
     10260 FORA     22       FORA     HO1      DUMH      0.00000       1.00800           0   0.00000       0.00000    
     10261 FORA     22       FORA     LPO21    LPDO1   -0.380000       0.00000          -1   0.00000       0.00000    
     10262 FORA     22       FORA     LPO22    LPDO1   -0.380000       0.00000          -1   0.00000       0.00000    
     10263 FORA     22       FORA     LPO11    LPDO1   -0.380000       0.00000          -1   0.00000       0.00000    
     10264 FORA     22       FORA     LPO12    LPDO1   -0.380000       0.00000          -1   0.00000       0.00000    
     10265 FORA     23       FORA     C        CD2O2A    2.99370       11.6110           0  -1.01600      0.899000    
     10266 FORA     23       FORA     DC       DRUD     -2.47370      0.400000           0   0.00000       0.00000    
     10267 FORA     23       FORA     H        HDP1C     0.00000       1.00800           0   0.00000       0.00000    
     10268 FORA     23       FORA     O2       OD2C2A    2.05180       15.5994           0 -0.699000       2.39900    
     10269 FORA     23       FORA     DO2      DRUD     -2.05180      0.400000           0   0.00000       0.00000    
     10270 FORA     23       FORA     O1       OD2C2A    2.05180       15.5994           0 -0.699000       2.39900    
     10271 FORA     23       FORA     DO1      DRUD     -2.05180      0.400000           0   0.00000       0.00000    
     10272 FORA     23       FORA     HO1      DUMH      0.00000       1.00800           0   0.00000       0.00000    
     10273 FORA     23       FORA     LPO21    LPDO1   -0.380000       0.00000          -1   0.00000       0.00000    
     10274 FORA     23       FORA     LPO22    LPDO1   -0.380000       0.00000          -1   0.00000       0.00000    
     10275 FORA     23       FORA     LPO11    LPDO1   -0.380000       0.00000          -1   0.00000       0.00000    
     10276 FORA     23       FORA     LPO12    LPDO1   -0.380000       0.00000          -1   0.00000       0.00000    
     10277 FORA     24       FORA     C        CD2O2A    2.99370       11.6110           0  -1.01600      0.899000    
     10278 FORA     24       FORA     DC       DRUD     -2.47370      0.400000           0   0.00000       0.00000    
     10279 FORA     24       FORA     H        HDP1C     0.00000       1.00800           0   0.00000       0.00000    
     10280 FORA     24       FORA     O2       OD2C2A    2.05180       15.5994           0 -0.699000       2.39900    
     10281 FORA     24       FORA     DO2      DRUD     -2.05180      0.400000           0   0.00000       0.00000    
     10282 FORA     24       FORA     O1       OD2C2A    2.05180       15.5994           0 -0.699000       2.39900    
     10283 FORA     24       FORA     DO1      DRUD     -2.05180      0.400000           0   0.00000       0.00000    
     10284 FORA     24       FORA     HO1      DUMH      0.00000       1.00800           0   0.00000       0.00000    
     10285 FORA     24       FORA     LPO21    LPDO1   -0.380000       0.00000          -1   0.00000       0.00000    
     10286 FORA     24       FORA     LPO22    LPDO1   -0.380000       0.00000          -1   0.00000       0.00000    
     10287 FORA     24       FORA     LPO11    LPDO1   -0.380000       0.00000          -1   0.00000       0.00000    
     10288 FORA     24       FORA     LPO12    LPDO1   -0.380000       0.00000          -1   0.00000       0.00000    
     10289 FORA     25       FORA     C        CD2O2A    2.99370       11.6110           0  -1.01600      0.899000    
     10290 FORA     25       FORA     DC       DRUD     -2.47370      0.400000           0   0.00000       0.00000    
     10291 FORA     25       FORA     H        HDP1C     0.00000       1.00800           0   0.00000       0.00000    
     10292 FORA     25       FORA     O2       OD2C2A    2.05180       15.5994           0 -0.699000       2.39900    
     10293 FORA     25       FORA     DO2      DRUD     -2.05180      0.400000           0   0.00000       0.00000    
     10294 FORA     25       FORA     O1       OD2C2A    2.05180       15.5994           0 -0.699000       2.39900    
     10295 FORA     25       FORA     DO1      DRUD     -2.05180      0.400000           0   0.00000       0.00000    
     10296 FORA     25       FORA     HO1      DUMH      0.00000       1.00800           0   0.00000       0.00000    
     10297 FORA     25       FORA     LPO21    LPDO1   -0.380000       0.00000          -1   0.00000       0.00000    
     10298 FORA     25       FORA     LPO22    LPDO1   -0.380000       0.00000          -1   0.00000       0.00000    
     10299 FORA     25       FORA     LPO11    LPDO1   -0.380000       0.00000          -1   0.00000       0.00000    
     10300 FORA     25       FORA     LPO12    LPDO1   -0.380000       0.00000          -1   0.00000       0.00000    
     10301 FORA     26       FORA     C        CD2O2A    2.99370       11.6110           0  -1.01600      0.899000    
     10302 FORA     26       FORA     DC       DRUD     -2.47370      0.400000           0   0.00000       0.00000    
     10303 FORA     26       FORA     H        HDP1C     0.00000       1.00800           0   0.00000       0.00000    
     10304 FORA     26       FORA     O2       OD2C2A    2.05180       15.5994           0 -0.699000       2.39900    
     10305 FORA     26       FORA     DO2      DRUD     -2.05180      0.400000           0   0.00000       0.00000    
     10306 FORA     26       FORA     O1       OD2C2A    2.05180       15.5994           0 -0.699000       2.39900    
     10307 FORA     26       FORA     DO1      DRUD     -2.05180      0.400000           0   0.00000       0.00000    
     10308 FORA     26       FORA     HO1      DUMH      0.00000       1.00800           0   0.00000       0.00000    
     10309 FORA     26       FORA     LPO21    LPDO1   -0.380000       0.00000          -1   0.00000       0.00000    
     10310 FORA     26       FORA     LPO22    LPDO1   -0.380000       0.00000          -1   0.00000       0.00000    
     10311 FORA     26       FORA     LPO11    LPDO1   -0.380000       0.00000          -1   0.00000       0.00000    
     10312 FORA     26       FORA     LPO12    LPDO1   -0.380000       0.00000          -1   0.00000       0.00000    
     10313 FORA     27       FORA     C        CD2O2A    2.99370       11.6110           0  -1.01600      0.899000    
     10314 FORA     27       FORA     DC       DRUD     -2.47370      0.400000           0   0.00000       0.00000    
     10315 FORA     27       FORA     H        HDP1C     0.00000       1.00800           0   0.00000       0.00000    
     10316 FORA     27       FORA     O2       OD2C2A    2.05180       15.5994           0 -0.699000       2.39900    
     10317 FORA     27       FORA     DO2      DRUD     -2.05180      0.400000           0   0.00000       0.00000    
     10318 FORA     27       FORA     O1       OD2C2A    2.05180       15.5994           0 -0.699000       2.39900    
     10319 FORA     27       FORA     DO1      DRUD     -2.05180      0.400000           0   0.00000       0.00000    
     10320 FORA     27       FORA     HO1      DUMH      0.00000       1.00800           0   0.00000       0.00000    
     10321 FORA     27       FORA     LPO21    LPDO1   -0.380000       0.00000          -1   0.00000       0.00000    
     10322 FORA     27       FORA     LPO22    LPDO1   -0.380000       0.00000          -1   0.00000       0.00000    
     10323 FORA     27       FORA     LPO11    LPDO1   -0.380000       0.00000          -1   0.00000       0.00000    
     10324 FORA     27       FORA     LPO12    LPDO1   -0.380000       0.00000          -1   0.00000       0.00000    
     10325 FORA     28       FORA     C        CD2O2A    2.99370       11.6110           0  -1.01600      0.899000    
     10326 FORA     28       FORA     DC       DRUD     -2.47370      0.400000           0   0.00000       0.00000    
     10327 FORA     28       FORA     H        HDP1C     0.00000       1.00800           0   0.00000       0.00000    
     10328 FORA     28       FORA     O2       OD2C2A    2.05180       15.5994           0 -0.699000       2.39900    
     10329 FORA     28       FORA     DO2      DRUD     -2.05180      0.400000           0   0.00000       0.00000    
     10330 FORA     28       FORA     O1       OD2C2A    2.05180       15.5994           0 -0.699000       2.39900    
     10331 FORA     28       FORA     DO1      DRUD     -2.05180      0.400000           0   0.00000       0.00000    
     10332 FORA     28       FORA     HO1      DUMH      0.00000       1.00800           0   0.00000       0.00000    
     10333 FORA     28       FORA     LPO21    LPDO1   -0.380000       0.00000          -1   0.00000       0.00000    
     10334 FORA     28       FORA     LPO22    LPDO1   -0.380000       0.00000          -1   0.00000       0.00000    
     10335 FORA     28       FORA     LPO11    LPDO1   -0.380000       0.00000          -1   0.00000       0.00000    
     10336 FORA     28       FORA     LPO12    LPDO1   -0.380000       0.00000          -1   0.00000       0.00000    
     10337 FORA     29       FORA     C        CD2O2A    2.99370       11.6110           0  -1.01600      0.899000    
     10338 FORA     29       FORA     DC       DRUD     -2.47370      0.400000           0   0.00000       0.00000    
     10339 FORA     29       FORA     H        HDP1C     0.00000       1.00800           0   0.00000       0.00000    
     10340 FORA     29       FORA     O2       OD2C2A    2.05180       15.5994           0 -0.699000       2.39900    
     10341 FORA     29       FORA     DO2      DRUD     -2.05180      0.400000           0   0.00000       0.00000    
     10342 FORA     29       FORA     O1       OD2C2A    2.05180       15.5994           0 -0.699000       2.39900    
     10343 FORA     29       FORA     DO1      DRUD     -2.05180      0.400000           0   0.00000       0.00000    
     10344 FORA     29       FORA     HO1      DUMH      0.00000       1.00800           0   0.00000       0.00000    
     10345 FORA     29       FORA     LPO21    LPDO1   -0.380000       0.00000          -1   0.00000       0.00000    
     10346 FORA     29       FORA     LPO22    LPDO1   -0.380000       0.00000          -1   0.00000       0.00000    
     10347 FORA     29       FORA     LPO11    LPDO1   -0.380000       0.00000          -1   0.00000       0.00000    
     10348 FORA     29       FORA     LPO12    LPDO1   -0.380000       0.00000          -1   0.00000       0.00000    
     10349 FORA     30       FORA     C        CD2O2A    2.99370       11.6110           0  -1.01600      0.899000    
     10350 FORA     30       FORA     DC       DRUD     -2.47370      0.400000           0   0.00000       0.00000    
     10351 FORA     30       FORA     H        HDP1C     0.00000       1.00800           0   0.00000       0.00000    
     10352 FORA     30       FORA     O2       OD2C2A    2.05180       15.5994           0 -0.699000       2.39900    
     10353 FORA     30       FORA     DO2      DRUD     -2.05180      0.400000           0   0.00000       0.00000    
     10354 FORA     30       FORA     O1       OD2C2A    2.05180       15.5994           0 -0.699000       2.39900    
     10355 FORA     30       FORA     DO1      DRUD     -2.05180      0.400000           0   0.00000       0.00000    
     10356 FORA     30       FORA     HO1      DUMH      0.00000       1.00800           0   0.00000       0.00000    
     10357 FORA     30       FORA     LPO21    LPDO1   -0.380000       0.00000          -1   0.00000       0.00000    
     10358 FORA     30       FORA     LPO22    LPDO1   -0.380000       0.00000          -1   0.00000       0.00000    
     10359 FORA     30       FORA     LPO11    LPDO1   -0.380000       0.00000          -1   0.00000       0.00000    
     10360 FORA     30       FORA     LPO12    LPDO1   -0.380000       0.00000          -1   0.00000       0.00000    
     10361 FORA     31       FORA     C        CD2O2A    2.99370       11.6110           0  -1.01600      0.899000    
     10362 FORA     31       FORA     DC       DRUD     -2.47370      0.400000           0   0.00000       0.00000    
     10363 FORA     31       FORA     H        HDP1C     0.00000       1.00800           0   0.00000       0.00000    
     10364 FORA     31       FORA     O2       OD2C2A    2.05180       15.5994           0 -0.699000       2.39900    
     10365 FORA     31       FORA     DO2      DRUD     -2.05180      0.400000           0   0.00000       0.00000    
     10366 FORA     31       FORA     O1       OD2C2A    2.05180       15.5994           0 -0.699000       2.39900    
     10367 FORA     31       FORA     DO1      DRUD     -2.05180      0.400000           0   0.00000       0.00000    
     10368 FORA     31       FORA     HO1      DUMH      0.00000       1.00800           0   0.00000       0.00000    
     10369 FORA     31       FORA     LPO21    LPDO1   -0.380000       0.00000          -1   0.00000       0.00000    
     10370 FORA     31       FORA     LPO22    LPDO1   -0.380000       0.00000          -1   0.00000       0.00000    
     10371 FORA     31       FORA     LPO11    LPDO1   -0.380000       0.00000          -1   0.00000       0.00000    
     10372 FORA     31       FORA     LPO12    LPDO1   -0.380000       0.00000          -1   0.00000       0.00000    
     10373 FORA     32       FORA     C        CD2O2A    2.99370       11.6110           0  -1.01600      0.899000    
     10374 FORA     32       FORA     DC       DRUD     -2.47370      0.400000           0   0.00000       0.00000    
     10375 FORA     32       FORA     H        HDP1C     0.00000       1.00800           0   0.00000       0.00000    
     10376 FORA     32       FORA     O2       OD2C2A    2.05180       15.5994           0 -0.699000       2.39900    
     10377 FORA     32       FORA     DO2      DRUD     -2.05180      0.400000           0   0.00000       0.00000    
     10378 FORA     32       FORA     O1       OD2C2A    2.05180       15.5994           0 -0.699000       2.39900    
     10379 FORA     32       FORA     DO1      DRUD     -2.05180      0.400000           0   0.00000       0.00000    
     10380 FORA     32       FORA     HO1      DUMH      0.00000       1.00800           0   0.00000       0.00000    
     10381 FORA     32       FORA     LPO21    LPDO1   -0.380000       0.00000          -1   0.00000       0.00000    
     10382 FORA     32       FORA     LPO22    LPDO1   -0.380000       0.00000          -1   0.00000       0.00000    
     10383 FORA     32       FORA     LPO11    LPDO1   -0.380000       0.00000          -1   0.00000       0.00000    
     10384 FORA     32       FORA     LPO12    LPDO1   -0.380000       0.00000          -1   0.00000       0.00000    
     10385 FORA     33       FORA     C        CD2O2A    2.99370       11.6110           0  -1.01600      0.899000    
     10386 FORA     33       FORA     DC       DRUD     -2.47370      0.400000           0   0.00000       0.00000    
     10387 FORA     33       FORA     H        HDP1C     0.00000       1.00800           0   0.00000       0.00000    
     10388 FORA     33       FORA     O2       OD2C2A    2.05180       15.5994           0 -0.699000       2.39900    
     10389 FORA     33       FORA     DO2      DRUD     -2.05180      0.400000           0   0.00000       0.00000    
     10390 FORA     33       FORA     O1       OD2C2A    2.05180       15.5994           0 -0.699000       2.39900    
     10391 FORA     33       FORA     DO1      DRUD     -2.05180      0.400000           0   0.00000       0.00000    
     10392 FORA     33       FORA     HO1      DUMH      0.00000       1.00800           0   0.00000       0.00000    
     10393 FORA     33       FORA     LPO21    LPDO1   -0.380000       0.00000          -1   0.00000       0.00000    
     10394 FORA     33       FORA     LPO22    LPDO1   -0.380000       0.00000          -1   0.00000       0.00000    
     10395 FORA     33       FORA     LPO11    LPDO1   -0.380000       0.00000          -1   0.00000       0.00000    
     10396 FORA     33       FORA     LPO12    LPDO1   -0.380000       0.00000          -1   0.00000       0.00000    
     10397 FORA     34       FORA     C        CD2O2A    2.99370       11.6110           0  -1.01600      0.899000    
     10398 FORA     34       FORA     DC       DRUD     -2.47370      0.400000           0   0.00000       0.00000    
     10399 FORA     34       FORA     H        HDP1C     0.00000       1.00800           0   0.00000       0.00000    
     10400 FORA     34       FORA     O2       OD2C2A    2.05180       15.5994           0 -0.699000       2.39900    
     10401 FORA     34       FORA     DO2      DRUD     -2.05180      0.400000           0   0.00000       0.00000    
     10402 FORA     34       FORA     O1       OD2C2A    2.05180       15.5994           0 -0.699000       2.39900    
     10403 FORA     34       FORA     DO1      DRUD     -2.05180      0.400000           0   0.00000       0.00000    
     10404 FORA     34       FORA     HO1      DUMH      0.00000       1.00800           0   0.00000       0.00000    
     10405 FORA     34       FORA     LPO21    LPDO1   -0.380000       0.00000          -1   0.00000       0.00000    
     10406 FORA     34       FORA     LPO22    LPDO1   -0.380000       0.00000          -1   0.00000       0.00000    
     10407 FORA     34       FORA     LPO11    LPDO1   -0.380000       0.00000          -1   0.00000       0.00000    
     10408 FORA     34       FORA     LPO12    LPDO1   -0.380000       0.00000          -1   0.00000       0.00000    
     10409 FORA     35       FORA     C        CD2O2A    2.99370       11.6110           0  -1.01600      0.899000    
     10410 FORA     35       FORA     DC       DRUD     -2.47370      0.400000           0   0.00000       0.00000    
     10411 FORA     35       FORA     H        HDP1C     0.00000       1.00800           0   0.00000       0.00000    
     10412 FORA     35       FORA     O2       OD2C2A    2.05180       15.5994           0 -0.699000       2.39900    
     10413 FORA     35       FORA     DO2      DRUD     -2.05180      0.400000           0   0.00000       0.00000    
     10414 FORA     35       FORA     O1       OD2C2A    2.05180       15.5994           0 -0.699000       2.39900    
     10415 FORA     35       FORA     DO1      DRUD     -2.05180      0.400000           0   0.00000       0.00000    
     10416 FORA     35       FORA     HO1      DUMH      0.00000       1.00800           0   0.00000       0.00000    
     10417 FORA     35       FORA     LPO21    LPDO1   -0.380000       0.00000          -1   0.00000       0.00000    
     10418 FORA     35       FORA     LPO22    LPDO1   -0.380000       0.00000          -1   0.00000       0.00000    
     10419 FORA     35       FORA     LPO11    LPDO1   -0.380000       0.00000          -1   0.00000       0.00000    
     10420 FORA     35       FORA     LPO12    LPDO1   -0.380000       0.00000          -1   0.00000       0.00000    
     10421 FORA     36       FORA     C        CD2O2A    2.99370       11.6110           0  -1.01600      0.899000    
     10422 FORA     36       FORA     DC       DRUD     -2.47370      0.400000           0   0.00000       0.00000    
     10423 FORA     36       FORA     H        HDP1C     0.00000       1.00800           0   0.00000       0.00000    
     10424 FORA     36       FORA     O2       OD2C2A    2.05180       15.5994           0 -0.699000       2.39900    
     10425 FORA     36       FORA     DO2      DRUD     -2.05180      0.400000           0   0.00000       0.00000    
     10426 FORA     36       FORA     O1       OD2C2A    2.05180       15.5994           0 -0.699000       2.39900    
     10427 FORA     36       FORA     DO1      DRUD     -2.05180      0.400000           0   0.00000       0.00000    
     10428 FORA     36       FORA     HO1      DUMH      0.00000       1.00800           0   0.00000       0.00000    
     10429 FORA     36       FORA     LPO21    LPDO1   -0.380000       0.00000          -1   0.00000       0.00000    
     10430 FORA     36       FORA     LPO22    LPDO1   -0.380000       0.00000          -1   0.00000       0.00000    
     10431 FORA     36       FORA     LPO11    LPDO1   -0.380000       0.00000          -1   0.00000       0.00000    
     10432 FORA     36       FORA     LPO12    LPDO1   -0.380000       0.00000          -1   0.00000       0.00000    
     10433 FORA     37       FORA     C        CD2O2A    2.99370       11.6110           0  -1.01600      0.899000    
     10434 FORA     37       FORA     DC       DRUD     -2.47370      0.400000           0   0.00000       0.00000    
     10435 FORA     37       FORA     H        HDP1C     0.00000       1.00800           0   0.00000       0.00000    
     10436 FORA     37       FORA     O2       OD2C2A    2.05180       15.5994           0 -0.699000       2.39900    
     10437 FORA     37       FORA     DO2      DRUD     -2.05180      0.400000           0   0.00000       0.00000    
     10438 FORA     37       FORA     O1       OD2C2A    2.05180       15.5994           0 -0.699000       2.39900    
     10439 FORA     37       FORA     DO1      DRUD     -2.05180      0.400000           0   0.00000       0.00000    
     10440 FORA     37       FORA     HO1      DUMH      0.00000       1.00800           0   0.00000       0.00000    
     10441 FORA     37       FORA     LPO21    LPDO1   -0.380000       0.00000          -1   0.00000       0.00000    
     10442 FORA     37       FORA     LPO22    LPDO1   -0.380000       0.00000          -1   0.00000       0.00000    
     10443 FORA     37       FORA     LPO11    LPDO1   -0.380000       0.00000          -1   0.00000       0.00000    
     10444 FORA     37       FORA     LPO12    LPDO1   -0.380000       0.00000          -1   0.00000       0.00000    
     10445 FORA     38       FORA     C        CD2O2A    2.99370       11.6110           0  -1.01600      0.899000    
     10446 FORA     38       FORA     DC       DRUD     -2.47370      0.400000           0   0.00000       0.00000    
     10447 FORA     38       FORA     H        HDP1C     0.00000       1.00800           0   0.00000       0.00000    
     10448 FORA     38       FORA     O2       OD2C2A    2.05180       15.5994           0 -0.699000       2.39900    
     10449 FORA     38       FORA     DO2      DRUD     -2.05180      0.400000           0   0.00000       0.00000    
     10450 FORA     38       FORA     O1       OD2C2A    2.05180       15.5994           0 -0.699000       2.39900    
     10451 FORA     38       FORA     DO1      DRUD     -2.05180      0.400000           0   0.00000       0.00000    
     10452 FORA     38       FORA     HO1      DUMH      0.00000       1.00800           0   0.00000       0.00000    
     10453 FORA     38       FORA     LPO21    LPDO1   -0.380000       0.00000          -1   0.00000       0.00000    
     10454 FORA     38       FORA     LPO22    LPDO1   -0.380000       0.00000          -1   0.00000       0.00000    
     10455 FORA     38       FORA     LPO11    LPDO1   -0.380000       0.00000          -1   0.00000       0.00000    
     10456 FORA     38       FORA     LPO12    LPDO1   -0.380000       0.00000          -1   0.00000       0.00000    
     10457 FORA     39       FORA     C        CD2O2A    2.99370       11.6110           0  -1.01600      0.899000    
     10458 FORA     39       FORA     DC       DRUD     -2.47370      0.400000           0   0.00000       0.00000    
     10459 FORA     39       FORA     H        HDP1C     0.00000       1.00800           0   0.00000       0.00000    
     10460 FORA     39       FORA     O2       OD2C2A    2.05180       15.5994           0 -0.699000       2.39900    
     10461 FORA     39       FORA     DO2      DRUD     -2.05180      0.400000           0   0.00000       0.00000    
     10462 FORA     39       FORA     O1       OD2C2A    2.05180       15.5994           0 -0.699000       2.39900    
     10463 FORA     39       FORA     DO1      DRUD     -2.05180      0.400000           0   0.00000       0.00000    
     10464 FORA     39       FORA     HO1      DUMH      0.00000       1.00800           0   0.00000       0.00000    
     10465 FORA     39       FORA     LPO21    LPDO1   -0.380000       0.00000          -1   0.00000       0.00000    
     10466 FORA     39       FORA     LPO22    LPDO1   -0.380000       0.00000          -1   0.00000       0.00000    
     10467 FORA     39       FORA     LPO11    LPDO1   -0.380000       0.00000          -1   0.00000       0.00000    
     10468 FORA     39       FORA     LPO12    LPDO1   -0.380000       0.00000          -1   0.00000       0.00000    
     10469 FORA     40       FORA     C        CD2O2A    2.99370       11.6110           0  -1.01600      0.899000    
     10470 FORA     40       FORA     DC       DRUD     -2.47370      0.400000           0   0.00000       0.00000    
     10471 FORA     40       FORA     H        HDP1C     0.00000       1.00800           0   0.00000       0.00000    
     10472 FORA     40       FORA     O2       OD2C2A    2.05180       15.5994           0 -0.699000       2.39900    
     10473 FORA     40       FORA     DO2      DRUD     -2.05180      0.400000           0   0.00000       0.00000    
     10474 FORA     40       FORA     O1       OD2C2A    2.05180       15.5994           0 -0.699000       2.39900    
     10475 FORA     40       FORA     DO1      DRUD     -2.05180      0.400000           0   0.00000       0.00000    
     10476 FORA     40       FORA     HO1      DUMH      0.00000       1.00800           0   0.00000       0.00000    
     10477 FORA     40       FORA     LPO21    LPDO1   -0.380000       0.00000          -1   0.00000       0.00000    
     10478 FORA     40       FORA     LPO22    LPDO1   -0.380000       0.00000          -1   0.00000       0.00000    
     10479 FORA     40       FORA     LPO11    LPDO1   -0.380000       0.00000          -1   0.00000       0.00000    
     10480 FORA     40       FORA     LPO12    LPDO1   -0.380000       0.00000          -1   0.00000       0.00000    
     10481 FORA     41       FORA     C        CD2O2A    2.99370       11.6110           0  -1.01600      0.899000    
     10482 FORA     41       FORA     DC       DRUD     -2.47370      0.400000           0   0.00000       0.00000    
     10483 FORA     41       FORA     H        HDP1C     0.00000       1.00800           0   0.00000       0.00000    
     10484 FORA     41       FORA     O2       OD2C2A    2.05180       15.5994           0 -0.699000       2.39900    
     10485 FORA     41       FORA     DO2      DRUD     -2.05180      0.400000           0   0.00000       0.00000    
     10486 FORA     41       FORA     O1       OD2C2A    2.05180       15.5994           0 -0.699000       2.39900    
     10487 FORA     41       FORA     DO1      DRUD     -2.05180      0.400000           0   0.00000       0.00000    
     10488 FORA     41       FORA     HO1      DUMH      0.00000       1.00800           0   0.00000       0.00000    
     10489 FORA     41       FORA     LPO21    LPDO1   -0.380000       0.00000          -1   0.00000       0.00000    
     10490 FORA     41       FORA     LPO22    LPDO1   -0.380000       0.00000          -1   0.00000       0.00000    
     10491 FORA     41       FORA     LPO11    LPDO1   -0.380000       0.00000          -1   0.00000       0.00000    
     10492 FORA     41       FORA     LPO12    LPDO1   -0.380000       0.00000          -1   0.00000       0.00000    
     10493 FORA     42       FORA     C        CD2O2A    2.99370       11.6110           0  -1.01600      0.899000    
     10494 FORA     42       FORA     DC       DRUD     -2.47370      0.400000           0   0.00000       0.00000    
     10495 FORA     42       FORA     H        HDP1C     0.00000       1.00800           0   0.00000       0.00000    
     10496 FORA     42       FORA     O2       OD2C2A    2.05180       15.5994           0 -0.699000       2.39900    
     10497 FORA     42       FORA     DO2      DRUD     -2.05180      0.400000           0   0.00000       0.00000    
     10498 FORA     42       FORA     O1       OD2C2A    2.05180       15.5994           0 -0.699000       2.39900    
     10499 FORA     42       FORA     DO1      DRUD     -2.05180      0.400000           0   0.00000       0.00000    
     10500 FORA     42       FORA     HO1      DUMH      0.00000       1.00800           0   0.00000       0.00000    
     10501 FORA     42       FORA     LPO21    LPDO1   -0.380000       0.00000          -1   0.00000       0.00000    
     10502 FORA     42       FORA     LPO22    LPDO1   -0.380000       0.00000          -1   0.00000       0.00000    
     10503 FORA     42       FORA     LPO11    LPDO1   -0.380000       0.00000          -1   0.00000       0.00000    
     10504 FORA     42       FORA     LPO12    LPDO1   -0.380000       0.00000          -1   0.00000       0.00000    
     10505 FORA     43       FORA     C        CD2O2A    2.99370       11.6110           0  -1.01600      0.899000    
     10506 FORA     43       FORA     DC       DRUD     -2.47370      0.400000           0   0.00000       0.00000    
     10507 FORA     43       FORA     H        HDP1C     0.00000       1.00800           0   0.00000       0.00000    
     10508 FORA     43       FORA     O2       OD2C2A    2.05180       15.5994           0 -0.699000       2.39900    
     10509 FORA     43       FORA     DO2      DRUD     -2.05180      0.400000           0   0.00000       0.00000    
     10510 FORA     43       FORA     O1       OD2C2A    2.05180       15.5994           0 -0.699000       2.39900    
     10511 FORA     43       FORA     DO1      DRUD     -2.05180      0.400000           0   0.00000       0.00000    
     10512 FORA     43       FORA     HO1      DUMH      0.00000       1.00800           0   0.00000       0.00000    
     10513 FORA     43       FORA     LPO21    LPDO1   -0.380000       0.00000          -1   0.00000       0.00000    
     10514 FORA     43       FORA     LPO22    LPDO1   -0.380000       0.00000          -1   0.00000       0.00000    
     10515 FORA     43       FORA     LPO11    LPDO1   -0.380000       0.00000          -1   0.00000       0.00000    
     10516 FORA     43       FORA     LPO12    LPDO1   -0.380000       0.00000          -1   0.00000       0.00000    
     10517 FORA     44       FORA     C        CD2O2A    2.99370       11.6110           0  -1.01600      0.899000    
     10518 FORA     44       FORA     DC       DRUD     -2.47370      0.400000           0   0.00000       0.00000    
     10519 FORA     44       FORA     H        HDP1C     0.00000       1.00800           0   0.00000       0.00000    
     10520 FORA     44       FORA     O2       OD2C2A    2.05180       15.5994           0 -0.699000       2.39900    
     10521 FORA     44       FORA     DO2      DRUD     -2.05180      0.400000           0   0.00000       0.00000    
     10522 FORA     44       FORA     O1       OD2C2A    2.05180       15.5994           0 -0.699000       2.39900    
     10523 FORA     44       FORA     DO1      DRUD     -2.05180      0.400000           0   0.00000       0.00000    
     10524 FORA     44       FORA     HO1      DUMH      0.00000       1.00800           0   0.00000       0.00000    
     10525 FORA     44       FORA     LPO21    LPDO1   -0.380000       0.00000          -1   0.00000       0.00000    
     10526 FORA     44       FORA     LPO22    LPDO1   -0.380000       0.00000          -1   0.00000       0.00000    
     10527 FORA     44       FORA     LPO11    LPDO1   -0.380000       0.00000          -1   0.00000       0.00000    
     10528 FORA     44       FORA     LPO12    LPDO1   -0.380000       0.00000          -1   0.00000       0.00000    
     10529 FORA     45       FORA     C        CD2O2A    2.99370       11.6110           0  -1.01600      0.899000    
     10530 FORA     45       FORA     DC       DRUD     -2.47370      0.400000           0   0.00000       0.00000    
     10531 FORA     45       FORA     H        HDP1C     0.00000       1.00800           0   0.00000       0.00000    
     10532 FORA     45       FORA     O2       OD2C2A    2.05180       15.5994           0 -0.699000       2.39900    
     10533 FORA     45       FORA     DO2      DRUD     -2.05180      0.400000           0   0.00000       0.00000    
     10534 FORA     45       FORA     O1       OD2C2A    2.05180       15.5994           0 -0.699000       2.39900    
     10535 FORA     45       FORA     DO1      DRUD     -2.05180      0.400000           0   0.00000       0.00000    
     10536 FORA     45       FORA     HO1      DUMH      0.00000       1.00800           0   0.00000       0.00000    
     10537 FORA     45       FORA     LPO21    LPDO1   -0.380000       0.00000          -1   0.00000       0.00000    
     10538 FORA     45       FORA     LPO22    LPDO1   -0.380000       0.00000          -1   0.00000       0.00000    
     10539 FORA     45       FORA     LPO11    LPDO1   -0.380000       0.00000          -1   0.00000       0.00000    
     10540 FORA     45       FORA     LPO12    LPDO1   -0.380000       0.00000          -1   0.00000       0.00000    
     10541 FORA     46       FORA     C        CD2O2A    2.99370       11.6110           0  -1.01600      0.899000    
     10542 FORA     46       FORA     DC       DRUD     -2.47370      0.400000           0   0.00000       0.00000    
     10543 FORA     46       FORA     H        HDP1C     0.00000       1.00800           0   0.00000       0.00000    
     10544 FORA     46       FORA     O2       OD2C2A    2.05180       15.5994           0 -0.699000       2.39900    
     10545 FORA     46       FORA     DO2      DRUD     -2.05180      0.400000           0   0.00000       0.00000    
     10546 FORA     46       FORA     O1       OD2C2A    2.05180       15.5994           0 -0.699000       2.39900    
     10547 FORA     46       FORA     DO1      DRUD     -2.05180      0.400000           0   0.00000       0.00000    
     10548 FORA     46       FORA     HO1      DUMH      0.00000       1.00800           0   0.00000       0.00000    
     10549 FORA     46       FORA     LPO21    LPDO1   -0.380000       0.00000          -1   0.00000       0.00000    
     10550 FORA     46       FORA     LPO22    LPDO1   -0.380000       0.00000          -1   0.00000       0.00000    
     10551 FORA     46       FORA     LPO11    LPDO1   -0.380000       0.00000          -1   0.00000       0.00000    
     10552 FORA     46       FORA     LPO12    LPDO1   -0.380000       0.00000          -1   0.00000       0.00000    
     10553 FORA     47       FORA     C        CD2O2A    2.99370       11.6110           0  -1.01600      0.899000    
     10554 FORA     47       FORA     DC       DRUD     -2.47370      0.400000           0   0.00000       0.00000    
     10555 FORA     47       FORA     H        HDP1C     0.00000       1.00800           0   0.00000       0.00000    
     10556 FORA     47       FORA     O2       OD2C2A    2.05180       15.5994           0 -0.699000       2.39900    
     10557 FORA     47       FORA     DO2      DRUD     -2.05180      0.400000           0   0.00000       0.00000    
     10558 FORA     47       FORA     O1       OD2C2A    2.05180       15.5994           0 -0.699000       2.39900    
     10559 FORA     47       FORA     DO1      DRUD     -2.05180      0.400000           0   0.00000       0.00000    
     10560 FORA     47       FORA     HO1      DUMH      0.00000       1.00800           0   0.00000       0.00000    
     10561 FORA     47       FORA     LPO21    LPDO1   -0.380000       0.00000          -1   0.00000       0.00000    
     10562 FORA     47       FORA     LPO22    LPDO1   -0.380000       0.00000          -1   0.00000       0.00000    
     10563 FORA     47       FORA     LPO11    LPDO1   -0.380000       0.00000          -1   0.00000       0.00000    
     10564 FORA     47       FORA     LPO12    LPDO1   -0.380000       0.00000          -1   0.00000       0.00000    
     10565 FORA     48       FORA     C        CD2O2A    2.99370       11.6110           0  -1.01600      0.899000    
     10566 FORA     48       FORA     DC       DRUD     -2.47370      0.400000           0   0.00000       0.00000    
     10567 FORA     48       FORA     H        HDP1C     0.00000       1.00800           0   0.00000       0.00000    
     10568 FORA     48       FORA     O2       OD2C2A    2.05180       15.5994           0 -0.699000       2.39900    
     10569 FORA     48       FORA     DO2      DRUD     -2.05180      0.400000           0   0.00000       0.00000    
     10570 FORA     48       FORA     O1       OD2C2A    2.05180       15.5994           0 -0.699000       2.39900    
     10571 FORA     48       FORA     DO1      DRUD     -2.05180      0.400000           0   0.00000       0.00000    
     10572 FORA     48       FORA     HO1      DUMH      0.00000       1.00800           0   0.00000       0.00000    
     10573 FORA     48       FORA     LPO21    LPDO1   -0.380000       0.00000          -1   0.00000       0.00000    
     10574 FORA     48       FORA     LPO22    LPDO1   -0.380000       0.00000          -1   0.00000       0.00000    
     10575 FORA     48       FORA     LPO11    LPDO1   -0.380000       0.00000          -1   0.00000       0.00000    
     10576 FORA     48       FORA     LPO12    LPDO1   -0.380000       0.00000          -1   0.00000       0.00000    
     10577 FORA     49       FORA     C        CD2O2A    2.99370       11.6110           0  -1.01600      0.899000    
     10578 FORA     49       FORA     DC       DRUD     -2.47370      0.400000           0   0.00000       0.00000    
     10579 FORA     49       FORA     H        HDP1C     0.00000       1.00800           0   0.00000       0.00000    
     10580 FORA     49       FORA     O2       OD2C2A    2.05180       15.5994           0 -0.699000       2.39900    
     10581 FORA     49       FORA     DO2      DRUD     -2.05180      0.400000           0   0.00000       0.00000    
     10582 FORA     49       FORA     O1       OD2C2A    2.05180       15.5994           0 -0.699000       2.39900    
     10583 FORA     49       FORA     DO1      DRUD     -2.05180      0.400000           0   0.00000       0.00000    
     10584 FORA     49       FORA     HO1      DUMH      0.00000       1.00800           0   0.00000       0.00000    
     10585 FORA     49       FORA     LPO21    LPDO1   -0.380000       0.00000          -1   0.00000       0.00000    
     10586 FORA     49       FORA     LPO22    LPDO1   -0.380000       0.00000          -1   0.00000       0.00000    
     10587 FORA     49       FORA     LPO11    LPDO1   -0.380000       0.00000          -1   0.00000       0.00000    
     10588 FORA     49       FORA     LPO12    LPDO1   -0.380000       0.00000          -1   0.00000       0.00000    
     10589 FORA     50       FORA     C        CD2O2A    2.99370       11.6110           0  -1.01600      0.899000    
     10590 FORA     50       FORA     DC       DRUD     -2.47370      0.400000           0   0.00000       0.00000    
     10591 FORA     50       FORA     H        HDP1C     0.00000       1.00800           0   0.00000       0.00000    
     10592 FORA     50       FORA     O2       OD2C2A    2.05180       15.5994           0 -0.699000       2.39900    
     10593 FORA     50       FORA     DO2      DRUD     -2.05180      0.400000           0   0.00000       0.00000    
     10594 FORA     50       FORA     O1       OD2C2A    2.05180       15.5994           0 -0.699000       2.39900    
     10595 FORA     50       FORA     DO1      DRUD     -2.05180      0.400000           0   0.00000       0.00000    
     10596 FORA     50       FORA     HO1      DUMH      0.00000       1.00800           0   0.00000       0.00000    
     10597 FORA     50       FORA     LPO21    LPDO1   -0.380000       0.00000          -1   0.00000       0.00000    
     10598 FORA     50       FORA     LPO22    LPDO1   -0.380000       0.00000          -1   0.00000       0.00000    
     10599 FORA     50       FORA     LPO11    LPDO1   -0.380000       0.00000          -1   0.00000       0.00000    
     10600 FORA     50       FORA     LPO12    LPDO1   -0.380000       0.00000          -1   0.00000       0.00000    
     10601 FORA     51       FORA     C        CD2O2A    2.99370       11.6110           0  -1.01600      0.899000    
     10602 FORA     51       FORA     DC       DRUD     -2.47370      0.400000           0   0.00000       0.00000    
     10603 FORA     51       FORA     H        HDP1C     0.00000       1.00800           0   0.00000       0.00000    
     10604 FORA     51       FORA     O2       OD2C2A    2.05180       15.5994           0 -0.699000       2.39900    
     10605 FORA     51       FORA     DO2      DRUD     -2.05180      0.400000           0   0.00000       0.00000    
     10606 FORA     51       FORA     O1       OD2C2A    2.05180       15.5994           0 -0.699000       2.39900    
     10607 FORA     51       FORA     DO1      DRUD     -2.05180      0.400000           0   0.00000       0.00000    
     10608 FORA     51       FORA     HO1      DUMH      0.00000       1.00800           0   0.00000       0.00000    
     10609 FORA     51       FORA     LPO21    LPDO1   -0.380000       0.00000          -1   0.00000       0.00000    
     10610 FORA     51       FORA     LPO22    LPDO1   -0.380000       0.00000          -1   0.00000       0.00000    
     10611 FORA     51       FORA     LPO11    LPDO1   -0.380000       0.00000          -1   0.00000       0.00000    
     10612 FORA     51       FORA     LPO12    LPDO1   -0.380000       0.00000          -1   0.00000       0.00000    
     10613 FORA     52       FORA     C        CD2O2A    2.99370       11.6110           0  -1.01600      0.899000    
     10614 FORA     52       FORA     DC       DRUD     -2.47370      0.400000           0   0.00000       0.00000    
     10615 FORA     52       FORA     H        HDP1C     0.00000       1.00800           0   0.00000       0.00000    
     10616 FORA     52       FORA     O2       OD2C2A    2.05180       15.5994           0 -0.699000       2.39900    
     10617 FORA     52       FORA     DO2      DRUD     -2.05180      0.400000           0   0.00000       0.00000    
     10618 FORA     52       FORA     O1       OD2C2A    2.05180       15.5994           0 -0.699000       2.39900    
     10619 FORA     52       FORA     DO1      DRUD     -2.05180      0.400000           0   0.00000       0.00000    
     10620 FORA     52       FORA     HO1      DUMH      0.00000       1.00800           0   0.00000       0.00000    
     10621 FORA     52       FORA     LPO21    LPDO1   -0.380000       0.00000          -1   0.00000       0.00000    
     10622 FORA     52       FORA     LPO22    LPDO1   -0.380000       0.00000          -1   0.00000       0.00000    
     10623 FORA     52       FORA     LPO11    LPDO1   -0.380000       0.00000          -1   0.00000       0.00000    
     10624 FORA     52       FORA     LPO12    LPDO1   -0.380000       0.00000          -1   0.00000       0.00000    
     10625 FORA     53       FORA     C        CD2O2A    2.99370       11.6110           0  -1.01600      0.899000    
     10626 FORA     53       FORA     DC       DRUD     -2.47370      0.400000           0   0.00000       0.00000    
     10627 FORA     53       FORA     H        HDP1C     0.00000       1.00800           0   0.00000       0.00000    
     10628 FORA     53       FORA     O2       OD2C2A    2.05180       15.5994           0 -0.699000       2.39900    
     10629 FORA     53       FORA     DO2      DRUD     -2.05180      0.400000           0   0.00000       0.00000    
     10630 FORA     53       FORA     O1       OD2C2A    2.05180       15.5994           0 -0.699000       2.39900    
     10631 FORA     53       FORA     DO1      DRUD     -2.05180      0.400000           0   0.00000       0.00000    
     10632 FORA     53       FORA     HO1      DUMH      0.00000       1.00800           0   0.00000       0.00000    
     10633 FORA     53       FORA     LPO21    LPDO1   -0.380000       0.00000          -1   0.00000       0.00000    
     10634 FORA     53       FORA     LPO22    LPDO1   -0.380000       0.00000          -1   0.00000       0.00000    
     10635 FORA     53       FORA     LPO11    LPDO1   -0.380000       0.00000          -1   0.00000       0.00000    
     10636 FORA     53       FORA     LPO12    LPDO1   -0.380000       0.00000          -1   0.00000       0.00000    
     10637 FORA     54       FORA     C        CD2O2A    2.99370       11.6110           0  -1.01600      0.899000    
     10638 FORA     54       FORA     DC       DRUD     -2.47370      0.400000           0   0.00000       0.00000    
     10639 FORA     54       FORA     H        HDP1C     0.00000       1.00800           0   0.00000       0.00000    
     10640 FORA     54       FORA     O2       OD2C2A    2.05180       15.5994           0 -0.699000       2.39900    
     10641 FORA     54       FORA     DO2      DRUD     -2.05180      0.400000           0   0.00000       0.00000    
     10642 FORA     54       FORA     O1       OD2C2A    2.05180       15.5994           0 -0.699000       2.39900    
     10643 FORA     54       FORA     DO1      DRUD     -2.05180      0.400000           0   0.00000       0.00000    
     10644 FORA     54       FORA     HO1      DUMH      0.00000       1.00800           0   0.00000       0.00000    
     10645 FORA     54       FORA     LPO21    LPDO1   -0.380000       0.00000          -1   0.00000       0.00000    
     10646 FORA     54       FORA     LPO22    LPDO1   -0.380000       0.00000          -1   0.00000       0.00000    
     10647 FORA     54       FORA     LPO11    LPDO1   -0.380000       0.00000          -1   0.00000       0.00000    
     10648 FORA     54       FORA     LPO12    LPDO1   -0.380000       0.00000          -1   0.00000       0.00000    
     10649 FORA     55       FORA     C        CD2O2A    2.99370       11.6110           0  -1.01600      0.899000    
     10650 FORA     55       FORA     DC       DRUD     -2.47370      0.400000           0   0.00000       0.00000    
     10651 FORA     55       FORA     H        HDP1C     0.00000       1.00800           0   0.00000       0.00000    
     10652 FORA     55       FORA     O2       OD2C2A    2.05180       15.5994           0 -0.699000       2.39900    
     10653 FORA     55       FORA     DO2      DRUD     -2.05180      0.400000           0   0.00000       0.00000    
     10654 FORA     55       FORA     O1       OD2C2A    2.05180       15.5994           0 -0.699000       2.39900    
     10655 FORA     55       FORA     DO1      DRUD     -2.05180      0.400000           0   0.00000       0.00000    
     10656 FORA     55       FORA     HO1      DUMH      0.00000       1.00800           0   0.00000       0.00000    
     10657 FORA     55       FORA     LPO21    LPDO1   -0.380000       0.00000          -1   0.00000       0.00000    
     10658 FORA     55       FORA     LPO22    LPDO1   -0.380000       0.00000          -1   0.00000       0.00000    
     10659 FORA     55       FORA     LPO11    LPDO1   -0.380000       0.00000          -1   0.00000       0.00000    
     10660 FORA     55       FORA     LPO12    LPDO1   -0.380000       0.00000          -1   0.00000       0.00000    
     10661 FORA     56       FORA     C        CD2O2A    2.99370       11.6110           0  -1.01600      0.899000    
     10662 FORA     56       FORA     DC       DRUD     -2.47370      0.400000           0   0.00000       0.00000    
     10663 FORA     56       FORA     H        HDP1C     0.00000       1.00800           0   0.00000       0.00000    
     10664 FORA     56       FORA     O2       OD2C2A    2.05180       15.5994           0 -0.699000       2.39900    
     10665 FORA     56       FORA     DO2      DRUD     -2.05180      0.400000           0   0.00000       0.00000    
     10666 FORA     56       FORA     O1       OD2C2A    2.05180       15.5994           0 -0.699000       2.39900    
     10667 FORA     56       FORA     DO1      DRUD     -2.05180      0.400000           0   0.00000       0.00000    
     10668 FORA     56       FORA     HO1      DUMH      0.00000       1.00800           0   0.00000       0.00000    
     10669 FORA     56       FORA     LPO21    LPDO1   -0.380000       0.00000          -1   0.00000       0.00000    
     10670 FORA     56       FORA     LPO22    LPDO1   -0.380000       0.00000          -1   0.00000       0.00000    
     10671 FORA     56       FORA     LPO11    LPDO1   -0.380000       0.00000          -1   0.00000       0.00000    
     10672 FORA     56       FORA     LPO12    LPDO1   -0.380000       0.00000          -1   0.00000       0.00000    
     10673 FORA     57       FORA     C        CD2O2A    2.99370       11.6110           0  -1.01600      0.899000    
     10674 FORA     57       FORA     DC       DRUD     -2.47370      0.400000           0   0.00000       0.00000    
     10675 FORA     57       FORA     H        HDP1C     0.00000       1.00800           0   0.00000       0.00000    
     10676 FORA     57       FORA     O2       OD2C2A    2.05180       15.5994           0 -0.699000       2.39900    
     10677 FORA     57       FORA     DO2      DRUD     -2.05180      0.400000           0   0.00000       0.00000    
     10678 FORA     57       FORA     O1       OD2C2A    2.05180       15.5994           0 -0.699000       2.39900    
     10679 FORA     57       FORA     DO1      DRUD     -2.05180      0.400000           0   0.00000       0.00000    
     10680 FORA     57       FORA     HO1      DUMH      0.00000       1.00800           0   0.00000       0.00000    
     10681 FORA     57       FORA     LPO21    LPDO1   -0.380000       0.00000          -1   0.00000       0.00000    
     10682 FORA     57       FORA     LPO22    LPDO1   -0.380000       0.00000          -1   0.00000       0.00000    
     10683 FORA     57       FORA     LPO11    LPDO1   -0.380000       0.00000          -1   0.00000       0.00000    
     10684 FORA     57       FORA     LPO12    LPDO1   -0.380000       0.00000          -1   0.00000       0.00000    
     10685 FORA     58       FORA     C        CD2O2A    2.99370       11.6110           0  -1.01600      0.899000    
     10686 FORA     58       FORA     DC       DRUD     -2.47370      0.400000           0   0.00000       0.00000    
     10687 FORA     58       FORA     H        HDP1C     0.00000       1.00800           0   0.00000       0.00000    
     10688 FORA     58       FORA     O2       OD2C2A    2.05180       15.5994           0 -0.699000       2.39900    
     10689 FORA     58       FORA     DO2      DRUD     -2.05180      0.400000           0   0.00000       0.00000    
     10690 FORA     58       FORA     O1       OD2C2A    2.05180       15.5994           0 -0.699000       2.39900    
     10691 FORA     58       FORA     DO1      DRUD     -2.05180      0.400000           0   0.00000       0.00000    
     10692 FORA     58       FORA     HO1      DUMH      0.00000       1.00800           0   0.00000       0.00000    
     10693 FORA     58       FORA     LPO21    LPDO1   -0.380000       0.00000          -1   0.00000       0.00000    
     10694 FORA     58       FORA     LPO22    LPDO1   -0.380000       0.00000          -1   0.00000       0.00000    
     10695 FORA     58       FORA     LPO11    LPDO1   -0.380000       0.00000          -1   0.00000       0.00000    
     10696 FORA     58       FORA     LPO12    LPDO1   -0.380000       0.00000          -1   0.00000       0.00000    
     10697 FORA     59       FORA     C        CD2O2A    2.99370       11.6110           0  -1.01600      0.899000    
     10698 FORA     59       FORA     DC       DRUD     -2.47370      0.400000           0   0.00000       0.00000    
     10699 FORA     59       FORA     H        HDP1C     0.00000       1.00800           0   0.00000       0.00000    
     10700 FORA     59       FORA     O2       OD2C2A    2.05180       15.5994           0 -0.699000       2.39900    
     10701 FORA     59       FORA     DO2      DRUD     -2.05180      0.400000           0   0.00000       0.00000    
     10702 FORA     59       FORA     O1       OD2C2A    2.05180       15.5994           0 -0.699000       2.39900    
     10703 FORA     59       FORA     DO1      DRUD     -2.05180      0.400000           0   0.00000       0.00000    
     10704 FORA     59       FORA     HO1      DUMH      0.00000       1.00800           0   0.00000       0.00000    
     10705 FORA     59       FORA     LPO21    LPDO1   -0.380000       0.00000          -1   0.00000       0.00000    
     10706 FORA     59       FORA     LPO22    LPDO1   -0.380000       0.00000          -1   0.00000       0.00000    
     10707 FORA     59       FORA     LPO11    LPDO1   -0.380000       0.00000          -1   0.00000       0.00000    
     10708 FORA     59       FORA     LPO12    LPDO1   -0.380000       0.00000          -1   0.00000       0.00000    
     10709 FORA     60       FORA     C        CD2O2A    2.99370       11.6110           0  -1.01600      0.899000    
     10710 FORA     60       FORA     DC       DRUD     -2.47370      0.400000           0   0.00000       0.00000    
     10711 FORA     60       FORA     H        HDP1C     0.00000       1.00800           0   0.00000       0.00000    
     10712 FORA     60       FORA     O2       OD2C2A    2.05180       15.5994           0 -0.699000       2.39900    
     10713 FORA     60       FORA     DO2      DRUD     -2.05180      0.400000           0   0.00000       0.00000    
     10714 FORA     60       FORA     O1       OD2C2A    2.05180       15.5994           0 -0.699000       2.39900    
     10715 FORA     60       FORA     DO1      DRUD     -2.05180      0.400000           0   0.00000       0.00000    
     10716 FORA     60       FORA     HO1      DUMH      0.00000       1.00800           0   0.00000       0.00000    
     10717 FORA     60       FORA     LPO21    LPDO1   -0.380000       0.00000          -1   0.00000       0.00000    
     10718 FORA     60       FORA     LPO22    LPDO1   -0.380000       0.00000          -1   0.00000       0.00000    
     10719 FORA     60       FORA     LPO11    LPDO1   -0.380000       0.00000          -1   0.00000       0.00000    
     10720 FORA     60       FORA     LPO12    LPDO1   -0.380000       0.00000          -1   0.00000       0.00000    
     10721 FORA     61       FORA     C        CD2O2A    2.99370       11.6110           0  -1.01600      0.899000    
     10722 FORA     61       FORA     DC       DRUD     -2.47370      0.400000           0   0.00000       0.00000    
     10723 FORA     61       FORA     H        HDP1C     0.00000       1.00800           0   0.00000       0.00000    
     10724 FORA     61       FORA     O2       OD2C2A    2.05180       15.5994           0 -0.699000       2.39900    
     10725 FORA     61       FORA     DO2      DRUD     -2.05180      0.400000           0   0.00000       0.00000    
     10726 FORA     61       FORA     O1       OD2C2A    2.05180       15.5994           0 -0.699000       2.39900    
     10727 FORA     61       FORA     DO1      DRUD     -2.05180      0.400000           0   0.00000       0.00000    
     10728 FORA     61       FORA     HO1      DUMH      0.00000       1.00800           0   0.00000       0.00000    
     10729 FORA     61       FORA     LPO21    LPDO1   -0.380000       0.00000          -1   0.00000       0.00000    
     10730 FORA     61       FORA     LPO22    LPDO1   -0.380000       0.00000          -1   0.00000       0.00000    
     10731 FORA     61       FORA     LPO11    LPDO1   -0.380000       0.00000          -1   0.00000       0.00000    
     10732 FORA     61       FORA     LPO12    LPDO1   -0.380000       0.00000          -1   0.00000       0.00000    
     10733 FORA     62       FORA     C        CD2O2A    2.99370       11.6110           0  -1.01600      0.899000    
     10734 FORA     62       FORA     DC       DRUD     -2.47370      0.400000           0   0.00000       0.00000    
     10735 FORA     62       FORA     H        HDP1C     0.00000       1.00800           0   0.00000       0.00000    
     10736 FORA     62       FORA     O2       OD2C2A    2.05180       15.5994           0 -0.699000       2.39900    
     10737 FORA     62       FORA     DO2      DRUD     -2.05180      0.400000           0   0.00000       0.00000    
     10738 FORA     62       FORA     O1       OD2C2A    2.05180       15.5994           0 -0.699000       2.39900    
     10739 FORA     62       FORA     DO1      DRUD     -2.05180      0.400000           0   0.00000       0.00000    
     10740 FORA     62       FORA     HO1      DUMH      0.00000       1.00800           0   0.00000       0.00000    
     10741 FORA     62       FORA     LPO21    LPDO1   -0.380000       0.00000          -1   0.00000       0.00000    
     10742 FORA     62       FORA     LPO22    LPDO1   -0.380000       0.00000          -1   0.00000       0.00000    
     10743 FORA     62       FORA     LPO11    LPDO1   -0.380000       0.00000          -1   0.00000       0.00000    
     10744 FORA     62       FORA     LPO12    LPDO1   -0.380000       0.00000          -1   0.00000       0.00000    
     10745 FORA     63       FORA     C        CD2O2A    2.99370       11.6110           0  -1.01600      0.899000    
     10746 FORA     63       FORA     DC       DRUD     -2.47370      0.400000           0   0.00000       0.00000    
     10747 FORA     63       FORA     H        HDP1C     0.00000       1.00800           0   0.00000       0.00000    
     10748 FORA     63       FORA     O2       OD2C2A    2.05180       15.5994           0 -0.699000       2.39900    
     10749 FORA     63       FORA     DO2      DRUD     -2.05180      0.400000           0   0.00000       0.00000    
     10750 FORA     63       FORA     O1       OD2C2A    2.05180       15.5994           0 -0.699000       2.39900    
     10751 FORA     63       FORA     DO1      DRUD     -2.05180      0.400000           0   0.00000       0.00000    
     10752 FORA     63       FORA     HO1      DUMH      0.00000       1.00800           0   0.00000       0.00000    
     10753 FORA     63       FORA     LPO21    LPDO1   -0.380000       0.00000          -1   0.00000       0.00000    
     10754 FORA     63       FORA     LPO22    LPDO1   -0.380000       0.00000          -1   0.00000       0.00000    
     10755 FORA     63       FORA     LPO11    LPDO1   -0.380000       0.00000          -1   0.00000       0.00000    
     10756 FORA     63       FORA     LPO12    LPDO1   -0.380000       0.00000          -1   0.00000       0.00000    
     10757 FORA     64       FORA     C        CD2O2A    2.99370       11.6110           0  -1.01600      0.899000    
     10758 FORA     64       FORA     DC       DRUD     -2.47370      0.400000           0   0.00000       0.00000    
     10759 FORA     64       FORA     H        HDP1C     0.00000       1.00800           0   0.00000       0.00000    
     10760 FORA     64       FORA     O2       OD2C2A    2.05180       15.5994           0 -0.699000       2.39900    
     10761 FORA     64       FORA     DO2      DRUD     -2.05180      0.400000           0   0.00000       0.00000    
     10762 FORA     64       FORA     O1       OD2C2A    2.05180       15.5994           0 -0.699000       2.39900    
     10763 FORA     64       FORA     DO1      DRUD     -2.05180      0.400000           0   0.00000       0.00000    
     10764 FORA     64       FORA     HO1      DUMH      0.00000       1.00800           0   0.00000       0.00000    
     10765 FORA     64       FORA     LPO21    LPDO1   -0.380000       0.00000          -1   0.00000       0.00000    
     10766 FORA     64       FORA     LPO22    LPDO1   -0.380000       0.00000          -1   0.00000       0.00000    
     10767 FORA     64       FORA     LPO11    LPDO1   -0.380000       0.00000          -1   0.00000       0.00000    
     10768 FORA     64       FORA     LPO12    LPDO1   -0.380000       0.00000          -1   0.00000       0.00000    
     10769 FORA     65       FORA     C        CD2O2A    2.99370       11.6110           0  -1.01600      0.899000    
     10770 FORA     65       FORA     DC       DRUD     -2.47370      0.400000           0   0.00000       0.00000    
     10771 FORA     65       FORA     H        HDP1C     0.00000       1.00800           0   0.00000       0.00000    
     10772 FORA     65       FORA     O2       OD2C2A    2.05180       15.5994           0 -0.699000       2.39900    
     10773 FORA     65       FORA     DO2      DRUD     -2.05180      0.400000           0   0.00000       0.00000    
     10774 FORA     65       FORA     O1       OD2C2A    2.05180       15.5994           0 -0.699000       2.39900    
     10775 FORA     65       FORA     DO1      DRUD     -2.05180      0.400000           0   0.00000       0.00000    
     10776 FORA     65       FORA     HO1      DUMH      0.00000       1.00800           0   0.00000       0.00000    
     10777 FORA     65       FORA     LPO21    LPDO1   -0.380000       0.00000          -1   0.00000       0.00000    
     10778 FORA     65       FORA     LPO22    LPDO1   -0.380000       0.00000          -1   0.00000       0.00000    
     10779 FORA     65       FORA     LPO11    LPDO1   -0.380000       0.00000          -1   0.00000       0.00000    
     10780 FORA     65       FORA     LPO12    LPDO1   -0.380000       0.00000          -1   0.00000       0.00000    
     10781 FORA     66       FORA     C        CD2O2A    2.99370       11.6110           0  -1.01600      0.899000    
     10782 FORA     66       FORA     DC       DRUD     -2.47370      0.400000           0   0.00000       0.00000    
     10783 FORA     66       FORA     H        HDP1C     0.00000       1.00800           0   0.00000       0.00000    
     10784 FORA     66       FORA     O2       OD2C2A    2.05180       15.5994           0 -0.699000       2.39900    
     10785 FORA     66       FORA     DO2      DRUD     -2.05180      0.400000           0   0.00000       0.00000    
     10786 FORA     66       FORA     O1       OD2C2A    2.05180       15.5994           0 -0.699000       2.39900    
     10787 FORA     66       FORA     DO1      DRUD     -2.05180      0.400000           0   0.00000       0.00000    
     10788 FORA     66       FORA     HO1      DUMH      0.00000       1.00800           0   0.00000       0.00000    
     10789 FORA     66       FORA     LPO21    LPDO1   -0.380000       0.00000          -1   0.00000       0.00000    
     10790 FORA     66       FORA     LPO22    LPDO1   -0.380000       0.00000          -1   0.00000       0.00000    
     10791 FORA     66       FORA     LPO11    LPDO1   -0.380000       0.00000          -1   0.00000       0.00000    
     10792 FORA     66       FORA     LPO12    LPDO1   -0.380000       0.00000          -1   0.00000       0.00000    
     10793 FORA     67       FORA     C        CD2O2A    2.99370       11.6110           0  -1.01600      0.899000    
     10794 FORA     67       FORA     DC       DRUD     -2.47370      0.400000           0   0.00000       0.00000    
     10795 FORA     67       FORA     H        HDP1C     0.00000       1.00800           0   0.00000       0.00000    
     10796 FORA     67       FORA     O2       OD2C2A    2.05180       15.5994           0 -0.699000       2.39900    
     10797 FORA     67       FORA     DO2      DRUD     -2.05180      0.400000           0   0.00000       0.00000    
     10798 FORA     67       FORA     O1       OD2C2A    2.05180       15.5994           0 -0.699000       2.39900    
     10799 FORA     67       FORA     DO1      DRUD     -2.05180      0.400000           0   0.00000       0.00000    
     10800 FORA     67       FORA     HO1      DUMH      0.00000       1.00800           0   0.00000       0.00000    
     10801 FORA     67       FORA     LPO21    LPDO1   -0.380000       0.00000          -1   0.00000       0.00000    
     10802 FORA     67       FORA     LPO22    LPDO1   -0.380000       0.00000          -1   0.00000       0.00000    
     10803 FORA     67       FORA     LPO11    LPDO1   -0.380000       0.00000          -1   0.00000       0.00000    
     10804 FORA     67       FORA     LPO12    LPDO1   -0.380000       0.00000          -1   0.00000       0.00000    
     10805 FORA     68       FORA     C        CD2O2A    2.99370       11.6110           0  -1.01600      0.899000    
     10806 FORA     68       FORA     DC       DRUD     -2.47370      0.400000           0   0.00000       0.00000    
     10807 FORA     68       FORA     H        HDP1C     0.00000       1.00800           0   0.00000       0.00000    
     10808 FORA     68       FORA     O2       OD2C2A    2.05180       15.5994           0 -0.699000       2.39900    
     10809 FORA     68       FORA     DO2      DRUD     -2.05180      0.400000           0   0.00000       0.00000    
     10810 FORA     68       FORA     O1       OD2C2A    2.05180       15.5994           0 -0.699000       2.39900    
     10811 FORA     68       FORA     DO1      DRUD     -2.05180      0.400000           0   0.00000       0.00000    
     10812 FORA     68       FORA     HO1      DUMH      0.00000       1.00800           0   0.00000       0.00000    
     10813 FORA     68       FORA     LPO21    LPDO1   -0.380000       0.00000          -1   0.00000       0.00000    
     10814 FORA     68       FORA     LPO22    LPDO1   -0.380000       0.00000          -1   0.00000       0.00000    
     10815 FORA     68       FORA     LPO11    LPDO1   -0.380000       0.00000          -1   0.00000       0.00000    
     10816 FORA     68       FORA     LPO12    LPDO1   -0.380000       0.00000          -1   0.00000       0.00000    
     10817 FORA     69       FORA     C        CD2O2A    2.99370       11.6110           0  -1.01600      0.899000    
     10818 FORA     69       FORA     DC       DRUD     -2.47370      0.400000           0   0.00000       0.00000    
     10819 FORA     69       FORA     H        HDP1C     0.00000       1.00800           0   0.00000       0.00000    
     10820 FORA     69       FORA     O2       OD2C2A    2.05180       15.5994           0 -0.699000       2.39900    
     10821 FORA     69       FORA     DO2      DRUD     -2.05180      0.400000           0   0.00000       0.00000    
     10822 FORA     69       FORA     O1       OD2C2A    2.05180       15.5994           0 -0.699000       2.39900    
     10823 FORA     69       FORA     DO1      DRUD     -2.05180      0.400000           0   0.00000       0.00000    
     10824 FORA     69       FORA     HO1      DUMH      0.00000       1.00800           0   0.00000       0.00000    
     10825 FORA     69       FORA     LPO21    LPDO1   -0.380000       0.00000          -1   0.00000       0.00000    
     10826 FORA     69       FORA     LPO22    LPDO1   -0.380000       0.00000          -1   0.00000       0.00000    
     10827 FORA     69       FORA     LPO11    LPDO1   -0.380000       0.00000          -1   0.00000       0.00000    
     10828 FORA     69       FORA     LPO12    LPDO1   -0.380000       0.00000          -1   0.00000       0.00000    
     10829 FORA     70       FORA     C        CD2O2A    2.99370       11.6110           0  -1.01600      0.899000    
     10830 FORA     70       FORA     DC       DRUD     -2.47370      0.400000           0   0.00000       0.00000    
     10831 FORA     70       FORA     H        HDP1C     0.00000       1.00800           0   0.00000       0.00000    
     10832 FORA     70       FORA     O2       OD2C2A    2.05180       15.5994           0 -0.699000       2.39900    
     10833 FORA     70       FORA     DO2      DRUD     -2.05180      0.400000           0   0.00000       0.00000    
     10834 FORA     70       FORA     O1       OD2C2A    2.05180       15.5994           0 -0.699000       2.39900    
     10835 FORA     70       FORA     DO1      DRUD     -2.05180      0.400000           0   0.00000       0.00000    
     10836 FORA     70       FORA     HO1      DUMH      0.00000       1.00800           0   0.00000       0.00000    
     10837 FORA     70       FORA     LPO21    LPDO1   -0.380000       0.00000          -1   0.00000       0.00000    
     10838 FORA     70       FORA     LPO22    LPDO1   -0.380000       0.00000          -1   0.00000       0.00000    
     10839 FORA     70       FORA     LPO11    LPDO1   -0.380000       0.00000          -1   0.00000       0.00000    
     10840 FORA     70       FORA     LPO12    LPDO1   -0.380000       0.00000          -1   0.00000       0.00000    
     10841 FORA     71       FORA     C        CD2O2A    2.99370       11.6110           0  -1.01600      0.899000    
     10842 FORA     71       FORA     DC       DRUD     -2.47370      0.400000           0   0.00000       0.00000    
     10843 FORA     71       FORA     H        HDP1C     0.00000       1.00800           0   0.00000       0.00000    
     10844 FORA     71       FORA     O2       OD2C2A    2.05180       15.5994           0 -0.699000       2.39900    
     10845 FORA     71       FORA     DO2      DRUD     -2.05180      0.400000           0   0.00000       0.00000    
     10846 FORA     71       FORA     O1       OD2C2A    2.05180       15.5994           0 -0.699000       2.39900    
     10847 FORA     71       FORA     DO1      DRUD     -2.05180      0.400000           0   0.00000       0.00000    
     10848 FORA     71       FORA     HO1      DUMH      0.00000       1.00800           0   0.00000       0.00000    
     10849 FORA     71       FORA     LPO21    LPDO1   -0.380000       0.00000          -1   0.00000       0.00000    
     10850 FORA     71       FORA     LPO22    LPDO1   -0.380000       0.00000          -1   0.00000       0.00000    
     10851 FORA     71       FORA     LPO11    LPDO1   -0.380000       0.00000          -1   0.00000       0.00000    
     10852 FORA     71       FORA     LPO12    LPDO1   -0.380000       0.00000          -1   0.00000       0.00000    
     10853 FORA     72       FORA     C        CD2O2A    2.99370       11.6110           0  -1.01600      0.899000    
     10854 FORA     72       FORA     DC       DRUD     -2.47370      0.400000           0   0.00000       0.00000    
     10855 FORA     72       FORA     H        HDP1C     0.00000       1.00800           0   0.00000       0.00000    
     10856 FORA     72       FORA     O2       OD2C2A    2.05180       15.5994           0 -0.699000       2.39900    
     10857 FORA     72       FORA     DO2      DRUD     -2.05180      0.400000           0   0.00000       0.00000    
     10858 FORA     72       FORA     O1       OD2C2A    2.05180       15.5994           0 -0.699000       2.39900    
     10859 FORA     72       FORA     DO1      DRUD     -2.05180      0.400000           0   0.00000       0.00000    
     10860 FORA     72       FORA     HO1      DUMH      0.00000       1.00800           0   0.00000       0.00000    
     10861 FORA     72       FORA     LPO21    LPDO1   -0.380000       0.00000          -1   0.00000       0.00000    
     10862 FORA     72       FORA     LPO22    LPDO1   -0.380000       0.00000          -1   0.00000       0.00000    
     10863 FORA     72       FORA     LPO11    LPDO1   -0.380000       0.00000          -1   0.00000       0.00000    
     10864 FORA     72       FORA     LPO12    LPDO1   -0.380000       0.00000          -1   0.00000       0.00000    
     10865 FORA     73       FORA     C        CD2O2A    2.99370       11.6110           0  -1.01600      0.899000    
     10866 FORA     73       FORA     DC       DRUD     -2.47370      0.400000           0   0.00000       0.00000    
     10867 FORA     73       FORA     H        HDP1C     0.00000       1.00800           0   0.00000       0.00000    
     10868 FORA     73       FORA     O2       OD2C2A    2.05180       15.5994           0 -0.699000       2.39900    
     10869 FORA     73       FORA     DO2      DRUD     -2.05180      0.400000           0   0.00000       0.00000    
     10870 FORA     73       FORA     O1       OD2C2A    2.05180       15.5994           0 -0.699000       2.39900    
     10871 FORA     73       FORA     DO1      DRUD     -2.05180      0.400000           0   0.00000       0.00000    
     10872 FORA     73       FORA     HO1      DUMH      0.00000       1.00800           0   0.00000       0.00000    
     10873 FORA     73       FORA     LPO21    LPDO1   -0.380000       0.00000          -1   0.00000       0.00000    
     10874 FORA     73       FORA     LPO22    LPDO1   -0.380000       0.00000          -1   0.00000       0.00000    
     10875 FORA     73       FORA     LPO11    LPDO1   -0.380000       0.00000          -1   0.00000       0.00000    
     10876 FORA     73       FORA     LPO12    LPDO1   -0.380000       0.00000          -1   0.00000       0.00000    
     10877 FORA     74       FORA     C        CD2O2A    2.99370       11.6110           0  -1.01600      0.899000    
     10878 FORA     74       FORA     DC       DRUD     -2.47370      0.400000           0   0.00000       0.00000    
     10879 FORA     74       FORA     H        HDP1C     0.00000       1.00800           0   0.00000       0.00000    
     10880 FORA     74       FORA     O2       OD2C2A    2.05180       15.5994           0 -0.699000       2.39900    
     10881 FORA     74       FORA     DO2      DRUD     -2.05180      0.400000           0   0.00000       0.00000    
     10882 FORA     74       FORA     O1       OD2C2A    2.05180       15.5994           0 -0.699000       2.39900    
     10883 FORA     74       FORA     DO1      DRUD     -2.05180      0.400000           0   0.00000       0.00000    
     10884 FORA     74       FORA     HO1      DUMH      0.00000       1.00800           0   0.00000       0.00000    
     10885 FORA     74       FORA     LPO21    LPDO1   -0.380000       0.00000          -1   0.00000       0.00000    
     10886 FORA     74       FORA     LPO22    LPDO1   -0.380000       0.00000          -1   0.00000       0.00000    
     10887 FORA     74       FORA     LPO11    LPDO1   -0.380000       0.00000          -1   0.00000       0.00000    
     10888 FORA     74       FORA     LPO12    LPDO1   -0.380000       0.00000          -1   0.00000       0.00000    
     10889 FORA     75       FORA     C        CD2O2A    2.99370       11.6110           0  -1.01600      0.899000    
     10890 FORA     75       FORA     DC       DRUD     -2.47370      0.400000           0   0.00000       0.00000    
     10891 FORA     75       FORA     H        HDP1C     0.00000       1.00800           0   0.00000       0.00000    
     10892 FORA     75       FORA     O2       OD2C2A    2.05180       15.5994           0 -0.699000       2.39900    
     10893 FORA     75       FORA     DO2      DRUD     -2.05180      0.400000           0   0.00000       0.00000    
     10894 FORA     75       FORA     O1       OD2C2A    2.05180       15.5994           0 -0.699000       2.39900    
     10895 FORA     75       FORA     DO1      DRUD     -2.05180      0.400000           0   0.00000       0.00000    
     10896 FORA     75       FORA     HO1      DUMH      0.00000       1.00800           0   0.00000       0.00000    
     10897 FORA     75       FORA     LPO21    LPDO1   -0.380000       0.00000          -1   0.00000       0.00000    
     10898 FORA     75       FORA     LPO22    LPDO1   -0.380000       0.00000          -1   0.00000       0.00000    
     10899 FORA     75       FORA     LPO11    LPDO1   -0.380000       0.00000          -1   0.00000       0.00000    
     10900 FORA     75       FORA     LPO12    LPDO1   -0.380000       0.00000          -1   0.00000       0.00000    
     10901 FORA     76       FORA     C        CD2O2A    2.99370       11.6110           0  -1.01600      0.899000    
     10902 FORA     76       FORA     DC       DRUD     -2.47370      0.400000           0   0.00000       0.00000    
     10903 FORA     76       FORA     H        HDP1C     0.00000       1.00800           0   0.00000       0.00000    
     10904 FORA     76       FORA     O2       OD2C2A    2.05180       15.5994           0 -0.699000       2.39900    
     10905 FORA     76       FORA     DO2      DRUD     -2.05180      0.400000           0   0.00000       0.00000    
     10906 FORA     76       FORA     O1       OD2C2A    2.05180       15.5994           0 -0.699000       2.39900    
     10907 FORA     76       FORA     DO1      DRUD     -2.05180      0.400000           0   0.00000       0.00000    
     10908 FORA     76       FORA     HO1      DUMH      0.00000       1.00800           0   0.00000       0.00000    
     10909 FORA     76       FORA     LPO21    LPDO1   -0.380000       0.00000          -1   0.00000       0.00000    
     10910 FORA     76       FORA     LPO22    LPDO1   -0.380000       0.00000          -1   0.00000       0.00000    
     10911 FORA     76       FORA     LPO11    LPDO1   -0.380000       0.00000          -1   0.00000       0.00000    
     10912 FORA     76       FORA     LPO12    LPDO1   -0.380000       0.00000          -1   0.00000       0.00000    
     10913 FORA     77       FORA     C        CD2O2A    2.99370       11.6110           0  -1.01600      0.899000    
     10914 FORA     77       FORA     DC       DRUD     -2.47370      0.400000           0   0.00000       0.00000    
     10915 FORA     77       FORA     H        HDP1C     0.00000       1.00800           0   0.00000       0.00000    
     10916 FORA     77       FORA     O2       OD2C2A    2.05180       15.5994           0 -0.699000       2.39900    
     10917 FORA     77       FORA     DO2      DRUD     -2.05180      0.400000           0   0.00000       0.00000    
     10918 FORA     77       FORA     O1       OD2C2A    2.05180       15.5994           0 -0.699000       2.39900    
     10919 FORA     77       FORA     DO1      DRUD     -2.05180      0.400000           0   0.00000       0.00000    
     10920 FORA     77       FORA     HO1      DUMH      0.00000       1.00800           0   0.00000       0.00000    
     10921 FORA     77       FORA     LPO21    LPDO1   -0.380000       0.00000          -1   0.00000       0.00000    
     10922 FORA     77       FORA     LPO22    LPDO1   -0.380000       0.00000          -1   0.00000       0.00000    
     10923 FORA     77       FORA     LPO11    LPDO1   -0.380000       0.00000          -1   0.00000       0.00000    
     10924 FORA     77       FORA     LPO12    LPDO1   -0.380000       0.00000          -1   0.00000       0.00000    
     10925 FORA     78       FORA     C        CD2O2A    2.99370       11.6110           0  -1.01600      0.899000    
     10926 FORA     78       FORA     DC       DRUD     -2.47370      0.400000           0   0.00000       0.00000    
     10927 FORA     78       FORA     H        HDP1C     0.00000       1.00800           0   0.00000       0.00000    
     10928 FORA     78       FORA     O2       OD2C2A    2.05180       15.5994           0 -0.699000       2.39900    
     10929 FORA     78       FORA     DO2      DRUD     -2.05180      0.400000           0   0.00000       0.00000    
     10930 FORA     78       FORA     O1       OD2C2A    2.05180       15.5994           0 -0.699000       2.39900    
     10931 FORA     78       FORA     DO1      DRUD     -2.05180      0.400000           0   0.00000       0.00000    
     10932 FORA     78       FORA     HO1      DUMH      0.00000       1.00800           0   0.00000       0.00000    
     10933 FORA     78       FORA     LPO21    LPDO1   -0.380000       0.00000          -1   0.00000       0.00000    
     10934 FORA     78       FORA     LPO22    LPDO1   -0.380000       0.00000          -1   0.00000       0.00000    
     10935 FORA     78       FORA     LPO11    LPDO1   -0.380000       0.00000          -1   0.00000       0.00000    
     10936 FORA     78       FORA     LPO12    LPDO1   -0.380000       0.00000          -1   0.00000       0.00000    
     10937 FORA     79       FORA     C        CD2O2A    2.99370       11.6110           0  -1.01600      0.899000    
     10938 FORA     79       FORA     DC       DRUD     -2.47370      0.400000           0   0.00000       0.00000    
     10939 FORA     79       FORA     H        HDP1C     0.00000       1.00800           0   0.00000       0.00000    
     10940 FORA     79       FORA     O2       OD2C2A    2.05180       15.5994           0 -0.699000       2.39900    
     10941 FORA     79       FORA     DO2      DRUD     -2.05180      0.400000           0   0.00000       0.00000    
     10942 FORA     79       FORA     O1       OD2C2A    2.05180       15.5994           0 -0.699000       2.39900    
     10943 FORA     79       FORA     DO1      DRUD     -2.05180      0.400000           0   0.00000       0.00000    
     10944 FORA     79       FORA     HO1      DUMH      0.00000       1.00800           0   0.00000       0.00000    
     10945 FORA     79       FORA     LPO21    LPDO1   -0.380000       0.00000          -1   0.00000       0.00000    
     10946 FORA     79       FORA     LPO22    LPDO1   -0.380000       0.00000          -1   0.00000       0.00000    
     10947 FORA     79       FORA     LPO11    LPDO1   -0.380000       0.00000          -1   0.00000       0.00000    
     10948 FORA     79       FORA     LPO12    LPDO1   -0.380000       0.00000          -1   0.00000       0.00000    
     10949 FORA     80       FORA     C        CD2O2A    2.99370       11.6110           0  -1.01600      0.899000    
     10950 FORA     80       FORA     DC       DRUD     -2.47370      0.400000           0   0.00000       0.00000    
     10951 FORA     80       FORA     H        HDP1C     0.00000       1.00800           0   0.00000       0.00000    
     10952 FORA     80       FORA     O2       OD2C2A    2.05180       15.5994           0 -0.699000       2.39900    
     10953 FORA     80       FORA     DO2      DRUD     -2.05180      0.400000           0   0.00000       0.00000    
     10954 FORA     80       FORA     O1       OD2C2A    2.05180       15.5994           0 -0.699000       2.39900    
     10955 FORA     80       FORA     DO1      DRUD     -2.05180      0.400000           0   0.00000       0.00000    
     10956 FORA     80       FORA     HO1      DUMH      0.00000       1.00800           0   0.00000       0.00000    
     10957 FORA     80       FORA     LPO21    LPDO1   -0.380000       0.00000          -1   0.00000       0.00000    
     10958 FORA     80       FORA     LPO22    LPDO1   -0.380000       0.00000          -1   0.00000       0.00000    
     10959 FORA     80       FORA     LPO11    LPDO1   -0.380000       0.00000          -1   0.00000       0.00000    
     10960 FORA     80       FORA     LPO12    LPDO1   -0.380000       0.00000          -1   0.00000       0.00000    
     10961 FORA     81       FORA     C        CD2O2A    2.99370       11.6110           0  -1.01600      0.899000    
     10962 FORA     81       FORA     DC       DRUD     -2.47370      0.400000           0   0.00000       0.00000    
     10963 FORA     81       FORA     H        HDP1C     0.00000       1.00800           0   0.00000       0.00000    
     10964 FORA     81       FORA     O2       OD2C2A    2.05180       15.5994           0 -0.699000       2.39900    
     10965 FORA     81       FORA     DO2      DRUD     -2.05180      0.400000           0   0.00000       0.00000    
     10966 FORA     81       FORA     O1       OD2C2A    2.05180       15.5994           0 -0.699000       2.39900    
     10967 FORA     81       FORA     DO1      DRUD     -2.05180      0.400000           0   0.00000       0.00000    
     10968 FORA     81       FORA     HO1      DUMH      0.00000       1.00800           0   0.00000       0.00000    
     10969 FORA     81       FORA     LPO21    LPDO1   -0.380000       0.00000          -1   0.00000       0.00000    
     10970 FORA     81       FORA     LPO22    LPDO1   -0.380000       0.00000          -1   0.00000       0.00000    
     10971 FORA     81       FORA     LPO11    LPDO1   -0.380000       0.00000          -1   0.00000       0.00000    
     10972 FORA     81       FORA     LPO12    LPDO1   -0.380000       0.00000          -1   0.00000       0.00000    
     10973 FORA     82       FORA     C        CD2O2A    2.99370       11.6110           0  -1.01600      0.899000    
     10974 FORA     82       FORA     DC       DRUD     -2.47370      0.400000           0   0.00000       0.00000    
     10975 FORA     82       FORA     H        HDP1C     0.00000       1.00800           0   0.00000       0.00000    
     10976 FORA     82       FORA     O2       OD2C2A    2.05180       15.5994           0 -0.699000       2.39900    
     10977 FORA     82       FORA     DO2      DRUD     -2.05180      0.400000           0   0.00000       0.00000    
     10978 FORA     82       FORA     O1       OD2C2A    2.05180       15.5994           0 -0.699000       2.39900    
     10979 FORA     82       FORA     DO1      DRUD     -2.05180      0.400000           0   0.00000       0.00000    
     10980 FORA     82       FORA     HO1      DUMH      0.00000       1.00800           0   0.00000       0.00000    
     10981 FORA     82       FORA     LPO21    LPDO1   -0.380000       0.00000          -1   0.00000       0.00000    
     10982 FORA     82       FORA     LPO22    LPDO1   -0.380000       0.00000          -1   0.00000       0.00000    
     10983 FORA     82       FORA     LPO11    LPDO1   -0.380000       0.00000          -1   0.00000       0.00000    
     10984 FORA     82       FORA     LPO12    LPDO1   -0.380000       0.00000          -1   0.00000       0.00000    
     10985 FORA     83       FORA     C        CD2O2A    2.99370       11.6110           0  -1.01600      0.899000    
     10986 FORA     83       FORA     DC       DRUD     -2.47370      0.400000           0   0.00000       0.00000    
     10987 FORA     83       FORA     H        HDP1C     0.00000       1.00800           0   0.00000       0.00000    
     10988 FORA     83       FORA     O2       OD2C2A    2.05180       15.5994           0 -0.699000       2.39900    
     10989 FORA     83       FORA     DO2      DRUD     -2.05180      0.400000           0   0.00000       0.00000    
     10990 FORA     83       FORA     O1       OD2C2A    2.05180       15.5994           0 -0.699000       2.39900    
     10991 FORA     83       FORA     DO1      DRUD     -2.05180      0.400000           0   0.00000       0.00000    
     10992 FORA     83       FORA     HO1      DUMH      0.00000       1.00800           0   0.00000       0.00000    
     10993 FORA     83       FORA     LPO21    LPDO1   -0.380000       0.00000          -1   0.00000       0.00000    
     10994 FORA     83       FORA     LPO22    LPDO1   -0.380000       0.00000          -1   0.00000       0.00000    
     10995 FORA     83       FORA     LPO11    LPDO1   -0.380000       0.00000          -1   0.00000       0.00000    
     10996 FORA     83       FORA     LPO12    LPDO1   -0.380000       0.00000          -1   0.00000       0.00000    
     10997 FORA     84       FORA     C        CD2O2A    2.99370       11.6110           0  -1.01600      0.899000    
     10998 FORA     84       FORA     DC       DRUD     -2.47370      0.400000           0   0.00000       0.00000    
     10999 FORA     84       FORA     H        HDP1C     0.00000       1.00800           0   0.00000       0.00000    
     11000 FORA     84       FORA     O2       OD2C2A    2.05180       15.5994           0 -0.699000       2.39900    
     11001 FORA     84       FORA     DO2      DRUD     -2.05180      0.400000           0   0.00000       0.00000    
     11002 FORA     84       FORA     O1       OD2C2A    2.05180       15.5994           0 -0.699000       2.39900    
     11003 FORA     84       FORA     DO1      DRUD     -2.05180      0.400000           0   0.00000       0.00000    
     11004 FORA     84       FORA     HO1      DUMH      0.00000       1.00800           0   0.00000       0.00000    
     11005 FORA     84       FORA     LPO21    LPDO1   -0.380000       0.00000          -1   0.00000       0.00000    
     11006 FORA     84       FORA     LPO22    LPDO1   -0.380000       0.00000          -1   0.00000       0.00000    
     11007 FORA     84       FORA     LPO11    LPDO1   -0.380000       0.00000          -1   0.00000       0.00000    
     11008 FORA     84       FORA     LPO12    LPDO1   -0.380000       0.00000          -1   0.00000       0.00000    
     11009 FORA     85       FORA     C        CD2O2A    2.99370       11.6110           0  -1.01600      0.899000    
     11010 FORA     85       FORA     DC       DRUD     -2.47370      0.400000           0   0.00000       0.00000    
     11011 FORA     85       FORA     H        HDP1C     0.00000       1.00800           0   0.00000       0.00000    
     11012 FORA     85       FORA     O2       OD2C2A    2.05180       15.5994           0 -0.699000       2.39900    
     11013 FORA     85       FORA     DO2      DRUD     -2.05180      0.400000           0   0.00000       0.00000    
     11014 FORA     85       FORA     O1       OD2C2A    2.05180       15.5994           0 -0.699000       2.39900    
     11015 FORA     85       FORA     DO1      DRUD     -2.05180      0.400000           0   0.00000       0.00000    
     11016 FORA     85       FORA     HO1      DUMH      0.00000       1.00800           0   0.00000       0.00000    
     11017 FORA     85       FORA     LPO21    LPDO1   -0.380000       0.00000          -1   0.00000       0.00000    
     11018 FORA     85       FORA     LPO22    LPDO1   -0.380000       0.00000          -1   0.00000       0.00000    
     11019 FORA     85       FORA     LPO11    LPDO1   -0.380000       0.00000          -1   0.00000       0.00000    
     11020 FORA     85       FORA     LPO12    LPDO1   -0.380000       0.00000          -1   0.00000       0.00000    
     11021 FORA     86       FORA     C        CD2O2A    2.99370       11.6110           0  -1.01600      0.899000    
     11022 FORA     86       FORA     DC       DRUD     -2.47370      0.400000           0   0.00000       0.00000    
     11023 FORA     86       FORA     H        HDP1C     0.00000       1.00800           0   0.00000       0.00000    
     11024 FORA     86       FORA     O2       OD2C2A    2.05180       15.5994           0 -0.699000       2.39900    
     11025 FORA     86       FORA     DO2      DRUD     -2.05180      0.400000           0   0.00000       0.00000    
     11026 FORA     86       FORA     O1       OD2C2A    2.05180       15.5994           0 -0.699000       2.39900    
     11027 FORA     86       FORA     DO1      DRUD     -2.05180      0.400000           0   0.00000       0.00000    
     11028 FORA     86       FORA     HO1      DUMH      0.00000       1.00800           0   0.00000       0.00000    
     11029 FORA     86       FORA     LPO21    LPDO1   -0.380000       0.00000          -1   0.00000       0.00000    
     11030 FORA     86       FORA     LPO22    LPDO1   -0.380000       0.00000          -1   0.00000       0.00000    
     11031 FORA     86       FORA     LPO11    LPDO1   -0.380000       0.00000          -1   0.00000       0.00000    
     11032 FORA     86       FORA     LPO12    LPDO1   -0.380000       0.00000          -1   0.00000       0.00000    
     11033 FORA     87       FORA     C        CD2O2A    2.99370       11.6110           0  -1.01600      0.899000    
     11034 FORA     87       FORA     DC       DRUD     -2.47370      0.400000           0   0.00000       0.00000    
     11035 FORA     87       FORA     H        HDP1C     0.00000       1.00800           0   0.00000       0.00000    
     11036 FORA     87       FORA     O2       OD2C2A    2.05180       15.5994           0 -0.699000       2.39900    
     11037 FORA     87       FORA     DO2      DRUD     -2.05180      0.400000           0   0.00000       0.00000    
     11038 FORA     87       FORA     O1       OD2C2A    2.05180       15.5994           0 -0.699000       2.39900    
     11039 FORA     87       FORA     DO1      DRUD     -2.05180      0.400000           0   0.00000       0.00000    
     11040 FORA     87       FORA     HO1      DUMH      0.00000       1.00800           0   0.00000       0.00000    
     11041 FORA     87       FORA     LPO21    LPDO1   -0.380000       0.00000          -1   0.00000       0.00000    
     11042 FORA     87       FORA     LPO22    LPDO1   -0.380000       0.00000          -1   0.00000       0.00000    
     11043 FORA     87       FORA     LPO11    LPDO1   -0.380000       0.00000          -1   0.00000       0.00000    
     11044 FORA     87       FORA     LPO12    LPDO1   -0.380000       0.00000          -1   0.00000       0.00000    
     11045 FORA     88       FORA     C        CD2O2A    2.99370       11.6110           0  -1.01600      0.899000    
     11046 FORA     88       FORA     DC       DRUD     -2.47370      0.400000           0   0.00000       0.00000    
     11047 FORA     88       FORA     H        HDP1C     0.00000       1.00800           0   0.00000       0.00000    
     11048 FORA     88       FORA     O2       OD2C2A    2.05180       15.5994           0 -0.699000       2.39900    
     11049 FORA     88       FORA     DO2      DRUD     -2.05180      0.400000           0   0.00000       0.00000    
     11050 FORA     88       FORA     O1       OD2C2A    2.05180       15.5994           0 -0.699000       2.39900    
     11051 FORA     88       FORA     DO1      DRUD     -2.05180      0.400000           0   0.00000       0.00000    
     11052 FORA     88       FORA     HO1      DUMH      0.00000       1.00800           0   0.00000       0.00000    
     11053 FORA     88       FORA     LPO21    LPDO1   -0.380000       0.00000          -1   0.00000       0.00000    
     11054 FORA     88       FORA     LPO22    LPDO1   -0.380000       0.00000          -1   0.00000       0.00000    
     11055 FORA     88       FORA     LPO11    LPDO1   -0.380000       0.00000          -1   0.00000       0.00000    
     11056 FORA     88       FORA     LPO12    LPDO1   -0.380000       0.00000          -1   0.00000       0.00000    
     11057 FORA     89       FORA     C        CD2O2A    2.99370       11.6110           0  -1.01600      0.899000    
     11058 FORA     89       FORA     DC       DRUD     -2.47370      0.400000           0   0.00000       0.00000    
     11059 FORA     89       FORA     H        HDP1C     0.00000       1.00800           0   0.00000       0.00000    
     11060 FORA     89       FORA     O2       OD2C2A    2.05180       15.5994           0 -0.699000       2.39900    
     11061 FORA     89       FORA     DO2      DRUD     -2.05180      0.400000           0   0.00000       0.00000    
     11062 FORA     89       FORA     O1       OD2C2A    2.05180       15.5994           0 -0.699000       2.39900    
     11063 FORA     89       FORA     DO1      DRUD     -2.05180      0.400000           0   0.00000       0.00000    
     11064 FORA     89       FORA     HO1      DUMH      0.00000       1.00800           0   0.00000       0.00000    
     11065 FORA     89       FORA     LPO21    LPDO1   -0.380000       0.00000          -1   0.00000       0.00000    
     11066 FORA     89       FORA     LPO22    LPDO1   -0.380000       0.00000          -1   0.00000       0.00000    
     11067 FORA     89       FORA     LPO11    LPDO1   -0.380000       0.00000          -1   0.00000       0.00000    
     11068 FORA     89       FORA     LPO12    LPDO1   -0.380000       0.00000          -1   0.00000       0.00000    
     11069 FORA     90       FORA     C        CD2O2A    2.99370       11.6110           0  -1.01600      0.899000    
     11070 FORA     90       FORA     DC       DRUD     -2.47370      0.400000           0   0.00000       0.00000    
     11071 FORA     90       FORA     H        HDP1C     0.00000       1.00800           0   0.00000       0.00000    
     11072 FORA     90       FORA     O2       OD2C2A    2.05180       15.5994           0 -0.699000       2.39900    
     11073 FORA     90       FORA     DO2      DRUD     -2.05180      0.400000           0   0.00000       0.00000    
     11074 FORA     90       FORA     O1       OD2C2A    2.05180       15.5994           0 -0.699000       2.39900    
     11075 FORA     90       FORA     DO1      DRUD     -2.05180      0.400000           0   0.00000       0.00000    
     11076 FORA     90       FORA     HO1      DUMH      0.00000       1.00800           0   0.00000       0.00000    
     11077 FORA     90       FORA     LPO21    LPDO1   -0.380000       0.00000          -1   0.00000       0.00000    
     11078 FORA     90       FORA     LPO22    LPDO1   -0.380000       0.00000          -1   0.00000       0.00000    
     11079 FORA     90       FORA     LPO11    LPDO1   -0.380000       0.00000          -1   0.00000       0.00000    
     11080 FORA     90       FORA     LPO12    LPDO1   -0.380000       0.00000          -1   0.00000       0.00000    
     11081 FORA     91       FORA     C        CD2O2A    2.99370       11.6110           0  -1.01600      0.899000    
     11082 FORA     91       FORA     DC       DRUD     -2.47370      0.400000           0   0.00000       0.00000    
     11083 FORA     91       FORA     H        HDP1C     0.00000       1.00800           0   0.00000       0.00000    
     11084 FORA     91       FORA     O2       OD2C2A    2.05180       15.5994           0 -0.699000       2.39900    
     11085 FORA     91       FORA     DO2      DRUD     -2.05180      0.400000           0   0.00000       0.00000    
     11086 FORA     91       FORA     O1       OD2C2A    2.05180       15.5994           0 -0.699000       2.39900    
     11087 FORA     91       FORA     DO1      DRUD     -2.05180      0.400000           0   0.00000       0.00000    
     11088 FORA     91       FORA     HO1      DUMH      0.00000       1.00800           0   0.00000       0.00000    
     11089 FORA     91       FORA     LPO21    LPDO1   -0.380000       0.00000          -1   0.00000       0.00000    
     11090 FORA     91       FORA     LPO22    LPDO1   -0.380000       0.00000          -1   0.00000       0.00000    
     11091 FORA     91       FORA     LPO11    LPDO1   -0.380000       0.00000          -1   0.00000       0.00000    
     11092 FORA     91       FORA     LPO12    LPDO1   -0.380000       0.00000          -1   0.00000       0.00000    
     11093 FORA     92       FORA     C        CD2O2A    2.99370       11.6110           0  -1.01600      0.899000    
     11094 FORA     92       FORA     DC       DRUD     -2.47370      0.400000           0   0.00000       0.00000    
     11095 FORA     92       FORA     H        HDP1C     0.00000       1.00800           0   0.00000       0.00000    
     11096 FORA     92       FORA     O2       OD2C2A    2.05180       15.5994           0 -0.699000       2.39900    
     11097 FORA     92       FORA     DO2      DRUD     -2.05180      0.400000           0   0.00000       0.00000    
     11098 FORA     92       FORA     O1       OD2C2A    2.05180       15.5994           0 -0.699000       2.39900    
     11099 FORA     92       FORA     DO1      DRUD     -2.05180      0.400000           0   0.00000       0.00000    
     11100 FORA     92       FORA     HO1      DUMH      0.00000       1.00800           0   0.00000       0.00000    
     11101 FORA     92       FORA     LPO21    LPDO1   -0.380000       0.00000          -1   0.00000       0.00000    
     11102 FORA     92       FORA     LPO22    LPDO1   -0.380000       0.00000          -1   0.00000       0.00000    
     11103 FORA     92       FORA     LPO11    LPDO1   -0.380000       0.00000          -1   0.00000       0.00000    
     11104 FORA     92       FORA     LPO12    LPDO1   -0.380000       0.00000          -1   0.00000       0.00000    
     11105 FORA     93       FORA     C        CD2O2A    2.99370       11.6110           0  -1.01600      0.899000    
     11106 FORA     93       FORA     DC       DRUD     -2.47370      0.400000           0   0.00000       0.00000    
     11107 FORA     93       FORA     H        HDP1C     0.00000       1.00800           0   0.00000       0.00000    
     11108 FORA     93       FORA     O2       OD2C2A    2.05180       15.5994           0 -0.699000       2.39900    
     11109 FORA     93       FORA     DO2      DRUD     -2.05180      0.400000           0   0.00000       0.00000    
     11110 FORA     93       FORA     O1       OD2C2A    2.05180       15.5994           0 -0.699000       2.39900    
     11111 FORA     93       FORA     DO1      DRUD     -2.05180      0.400000           0   0.00000       0.00000    
     11112 FORA     93       FORA     HO1      DUMH      0.00000       1.00800           0   0.00000       0.00000    
     11113 FORA     93       FORA     LPO21    LPDO1   -0.380000       0.00000          -1   0.00000       0.00000    
     11114 FORA     93       FORA     LPO22    LPDO1   -0.380000       0.00000          -1   0.00000       0.00000    
     11115 FORA     93       FORA     LPO11    LPDO1   -0.380000       0.00000          -1   0.00000       0.00000    
     11116 FORA     93       FORA     LPO12    LPDO1   -0.380000       0.00000          -1   0.00000       0.00000    
     11117 FORA     94       FORA     C        CD2O2A    2.99370       11.6110           0  -1.01600      0.899000    
     11118 FORA     94       FORA     DC       DRUD     -2.47370      0.400000           0   0.00000       0.00000    
     11119 FORA     94       FORA     H        HDP1C     0.00000       1.00800           0   0.00000       0.00000    
     11120 FORA     94       FORA     O2       OD2C2A    2.05180       15.5994           0 -0.699000       2.39900    
     11121 FORA     94       FORA     DO2      DRUD     -2.05180      0.400000           0   0.00000       0.00000    
     11122 FORA     94       FORA     O1       OD2C2A    2.05180       15.5994           0 -0.699000       2.39900    
     11123 FORA     94       FORA     DO1      DRUD     -2.05180      0.400000           0   0.00000       0.00000    
     11124 FORA     94       FORA     HO1      DUMH      0.00000       1.00800           0   0.00000       0.00000    
     11125 FORA     94       FORA     LPO21    LPDO1   -0.380000       0.00000          -1   0.00000       0.00000    
     11126 FORA     94       FORA     LPO22    LPDO1   -0.380000       0.00000          -1   0.00000       0.00000    
     11127 FORA     94       FORA     LPO11    LPDO1   -0.380000       0.00000          -1   0.00000       0.00000    
     11128 FORA     94       FORA     LPO12    LPDO1   -0.380000       0.00000          -1   0.00000       0.00000    
     11129 FORA     95       FORA     C        CD2O2A    2.99370       11.6110           0  -1.01600      0.899000    
     11130 FORA     95       FORA     DC       DRUD     -2.47370      0.400000           0   0.00000       0.00000    
     11131 FORA     95       FORA     H        HDP1C     0.00000       1.00800           0   0.00000       0.00000    
     11132 FORA     95       FORA     O2       OD2C2A    2.05180       15.5994           0 -0.699000       2.39900    
     11133 FORA     95       FORA     DO2      DRUD     -2.05180      0.400000           0   0.00000       0.00000    
     11134 FORA     95       FORA     O1       OD2C2A    2.05180       15.5994           0 -0.699000       2.39900    
     11135 FORA     95       FORA     DO1      DRUD     -2.05180      0.400000           0   0.00000       0.00000    
     11136 FORA     95       FORA     HO1      DUMH      0.00000       1.00800           0   0.00000       0.00000    
     11137 FORA     95       FORA     LPO21    LPDO1   -0.380000       0.00000          -1   0.00000       0.00000    
     11138 FORA     95       FORA     LPO22    LPDO1   -0.380000       0.00000          -1   0.00000       0.00000    
     11139 FORA     95       FORA     LPO11    LPDO1   -0.380000       0.00000          -1   0.00000       0.00000    
     11140 FORA     95       FORA     LPO12    LPDO1   -0.380000       0.00000          -1   0.00000       0.00000    
     11141 FORA     96       FORA     C        CD2O2A    2.99370       11.6110           0  -1.01600      0.899000    
     11142 FORA     96       FORA     DC       DRUD     -2.47370      0.400000           0   0.00000       0.00000    
     11143 FORA     96       FORA     H        HDP1C     0.00000       1.00800           0   0.00000       0.00000    
     11144 FORA     96       FORA     O2       OD2C2A    2.05180       15.5994           0 -0.699000       2.39900    
     11145 FORA     96       FORA     DO2      DRUD     -2.05180      0.400000           0   0.00000       0.00000    
     11146 FORA     96       FORA     O1       OD2C2A    2.05180       15.5994           0 -0.699000       2.39900    
     11147 FORA     96       FORA     DO1      DRUD     -2.05180      0.400000           0   0.00000       0.00000    
     11148 FORA     96       FORA     HO1      DUMH      0.00000       1.00800           0   0.00000       0.00000    
     11149 FORA     96       FORA     LPO21    LPDO1   -0.380000       0.00000          -1   0.00000       0.00000    
     11150 FORA     96       FORA     LPO22    LPDO1   -0.380000       0.00000          -1   0.00000       0.00000    
     11151 FORA     96       FORA     LPO11    LPDO1   -0.380000       0.00000          -1   0.00000       0.00000    
     11152 FORA     96       FORA     LPO12    LPDO1   -0.380000       0.00000          -1   0.00000       0.00000    
     11153 FORA     97       FORA     C        CD2O2A    2.99370       11.6110           0  -1.01600      0.899000    
     11154 FORA     97       FORA     DC       DRUD     -2.47370      0.400000           0   0.00000       0.00000    
     11155 FORA     97       FORA     H        HDP1C     0.00000       1.00800           0   0.00000       0.00000    
     11156 FORA     97       FORA     O2       OD2C2A    2.05180       15.5994           0 -0.699000       2.39900    
     11157 FORA     97       FORA     DO2      DRUD     -2.05180      0.400000           0   0.00000       0.00000    
     11158 FORA     97       FORA     O1       OD2C2A    2.05180       15.5994           0 -0.699000       2.39900    
     11159 FORA     97       FORA     DO1      DRUD     -2.05180      0.400000           0   0.00000       0.00000    
     11160 FORA     97       FORA     HO1      DUMH      0.00000       1.00800           0   0.00000       0.00000    
     11161 FORA     97       FORA     LPO21    LPDO1   -0.380000       0.00000          -1   0.00000       0.00000    
     11162 FORA     97       FORA     LPO22    LPDO1   -0.380000       0.00000          -1   0.00000       0.00000    
     11163 FORA     97       FORA     LPO11    LPDO1   -0.380000       0.00000          -1   0.00000       0.00000    
     11164 FORA     97       FORA     LPO12    LPDO1   -0.380000       0.00000          -1   0.00000       0.00000    
     11165 FORA     98       FORA     C        CD2O2A    2.99370       11.6110           0  -1.01600      0.899000    
     11166 FORA     98       FORA     DC       DRUD     -2.47370      0.400000           0   0.00000       0.00000    
     11167 FORA     98       FORA     H        HDP1C     0.00000       1.00800           0   0.00000       0.00000    
     11168 FORA     98       FORA     O2       OD2C2A    2.05180       15.5994           0 -0.699000       2.39900    
     11169 FORA     98       FORA     DO2      DRUD     -2.05180      0.400000           0   0.00000       0.00000    
     11170 FORA     98       FORA     O1       OD2C2A    2.05180       15.5994           0 -0.699000       2.39900    
     11171 FORA     98       FORA     DO1      DRUD     -2.05180      0.400000           0   0.00000       0.00000    
     11172 FORA     98       FORA     HO1      DUMH      0.00000       1.00800           0   0.00000       0.00000    
     11173 FORA     98       FORA     LPO21    LPDO1   -0.380000       0.00000          -1   0.00000       0.00000    
     11174 FORA     98       FORA     LPO22    LPDO1   -0.380000       0.00000          -1   0.00000       0.00000    
     11175 FORA     98       FORA     LPO11    LPDO1   -0.380000       0.00000          -1   0.00000       0.00000    
     11176 FORA     98       FORA     LPO12    LPDO1   -0.380000       0.00000          -1   0.00000       0.00000    
     11177 FORA     99       FORA     C        CD2O2A    2.99370       11.6110           0  -1.01600      0.899000    
     11178 FORA     99       FORA     DC       DRUD     -2.47370      0.400000           0   0.00000       0.00000    
     11179 FORA     99       FORA     H        HDP1C     0.00000       1.00800           0   0.00000       0.00000    
     11180 FORA     99       FORA     O2       OD2C2A    2.05180       15.5994           0 -0.699000       2.39900    
     11181 FORA     99       FORA     DO2      DRUD     -2.05180      0.400000           0   0.00000       0.00000    
     11182 FORA     99       FORA     O1       OD2C2A    2.05180       15.5994           0 -0.699000       2.39900    
     11183 FORA     99       FORA     DO1      DRUD     -2.05180      0.400000           0   0.00000       0.00000    
     11184 FORA     99       FORA     HO1      DUMH      0.00000       1.00800           0   0.00000       0.00000    
     11185 FORA     99       FORA     LPO21    LPDO1   -0.380000       0.00000          -1   0.00000       0.00000    
     11186 FORA     99       FORA     LPO22    LPDO1   -0.380000       0.00000          -1   0.00000       0.00000    
     11187 FORA     99       FORA     LPO11    LPDO1   -0.380000       0.00000          -1   0.00000       0.00000    
     11188 FORA     99       FORA     LPO12    LPDO1   -0.380000       0.00000          -1   0.00000       0.00000    
     11189 FORA     100      FORA     C        CD2O2A    2.99370       11.6110           0  -1.01600      0.899000    
     11190 FORA     100      FORA     DC       DRUD     -2.47370      0.400000           0   0.00000       0.00000    
     11191 FORA     100      FORA     H        HDP1C     0.00000       1.00800           0   0.00000       0.00000    
     11192 FORA     100      FORA     O2       OD2C2A    2.05180       15.5994           0 -0.699000       2.39900    
     11193 FORA     100      FORA     DO2      DRUD     -2.05180      0.400000           0   0.00000       0.00000    
     11194 FORA     100      FORA     O1       OD2C2A    2.05180       15.5994           0 -0.699000       2.39900    
     11195 FORA     100      FORA     DO1      DRUD     -2.05180      0.400000           0   0.00000       0.00000    
     11196 FORA     100      FORA     HO1      DUMH      0.00000       1.00800           0   0.00000       0.00000    
     11197 FORA     100      FORA     LPO21    LPDO1   -0.380000       0.00000          -1   0.00000       0.00000    
     11198 FORA     100      FORA     LPO22    LPDO1   -0.380000       0.00000          -1   0.00000       0.00000    
     11199 FORA     100      FORA     LPO11    LPDO1   -0.380000       0.00000          -1   0.00000       0.00000    
     11200 FORA     100      FORA     LPO12    LPDO1   -0.380000       0.00000          -1   0.00000       0.00000    
     11201 FORA     101      FORA     C        CD2O2A    2.99370       11.6110           0  -1.01600      0.899000    
     11202 FORA     101      FORA     DC       DRUD     -2.47370      0.400000           0   0.00000       0.00000    
     11203 FORA     101      FORA     H        HDP1C     0.00000       1.00800           0   0.00000       0.00000    
     11204 FORA     101      FORA     O2       OD2C2A    2.05180       15.5994           0 -0.699000       2.39900    
     11205 FORA     101      FORA     DO2      DRUD     -2.05180      0.400000           0   0.00000       0.00000    
     11206 FORA     101      FORA     O1       OD2C2A    2.05180       15.5994           0 -0.699000       2.39900    
     11207 FORA     101      FORA     DO1      DRUD     -2.05180      0.400000           0   0.00000       0.00000    
     11208 FORA     101      FORA     HO1      DUMH      0.00000       1.00800           0   0.00000       0.00000    
     11209 FORA     101      FORA     LPO21    LPDO1   -0.380000       0.00000          -1   0.00000       0.00000    
     11210 FORA     101      FORA     LPO22    LPDO1   -0.380000       0.00000          -1   0.00000       0.00000    
     11211 FORA     101      FORA     LPO11    LPDO1   -0.380000       0.00000          -1   0.00000       0.00000    
     11212 FORA     101      FORA     LPO12    LPDO1   -0.380000       0.00000          -1   0.00000       0.00000    
     11213 FORA     102      FORA     C        CD2O2A    2.99370       11.6110           0  -1.01600      0.899000    
     11214 FORA     102      FORA     DC       DRUD     -2.47370      0.400000           0   0.00000       0.00000    
     11215 FORA     102      FORA     H        HDP1C     0.00000       1.00800           0   0.00000       0.00000    
     11216 FORA     102      FORA     O2       OD2C2A    2.05180       15.5994           0 -0.699000       2.39900    
     11217 FORA     102      FORA     DO2      DRUD     -2.05180      0.400000           0   0.00000       0.00000    
     11218 FORA     102      FORA     O1       OD2C2A    2.05180       15.5994           0 -0.699000       2.39900    
     11219 FORA     102      FORA     DO1      DRUD     -2.05180      0.400000           0   0.00000       0.00000    
     11220 FORA     102      FORA     HO1      DUMH      0.00000       1.00800           0   0.00000       0.00000    
     11221 FORA     102      FORA     LPO21    LPDO1   -0.380000       0.00000          -1   0.00000       0.00000    
     11222 FORA     102      FORA     LPO22    LPDO1   -0.380000       0.00000          -1   0.00000       0.00000    
     11223 FORA     102      FORA     LPO11    LPDO1   -0.380000       0.00000          -1   0.00000       0.00000    
     11224 FORA     102      FORA     LPO12    LPDO1   -0.380000       0.00000          -1   0.00000       0.00000    
     11225 FORA     103      FORA     C        CD2O2A    2.99370       11.6110           0  -1.01600      0.899000    
     11226 FORA     103      FORA     DC       DRUD     -2.47370      0.400000           0   0.00000       0.00000    
     11227 FORA     103      FORA     H        HDP1C     0.00000       1.00800           0   0.00000       0.00000    
     11228 FORA     103      FORA     O2       OD2C2A    2.05180       15.5994           0 -0.699000       2.39900    
     11229 FORA     103      FORA     DO2      DRUD     -2.05180      0.400000           0   0.00000       0.00000    
     11230 FORA     103      FORA     O1       OD2C2A    2.05180       15.5994           0 -0.699000       2.39900    
     11231 FORA     103      FORA     DO1      DRUD     -2.05180      0.400000           0   0.00000       0.00000    
     11232 FORA     103      FORA     HO1      DUMH      0.00000       1.00800           0   0.00000       0.00000    
     11233 FORA     103      FORA     LPO21    LPDO1   -0.380000       0.00000          -1   0.00000       0.00000    
     11234 FORA     103      FORA     LPO22    LPDO1   -0.380000       0.00000          -1   0.00000       0.00000    
     11235 FORA     103      FORA     LPO11    LPDO1   -0.380000       0.00000          -1   0.00000       0.00000    
     11236 FORA     103      FORA     LPO12    LPDO1   -0.380000       0.00000          -1   0.00000       0.00000    
     11237 FORA     104      FORA     C        CD2O2A    2.99370       11.6110           0  -1.01600      0.899000    
     11238 FORA     104      FORA     DC       DRUD     -2.47370      0.400000           0   0.00000       0.00000    
     11239 FORA     104      FORA     H        HDP1C     0.00000       1.00800           0   0.00000       0.00000    
     11240 FORA     104      FORA     O2       OD2C2A    2.05180       15.5994           0 -0.699000       2.39900    
     11241 FORA     104      FORA     DO2      DRUD     -2.05180      0.400000           0   0.00000       0.00000    
     11242 FORA     104      FORA     O1       OD2C2A    2.05180       15.5994           0 -0.699000       2.39900    
     11243 FORA     104      FORA     DO1      DRUD     -2.05180      0.400000           0   0.00000       0.00000    
     11244 FORA     104      FORA     HO1      DUMH      0.00000       1.00800           0   0.00000       0.00000    
     11245 FORA     104      FORA     LPO21    LPDO1   -0.380000       0.00000          -1   0.00000       0.00000    
     11246 FORA     104      FORA     LPO22    LPDO1   -0.380000       0.00000          -1   0.00000       0.00000    
     11247 FORA     104      FORA     LPO11    LPDO1   -0.380000       0.00000          -1   0.00000       0.00000    
     11248 FORA     104      FORA     LPO12    LPDO1   -0.380000       0.00000          -1   0.00000       0.00000    
     11249 FORA     105      FORA     C        CD2O2A    2.99370       11.6110           0  -1.01600      0.899000    
     11250 FORA     105      FORA     DC       DRUD     -2.47370      0.400000           0   0.00000       0.00000    
     11251 FORA     105      FORA     H        HDP1C     0.00000       1.00800           0   0.00000       0.00000    
     11252 FORA     105      FORA     O2       OD2C2A    2.05180       15.5994           0 -0.699000       2.39900    
     11253 FORA     105      FORA     DO2      DRUD     -2.05180      0.400000           0   0.00000       0.00000    
     11254 FORA     105      FORA     O1       OD2C2A    2.05180       15.5994           0 -0.699000       2.39900    
     11255 FORA     105      FORA     DO1      DRUD     -2.05180      0.400000           0   0.00000       0.00000    
     11256 FORA     105      FORA     HO1      DUMH      0.00000       1.00800           0   0.00000       0.00000    
     11257 FORA     105      FORA     LPO21    LPDO1   -0.380000       0.00000          -1   0.00000       0.00000    
     11258 FORA     105      FORA     LPO22    LPDO1   -0.380000       0.00000          -1   0.00000       0.00000    
     11259 FORA     105      FORA     LPO11    LPDO1   -0.380000       0.00000          -1   0.00000       0.00000    
     11260 FORA     105      FORA     LPO12    LPDO1   -0.380000       0.00000          -1   0.00000       0.00000    
     11261 FORA     106      FORA     C        CD2O2A    2.99370       11.6110           0  -1.01600      0.899000    
     11262 FORA     106      FORA     DC       DRUD     -2.47370      0.400000           0   0.00000       0.00000    
     11263 FORA     106      FORA     H        HDP1C     0.00000       1.00800           0   0.00000       0.00000    
     11264 FORA     106      FORA     O2       OD2C2A    2.05180       15.5994           0 -0.699000       2.39900    
     11265 FORA     106      FORA     DO2      DRUD     -2.05180      0.400000           0   0.00000       0.00000    
     11266 FORA     106      FORA     O1       OD2C2A    2.05180       15.5994           0 -0.699000       2.39900    
     11267 FORA     106      FORA     DO1      DRUD     -2.05180      0.400000           0   0.00000       0.00000    
     11268 FORA     106      FORA     HO1      DUMH      0.00000       1.00800           0   0.00000       0.00000    
     11269 FORA     106      FORA     LPO21    LPDO1   -0.380000       0.00000          -1   0.00000       0.00000    
     11270 FORA     106      FORA     LPO22    LPDO1   -0.380000       0.00000          -1   0.00000       0.00000    
     11271 FORA     106      FORA     LPO11    LPDO1   -0.380000       0.00000          -1   0.00000       0.00000    
     11272 FORA     106      FORA     LPO12    LPDO1   -0.380000       0.00000          -1   0.00000       0.00000    
     11273 FORA     107      FORA     C        CD2O2A    2.99370       11.6110           0  -1.01600      0.899000    
     11274 FORA     107      FORA     DC       DRUD     -2.47370      0.400000           0   0.00000       0.00000    
     11275 FORA     107      FORA     H        HDP1C     0.00000       1.00800           0   0.00000       0.00000    
     11276 FORA     107      FORA     O2       OD2C2A    2.05180       15.5994           0 -0.699000       2.39900    
     11277 FORA     107      FORA     DO2      DRUD     -2.05180      0.400000           0   0.00000       0.00000    
     11278 FORA     107      FORA     O1       OD2C2A    2.05180       15.5994           0 -0.699000       2.39900    
     11279 FORA     107      FORA     DO1      DRUD     -2.05180      0.400000           0   0.00000       0.00000    
     11280 FORA     107      FORA     HO1      DUMH      0.00000       1.00800           0   0.00000       0.00000    
     11281 FORA     107      FORA     LPO21    LPDO1   -0.380000       0.00000          -1   0.00000       0.00000    
     11282 FORA     107      FORA     LPO22    LPDO1   -0.380000       0.00000          -1   0.00000       0.00000    
     11283 FORA     107      FORA     LPO11    LPDO1   -0.380000       0.00000          -1   0.00000       0.00000    
     11284 FORA     107      FORA     LPO12    LPDO1   -0.380000       0.00000          -1   0.00000       0.00000    
     11285 FORA     108      FORA     C        CD2O2A    2.99370       11.6110           0  -1.01600      0.899000    
     11286 FORA     108      FORA     DC       DRUD     -2.47370      0.400000           0   0.00000       0.00000    
     11287 FORA     108      FORA     H        HDP1C     0.00000       1.00800           0   0.00000       0.00000    
     11288 FORA     108      FORA     O2       OD2C2A    2.05180       15.5994           0 -0.699000       2.39900    
     11289 FORA     108      FORA     DO2      DRUD     -2.05180      0.400000           0   0.00000       0.00000    
     11290 FORA     108      FORA     O1       OD2C2A    2.05180       15.5994           0 -0.699000       2.39900    
     11291 FORA     108      FORA     DO1      DRUD     -2.05180      0.400000           0   0.00000       0.00000    
     11292 FORA     108      FORA     HO1      DUMH      0.00000       1.00800           0   0.00000       0.00000    
     11293 FORA     108      FORA     LPO21    LPDO1   -0.380000       0.00000          -1   0.00000       0.00000    
     11294 FORA     108      FORA     LPO22    LPDO1   -0.380000       0.00000          -1   0.00000       0.00000    
     11295 FORA     108      FORA     LPO11    LPDO1   -0.380000       0.00000          -1   0.00000       0.00000    
     11296 FORA     108      FORA     LPO12    LPDO1   -0.380000       0.00000          -1   0.00000       0.00000    
     11297 FORA     109      FORA     C        CD2O2A    2.99370       11.6110           0  -1.01600      0.899000    
     11298 FORA     109      FORA     DC       DRUD     -2.47370      0.400000           0   0.00000       0.00000    
     11299 FORA     109      FORA     H        HDP1C     0.00000       1.00800           0   0.00000       0.00000    
     11300 FORA     109      FORA     O2       OD2C2A    2.05180       15.5994           0 -0.699000       2.39900    
     11301 FORA     109      FORA     DO2      DRUD     -2.05180      0.400000           0   0.00000       0.00000    
     11302 FORA     109      FORA     O1       OD2C2A    2.05180       15.5994           0 -0.699000       2.39900    
     11303 FORA     109      FORA     DO1      DRUD     -2.05180      0.400000           0   0.00000       0.00000    
     11304 FORA     109      FORA     HO1      DUMH      0.00000       1.00800           0   0.00000       0.00000    
     11305 FORA     109      FORA     LPO21    LPDO1   -0.380000       0.00000          -1   0.00000       0.00000    
     11306 FORA     109      FORA     LPO22    LPDO1   -0.380000       0.00000          -1   0.00000       0.00000    
     11307 FORA     109      FORA     LPO11    LPDO1   -0.380000       0.00000          -1   0.00000       0.00000    
     11308 FORA     109      FORA     LPO12    LPDO1   -0.380000       0.00000          -1   0.00000       0.00000    
     11309 FORA     110      FORA     C        CD2O2A    2.99370       11.6110           0  -1.01600      0.899000    
     11310 FORA     110      FORA     DC       DRUD     -2.47370      0.400000           0   0.00000       0.00000    
     11311 FORA     110      FORA     H        HDP1C     0.00000       1.00800           0   0.00000       0.00000    
     11312 FORA     110      FORA     O2       OD2C2A    2.05180       15.5994           0 -0.699000       2.39900    
     11313 FORA     110      FORA     DO2      DRUD     -2.05180      0.400000           0   0.00000       0.00000    
     11314 FORA     110      FORA     O1       OD2C2A    2.05180       15.5994           0 -0.699000       2.39900    
     11315 FORA     110      FORA     DO1      DRUD     -2.05180      0.400000           0   0.00000       0.00000    
     11316 FORA     110      FORA     HO1      DUMH      0.00000       1.00800           0   0.00000       0.00000    
     11317 FORA     110      FORA     LPO21    LPDO1   -0.380000       0.00000          -1   0.00000       0.00000    
     11318 FORA     110      FORA     LPO22    LPDO1   -0.380000       0.00000          -1   0.00000       0.00000    
     11319 FORA     110      FORA     LPO11    LPDO1   -0.380000       0.00000          -1   0.00000       0.00000    
     11320 FORA     110      FORA     LPO12    LPDO1   -0.380000       0.00000          -1   0.00000       0.00000    
     11321 FORA     111      FORA     C        CD2O2A    2.99370       11.6110           0  -1.01600      0.899000    
     11322 FORA     111      FORA     DC       DRUD     -2.47370      0.400000           0   0.00000       0.00000    
     11323 FORA     111      FORA     H        HDP1C     0.00000       1.00800           0   0.00000       0.00000    
     11324 FORA     111      FORA     O2       OD2C2A    2.05180       15.5994           0 -0.699000       2.39900    
     11325 FORA     111      FORA     DO2      DRUD     -2.05180      0.400000           0   0.00000       0.00000    
     11326 FORA     111      FORA     O1       OD2C2A    2.05180       15.5994           0 -0.699000       2.39900    
     11327 FORA     111      FORA     DO1      DRUD     -2.05180      0.400000           0   0.00000       0.00000    
     11328 FORA     111      FORA     HO1      DUMH      0.00000       1.00800           0   0.00000       0.00000    
     11329 FORA     111      FORA     LPO21    LPDO1   -0.380000       0.00000          -1   0.00000       0.00000    
     11330 FORA     111      FORA     LPO22    LPDO1   -0.380000       0.00000          -1   0.00000       0.00000    
     11331 FORA     111      FORA     LPO11    LPDO1   -0.380000       0.00000          -1   0.00000       0.00000    
     11332 FORA     111      FORA     LPO12    LPDO1   -0.380000       0.00000          -1   0.00000       0.00000    
     11333 FORA     112      FORA     C        CD2O2A    2.99370       11.6110           0  -1.01600      0.899000    
     11334 FORA     112      FORA     DC       DRUD     -2.47370      0.400000           0   0.00000       0.00000    
     11335 FORA     112      FORA     H        HDP1C     0.00000       1.00800           0   0.00000       0.00000    
     11336 FORA     112      FORA     O2       OD2C2A    2.05180       15.5994           0 -0.699000       2.39900    
     11337 FORA     112      FORA     DO2      DRUD     -2.05180      0.400000           0   0.00000       0.00000    
     11338 FORA     112      FORA     O1       OD2C2A    2.05180       15.5994           0 -0.699000       2.39900    
     11339 FORA     112      FORA     DO1      DRUD     -2.05180      0.400000           0   0.00000       0.00000    
     11340 FORA     112      FORA     HO1      DUMH      0.00000       1.00800           0   0.00000       0.00000    
     11341 FORA     112      FORA     LPO21    LPDO1   -0.380000       0.00000          -1   0.00000       0.00000    
     11342 FORA     112      FORA     LPO22    LPDO1   -0.380000       0.00000          -1   0.00000       0.00000    
     11343 FORA     112      FORA     LPO11    LPDO1   -0.380000       0.00000          -1   0.00000       0.00000    
     11344 FORA     112      FORA     LPO12    LPDO1   -0.380000       0.00000          -1   0.00000       0.00000    
     11345 FORA     113      FORA     C        CD2O2A    2.99370       11.6110           0  -1.01600      0.899000    
     11346 FORA     113      FORA     DC       DRUD     -2.47370      0.400000           0   0.00000       0.00000    
     11347 FORA     113      FORA     H        HDP1C     0.00000       1.00800           0   0.00000       0.00000    
     11348 FORA     113      FORA     O2       OD2C2A    2.05180       15.5994           0 -0.699000       2.39900    
     11349 FORA     113      FORA     DO2      DRUD     -2.05180      0.400000           0   0.00000       0.00000    
     11350 FORA     113      FORA     O1       OD2C2A    2.05180       15.5994           0 -0.699000       2.39900    
     11351 FORA     113      FORA     DO1      DRUD     -2.05180      0.400000           0   0.00000       0.00000    
     11352 FORA     113      FORA     HO1      DUMH      0.00000       1.00800           0   0.00000       0.00000    
     11353 FORA     113      FORA     LPO21    LPDO1   -0.380000       0.00000          -1   0.00000       0.00000    
     11354 FORA     113      FORA     LPO22    LPDO1   -0.380000       0.00000          -1   0.00000       0.00000    
     11355 FORA     113      FORA     LPO11    LPDO1   -0.380000       0.00000          -1   0.00000       0.00000    
     11356 FORA     113      FORA     LPO12    LPDO1   -0.380000       0.00000          -1   0.00000       0.00000    
     11357 FORA     114      FORA     C        CD2O2A    2.99370       11.6110           0  -1.01600      0.899000    
     11358 FORA     114      FORA     DC       DRUD     -2.47370      0.400000           0   0.00000       0.00000    
     11359 FORA     114      FORA     H        HDP1C     0.00000       1.00800           0   0.00000       0.00000    
     11360 FORA     114      FORA     O2       OD2C2A    2.05180       15.5994           0 -0.699000       2.39900    
     11361 FORA     114      FORA     DO2      DRUD     -2.05180      0.400000           0   0.00000       0.00000    
     11362 FORA     114      FORA     O1       OD2C2A    2.05180       15.5994           0 -0.699000       2.39900    
     11363 FORA     114      FORA     DO1      DRUD     -2.05180      0.400000           0   0.00000       0.00000    
     11364 FORA     114      FORA     HO1      DUMH      0.00000       1.00800           0   0.00000       0.00000    
     11365 FORA     114      FORA     LPO21    LPDO1   -0.380000       0.00000          -1   0.00000       0.00000    
     11366 FORA     114      FORA     LPO22    LPDO1   -0.380000       0.00000          -1   0.00000       0.00000    
     11367 FORA     114      FORA     LPO11    LPDO1   -0.380000       0.00000          -1   0.00000       0.00000    
     11368 FORA     114      FORA     LPO12    LPDO1   -0.380000       0.00000          -1   0.00000       0.00000    
     11369 FORA     115      FORA     C        CD2O2A    2.99370       11.6110           0  -1.01600      0.899000    
     11370 FORA     115      FORA     DC       DRUD     -2.47370      0.400000           0   0.00000       0.00000    
     11371 FORA     115      FORA     H        HDP1C     0.00000       1.00800           0   0.00000       0.00000    
     11372 FORA     115      FORA     O2       OD2C2A    2.05180       15.5994           0 -0.699000       2.39900    
     11373 FORA     115      FORA     DO2      DRUD     -2.05180      0.400000           0   0.00000       0.00000    
     11374 FORA     115      FORA     O1       OD2C2A    2.05180       15.5994           0 -0.699000       2.39900    
     11375 FORA     115      FORA     DO1      DRUD     -2.05180      0.400000           0   0.00000       0.00000    
     11376 FORA     115      FORA     HO1      DUMH      0.00000       1.00800           0   0.00000       0.00000    
     11377 FORA     115      FORA     LPO21    LPDO1   -0.380000       0.00000          -1   0.00000       0.00000    
     11378 FORA     115      FORA     LPO22    LPDO1   -0.380000       0.00000          -1   0.00000       0.00000    
     11379 FORA     115      FORA     LPO11    LPDO1   -0.380000       0.00000          -1   0.00000       0.00000    
     11380 FORA     115      FORA     LPO12    LPDO1   -0.380000       0.00000          -1   0.00000       0.00000    
     11381 FORA     116      FORA     C        CD2O2A    2.99370       11.6110           0  -1.01600      0.899000    
     11382 FORA     116      FORA     DC       DRUD     -2.47370      0.400000           0   0.00000       0.00000    
     11383 FORA     116      FORA     H        HDP1C     0.00000       1.00800           0   0.00000       0.00000    
     11384 FORA     116      FORA     O2       OD2C2A    2.05180       15.5994           0 -0.699000       2.39900    
     11385 FORA     116      FORA     DO2      DRUD     -2.05180      0.400000           0   0.00000       0.00000    
     11386 FORA     116      FORA     O1       OD2C2A    2.05180       15.5994           0 -0.699000       2.39900    
     11387 FORA     116      FORA     DO1      DRUD     -2.05180      0.400000           0   0.00000       0.00000    
     11388 FORA     116      FORA     HO1      DUMH      0.00000       1.00800           0   0.00000       0.00000    
     11389 FORA     116      FORA     LPO21    LPDO1   -0.380000       0.00000          -1   0.00000       0.00000    
     11390 FORA     116      FORA     LPO22    LPDO1   -0.380000       0.00000          -1   0.00000       0.00000    
     11391 FORA     116      FORA     LPO11    LPDO1   -0.380000       0.00000          -1   0.00000       0.00000    
     11392 FORA     116      FORA     LPO12    LPDO1   -0.380000       0.00000          -1   0.00000       0.00000    
     11393 FORA     117      FORA     C        CD2O2A    2.99370       11.6110           0  -1.01600      0.899000    
     11394 FORA     117      FORA     DC       DRUD     -2.47370      0.400000           0   0.00000       0.00000    
     11395 FORA     117      FORA     H        HDP1C     0.00000       1.00800           0   0.00000       0.00000    
     11396 FORA     117      FORA     O2       OD2C2A    2.05180       15.5994           0 -0.699000       2.39900    
     11397 FORA     117      FORA     DO2      DRUD     -2.05180      0.400000           0   0.00000       0.00000    
     11398 FORA     117      FORA     O1       OD2C2A    2.05180       15.5994           0 -0.699000       2.39900    
     11399 FORA     117      FORA     DO1      DRUD     -2.05180      0.400000           0   0.00000       0.00000    
     11400 FORA     117      FORA     HO1      DUMH      0.00000       1.00800           0   0.00000       0.00000    
     11401 FORA     117      FORA     LPO21    LPDO1   -0.380000       0.00000          -1   0.00000       0.00000    
     11402 FORA     117      FORA     LPO22    LPDO1   -0.380000       0.00000          -1   0.00000       0.00000    
     11403 FORA     117      FORA     LPO11    LPDO1   -0.380000       0.00000          -1   0.00000       0.00000    
     11404 FORA     117      FORA     LPO12    LPDO1   -0.380000       0.00000          -1   0.00000       0.00000    
     11405 FORA     118      FORA     C        CD2O2A    2.99370       11.6110           0  -1.01600      0.899000    
     11406 FORA     118      FORA     DC       DRUD     -2.47370      0.400000           0   0.00000       0.00000    
     11407 FORA     118      FORA     H        HDP1C     0.00000       1.00800           0   0.00000       0.00000    
     11408 FORA     118      FORA     O2       OD2C2A    2.05180       15.5994           0 -0.699000       2.39900    
     11409 FORA     118      FORA     DO2      DRUD     -2.05180      0.400000           0   0.00000       0.00000    
     11410 FORA     118      FORA     O1       OD2C2A    2.05180       15.5994           0 -0.699000       2.39900    
     11411 FORA     118      FORA     DO1      DRUD     -2.05180      0.400000           0   0.00000       0.00000    
     11412 FORA     118      FORA     HO1      DUMH      0.00000       1.00800           0   0.00000       0.00000    
     11413 FORA     118      FORA     LPO21    LPDO1   -0.380000       0.00000          -1   0.00000       0.00000    
     11414 FORA     118      FORA     LPO22    LPDO1   -0.380000       0.00000          -1   0.00000       0.00000    
     11415 FORA     118      FORA     LPO11    LPDO1   -0.380000       0.00000          -1   0.00000       0.00000    
     11416 FORA     118      FORA     LPO12    LPDO1   -0.380000       0.00000          -1   0.00000       0.00000    
     11417 FORA     119      FORA     C        CD2O2A    2.99370       11.6110           0  -1.01600      0.899000    
     11418 FORA     119      FORA     DC       DRUD     -2.47370      0.400000           0   0.00000       0.00000    
     11419 FORA     119      FORA     H        HDP1C     0.00000       1.00800           0   0.00000       0.00000    
     11420 FORA     119      FORA     O2       OD2C2A    2.05180       15.5994           0 -0.699000       2.39900    
     11421 FORA     119      FORA     DO2      DRUD     -2.05180      0.400000           0   0.00000       0.00000    
     11422 FORA     119      FORA     O1       OD2C2A    2.05180       15.5994           0 -0.699000       2.39900    
     11423 FORA     119      FORA     DO1      DRUD     -2.05180      0.400000           0   0.00000       0.00000    
     11424 FORA     119      FORA     HO1      DUMH      0.00000       1.00800           0   0.00000       0.00000    
     11425 FORA     119      FORA     LPO21    LPDO1   -0.380000       0.00000          -1   0.00000       0.00000    
     11426 FORA     119      FORA     LPO22    LPDO1   -0.380000       0.00000          -1   0.00000       0.00000    
     11427 FORA     119      FORA     LPO11    LPDO1   -0.380000       0.00000          -1   0.00000       0.00000    
     11428 FORA     119      FORA     LPO12    LPDO1   -0.380000       0.00000          -1   0.00000       0.00000    
     11429 FORA     120      FORA     C        CD2O2A    2.99370       11.6110           0  -1.01600      0.899000    
     11430 FORA     120      FORA     DC       DRUD     -2.47370      0.400000           0   0.00000       0.00000    
     11431 FORA     120      FORA     H        HDP1C     0.00000       1.00800           0   0.00000       0.00000    
     11432 FORA     120      FORA     O2       OD2C2A    2.05180       15.5994           0 -0.699000       2.39900    
     11433 FORA     120      FORA     DO2      DRUD     -2.05180      0.400000           0   0.00000       0.00000    
     11434 FORA     120      FORA     O1       OD2C2A    2.05180       15.5994           0 -0.699000       2.39900    
     11435 FORA     120      FORA     DO1      DRUD     -2.05180      0.400000           0   0.00000       0.00000    
     11436 FORA     120      FORA     HO1      DUMH      0.00000       1.00800           0   0.00000       0.00000    
     11437 FORA     120      FORA     LPO21    LPDO1   -0.380000       0.00000          -1   0.00000       0.00000    
     11438 FORA     120      FORA     LPO22    LPDO1   -0.380000       0.00000          -1   0.00000       0.00000    
     11439 FORA     120      FORA     LPO11    LPDO1   -0.380000       0.00000          -1   0.00000       0.00000    
     11440 FORA     120      FORA     LPO12    LPDO1   -0.380000       0.00000          -1   0.00000       0.00000    
     11441 FORA     121      FORA     C        CD2O2A    2.99370       11.6110           0  -1.01600      0.899000    
     11442 FORA     121      FORA     DC       DRUD     -2.47370      0.400000           0   0.00000       0.00000    
     11443 FORA     121      FORA     H        HDP1C     0.00000       1.00800           0   0.00000       0.00000    
     11444 FORA     121      FORA     O2       OD2C2A    2.05180       15.5994           0 -0.699000       2.39900    
     11445 FORA     121      FORA     DO2      DRUD     -2.05180      0.400000           0   0.00000       0.00000    
     11446 FORA     121      FORA     O1       OD2C2A    2.05180       15.5994           0 -0.699000       2.39900    
     11447 FORA     121      FORA     DO1      DRUD     -2.05180      0.400000           0   0.00000       0.00000    
     11448 FORA     121      FORA     HO1      DUMH      0.00000       1.00800           0   0.00000       0.00000    
     11449 FORA     121      FORA     LPO21    LPDO1   -0.380000       0.00000          -1   0.00000       0.00000    
     11450 FORA     121      FORA     LPO22    LPDO1   -0.380000       0.00000          -1   0.00000       0.00000    
     11451 FORA     121      FORA     LPO11    LPDO1   -0.380000       0.00000          -1   0.00000       0.00000    
     11452 FORA     121      FORA     LPO12    LPDO1   -0.380000       0.00000          -1   0.00000       0.00000    
     11453 FORA     122      FORA     C        CD2O2A    2.99370       11.6110           0  -1.01600      0.899000    
     11454 FORA     122      FORA     DC       DRUD     -2.47370      0.400000           0   0.00000       0.00000    
     11455 FORA     122      FORA     H        HDP1C     0.00000       1.00800           0   0.00000       0.00000    
     11456 FORA     122      FORA     O2       OD2C2A    2.05180       15.5994           0 -0.699000       2.39900    
     11457 FORA     122      FORA     DO2      DRUD     -2.05180      0.400000           0   0.00000       0.00000    
     11458 FORA     122      FORA     O1       OD2C2A    2.05180       15.5994           0 -0.699000       2.39900    
     11459 FORA     122      FORA     DO1      DRUD     -2.05180      0.400000           0   0.00000       0.00000    
     11460 FORA     122      FORA     HO1      DUMH      0.00000       1.00800           0   0.00000       0.00000    
     11461 FORA     122      FORA     LPO21    LPDO1   -0.380000       0.00000          -1   0.00000       0.00000    
     11462 FORA     122      FORA     LPO22    LPDO1   -0.380000       0.00000          -1   0.00000       0.00000    
     11463 FORA     122      FORA     LPO11    LPDO1   -0.380000       0.00000          -1   0.00000       0.00000    
     11464 FORA     122      FORA     LPO12    LPDO1   -0.380000       0.00000          -1   0.00000       0.00000    
     11465 FORA     123      FORA     C        CD2O2A    2.99370       11.6110           0  -1.01600      0.899000    
     11466 FORA     123      FORA     DC       DRUD     -2.47370      0.400000           0   0.00000       0.00000    
     11467 FORA     123      FORA     H        HDP1C     0.00000       1.00800           0   0.00000       0.00000    
     11468 FORA     123      FORA     O2       OD2C2A    2.05180       15.5994           0 -0.699000       2.39900    
     11469 FORA     123      FORA     DO2      DRUD     -2.05180      0.400000           0   0.00000       0.00000    
     11470 FORA     123      FORA     O1       OD2C2A    2.05180       15.5994           0 -0.699000       2.39900    
     11471 FORA     123      FORA     DO1      DRUD     -2.05180      0.400000           0   0.00000       0.00000    
     11472 FORA     123      FORA     HO1      DUMH      0.00000       1.00800           0   0.00000       0.00000    
     11473 FORA     123      FORA     LPO21    LPDO1   -0.380000       0.00000          -1   0.00000       0.00000    
     11474 FORA     123      FORA     LPO22    LPDO1   -0.380000       0.00000          -1   0.00000       0.00000    
     11475 FORA     123      FORA     LPO11    LPDO1   -0.380000       0.00000          -1   0.00000       0.00000    
     11476 FORA     123      FORA     LPO12    LPDO1   -0.380000       0.00000          -1   0.00000       0.00000    
     11477 FORA     124      FORA     C        CD2O2A    2.99370       11.6110           0  -1.01600      0.899000    
     11478 FORA     124      FORA     DC       DRUD     -2.47370      0.400000           0   0.00000       0.00000    
     11479 FORA     124      FORA     H        HDP1C     0.00000       1.00800           0   0.00000       0.00000    
     11480 FORA     124      FORA     O2       OD2C2A    2.05180       15.5994           0 -0.699000       2.39900    
     11481 FORA     124      FORA     DO2      DRUD     -2.05180      0.400000           0   0.00000       0.00000    
     11482 FORA     124      FORA     O1       OD2C2A    2.05180       15.5994           0 -0.699000       2.39900    
     11483 FORA     124      FORA     DO1      DRUD     -2.05180      0.400000           0   0.00000       0.00000    
     11484 FORA     124      FORA     HO1      DUMH      0.00000       1.00800           0   0.00000       0.00000    
     11485 FORA     124      FORA     LPO21    LPDO1   -0.380000       0.00000          -1   0.00000       0.00000    
     11486 FORA     124      FORA     LPO22    LPDO1   -0.380000       0.00000          -1   0.00000       0.00000    
     11487 FORA     124      FORA     LPO11    LPDO1   -0.380000       0.00000          -1   0.00000       0.00000    
     11488 FORA     124      FORA     LPO12    LPDO1   -0.380000       0.00000          -1   0.00000       0.00000    
     11489 FORA     125      FORA     C        CD2O2A    2.99370       11.6110           0  -1.01600      0.899000    
     11490 FORA     125      FORA     DC       DRUD     -2.47370      0.400000           0   0.00000       0.00000    
     11491 FORA     125      FORA     H        HDP1C     0.00000       1.00800           0   0.00000       0.00000    
     11492 FORA     125      FORA     O2       OD2C2A    2.05180       15.5994           0 -0.699000       2.39900    
     11493 FORA     125      FORA     DO2      DRUD     -2.05180      0.400000           0   0.00000       0.00000    
     11494 FORA     125      FORA     O1       OD2C2A    2.05180       15.5994           0 -0.699000       2.39900    
     11495 FORA     125      FORA     DO1      DRUD     -2.05180      0.400000           0   0.00000       0.00000    
     11496 FORA     125      FORA     HO1      DUMH      0.00000       1.00800           0   0.00000       0.00000    
     11497 FORA     125      FORA     LPO21    LPDO1   -0.380000       0.00000          -1   0.00000       0.00000    
     11498 FORA     125      FORA     LPO22    LPDO1   -0.380000       0.00000          -1   0.00000       0.00000    
     11499 FORA     125      FORA     LPO11    LPDO1   -0.380000       0.00000          -1   0.00000       0.00000    
     11500 FORA     125      FORA     LPO12    LPDO1   -0.380000       0.00000          -1   0.00000       0.00000    
     11501 FORA     126      FORA     C        CD2O2A    2.99370       11.6110           0  -1.01600      0.899000    
     11502 FORA     126      FORA     DC       DRUD     -2.47370      0.400000           0   0.00000       0.00000    
     11503 FORA     126      FORA     H        HDP1C     0.00000       1.00800           0   0.00000       0.00000    
     11504 FORA     126      FORA     O2       OD2C2A    2.05180       15.5994           0 -0.699000       2.39900    
     11505 FORA     126      FORA     DO2      DRUD     -2.05180      0.400000           0   0.00000       0.00000    
     11506 FORA     126      FORA     O1       OD2C2A    2.05180       15.5994           0 -0.699000       2.39900    
     11507 FORA     126      FORA     DO1      DRUD     -2.05180      0.400000           0   0.00000       0.00000    
     11508 FORA     126      FORA     HO1      DUMH      0.00000       1.00800           0   0.00000       0.00000    
     11509 FORA     126      FORA     LPO21    LPDO1   -0.380000       0.00000          -1   0.00000       0.00000    
     11510 FORA     126      FORA     LPO22    LPDO1   -0.380000       0.00000          -1   0.00000       0.00000    
     11511 FORA     126      FORA     LPO11    LPDO1   -0.380000       0.00000          -1   0.00000       0.00000    
     11512 FORA     126      FORA     LPO12    LPDO1   -0.380000       0.00000          -1   0.00000       0.00000    
     11513 FORA     127      FORA     C        CD2O2A    2.99370       11.6110           0  -1.01600      0.899000    
     11514 FORA     127      FORA     DC       DRUD     -2.47370      0.400000           0   0.00000       0.00000    
     11515 FORA     127      FORA     H        HDP1C     0.00000       1.00800           0   0.00000       0.00000    
     11516 FORA     127      FORA     O2       OD2C2A    2.05180       15.5994           0 -0.699000       2.39900    
     11517 FORA     127      FORA     DO2      DRUD     -2.05180      0.400000           0   0.00000       0.00000    
     11518 FORA     127      FORA     O1       OD2C2A    2.05180       15.5994           0 -0.699000       2.39900    
     11519 FORA     127      FORA     DO1      DRUD     -2.05180      0.400000           0   0.00000       0.00000    
     11520 FORA     127      FORA     HO1      DUMH      0.00000       1.00800           0   0.00000       0.00000    
     11521 FORA     127      FORA     LPO21    LPDO1   -0.380000       0.00000          -1   0.00000       0.00000    
     11522 FORA     127      FORA     LPO22    LPDO1   -0.380000       0.00000          -1   0.00000       0.00000    
     11523 FORA     127      FORA     LPO11    LPDO1   -0.380000       0.00000          -1   0.00000       0.00000    
     11524 FORA     127      FORA     LPO12    LPDO1   -0.380000       0.00000          -1   0.00000       0.00000    
     11525 FORA     128      FORA     C        CD2O2A    2.99370       11.6110           0  -1.01600      0.899000    
     11526 FORA     128      FORA     DC       DRUD     -2.47370      0.400000           0   0.00000       0.00000    
     11527 FORA     128      FORA     H        HDP1C     0.00000       1.00800           0   0.00000       0.00000    
     11528 FORA     128      FORA     O2       OD2C2A    2.05180       15.5994           0 -0.699000       2.39900    
     11529 FORA     128      FORA     DO2      DRUD     -2.05180      0.400000           0   0.00000       0.00000    
     11530 FORA     128      FORA     O1       OD2C2A    2.05180       15.5994           0 -0.699000       2.39900    
     11531 FORA     128      FORA     DO1      DRUD     -2.05180      0.400000           0   0.00000       0.00000    
     11532 FORA     128      FORA     HO1      DUMH      0.00000       1.00800           0   0.00000       0.00000    
     11533 FORA     128      FORA     LPO21    LPDO1   -0.380000       0.00000          -1   0.00000       0.00000    
     11534 FORA     128      FORA     LPO22    LPDO1   -0.380000       0.00000          -1   0.00000       0.00000    
     11535 FORA     128      FORA     LPO11    LPDO1   -0.380000       0.00000          -1   0.00000       0.00000    
     11536 FORA     128      FORA     LPO12    LPDO1   -0.380000       0.00000          -1   0.00000       0.00000    
     11537 FORA     129      FORA     C        CD2O2A    2.99370       11.6110           0  -1.01600      0.899000    
     11538 FORA     129      FORA     DC       DRUD     -2.47370      0.400000           0   0.00000       0.00000    
     11539 FORA     129      FORA     H        HDP1C     0.00000       1.00800           0   0.00000       0.00000    
     11540 FORA     129      FORA     O2       OD2C2A    2.05180       15.5994           0 -0.699000       2.39900    
     11541 FORA     129      FORA     DO2      DRUD     -2.05180      0.400000           0   0.00000       0.00000    
     11542 FORA     129      FORA     O1       OD2C2A    2.05180       15.5994           0 -0.699000       2.39900    
     11543 FORA     129      FORA     DO1      DRUD     -2.05180      0.400000           0   0.00000       0.00000    
     11544 FORA     129      FORA     HO1      DUMH      0.00000       1.00800           0   0.00000       0.00000    
     11545 FORA     129      FORA     LPO21    LPDO1   -0.380000       0.00000          -1   0.00000       0.00000    
     11546 FORA     129      FORA     LPO22    LPDO1   -0.380000       0.00000          -1   0.00000       0.00000    
     11547 FORA     129      FORA     LPO11    LPDO1   -0.380000       0.00000          -1   0.00000       0.00000    
     11548 FORA     129      FORA     LPO12    LPDO1   -0.380000       0.00000          -1   0.00000       0.00000    
     11549 FORA     130      FORA     C        CD2O2A    2.99370       11.6110           0  -1.01600      0.899000    
     11550 FORA     130      FORA     DC       DRUD     -2.47370      0.400000           0   0.00000       0.00000    
     11551 FORA     130      FORA     H        HDP1C     0.00000       1.00800           0   0.00000       0.00000    
     11552 FORA     130      FORA     O2       OD2C2A    2.05180       15.5994           0 -0.699000       2.39900    
     11553 FORA     130      FORA     DO2      DRUD     -2.05180      0.400000           0   0.00000       0.00000    
     11554 FORA     130      FORA     O1       OD2C2A    2.05180       15.5994           0 -0.699000       2.39900    
     11555 FORA     130      FORA     DO1      DRUD     -2.05180      0.400000           0   0.00000       0.00000    
     11556 FORA     130      FORA     HO1      DUMH      0.00000       1.00800           0   0.00000       0.00000    
     11557 FORA     130      FORA     LPO21    LPDO1   -0.380000       0.00000          -1   0.00000       0.00000    
     11558 FORA     130      FORA     LPO22    LPDO1   -0.380000       0.00000          -1   0.00000       0.00000    
     11559 FORA     130      FORA     LPO11    LPDO1   -0.380000       0.00000          -1   0.00000       0.00000    
     11560 FORA     130      FORA     LPO12    LPDO1   -0.380000       0.00000          -1   0.00000       0.00000    
     11561 FORA     131      FORA     C        CD2O2A    2.99370       11.6110           0  -1.01600      0.899000    
     11562 FORA     131      FORA     DC       DRUD     -2.47370      0.400000           0   0.00000       0.00000    
     11563 FORA     131      FORA     H        HDP1C     0.00000       1.00800           0   0.00000       0.00000    
     11564 FORA     131      FORA     O2       OD2C2A    2.05180       15.5994           0 -0.699000       2.39900    
     11565 FORA     131      FORA     DO2      DRUD     -2.05180      0.400000           0   0.00000       0.00000    
     11566 FORA     131      FORA     O1       OD2C2A    2.05180       15.5994           0 -0.699000       2.39900    
     11567 FORA     131      FORA     DO1      DRUD     -2.05180      0.400000           0   0.00000       0.00000    
     11568 FORA     131      FORA     HO1      DUMH      0.00000       1.00800           0   0.00000       0.00000    
     11569 FORA     131      FORA     LPO21    LPDO1   -0.380000       0.00000          -1   0.00000       0.00000    
     11570 FORA     131      FORA     LPO22    LPDO1   -0.380000       0.00000          -1   0.00000       0.00000    
     11571 FORA     131      FORA     LPO11    LPDO1   -0.380000       0.00000          -1   0.00000       0.00000    
     11572 FORA     131      FORA     LPO12    LPDO1   -0.380000       0.00000          -1   0.00000       0.00000    
     11573 FORA     132      FORA     C        CD2O2A    2.99370       11.6110           0  -1.01600      0.899000    
     11574 FORA     132      FORA     DC       DRUD     -2.47370      0.400000           0   0.00000       0.00000    
     11575 FORA     132      FORA     H        HDP1C     0.00000       1.00800           0   0.00000       0.00000    
     11576 FORA     132      FORA     O2       OD2C2A    2.05180       15.5994           0 -0.699000       2.39900    
     11577 FORA     132      FORA     DO2      DRUD     -2.05180      0.400000           0   0.00000       0.00000    
     11578 FORA     132      FORA     O1       OD2C2A    2.05180       15.5994           0 -0.699000       2.39900    
     11579 FORA     132      FORA     DO1      DRUD     -2.05180      0.400000           0   0.00000       0.00000    
     11580 FORA     132      FORA     HO1      DUMH      0.00000       1.00800           0   0.00000       0.00000    
     11581 FORA     132      FORA     LPO21    LPDO1   -0.380000       0.00000          -1   0.00000       0.00000    
     11582 FORA     132      FORA     LPO22    LPDO1   -0.380000       0.00000          -1   0.00000       0.00000    
     11583 FORA     132      FORA     LPO11    LPDO1   -0.380000       0.00000          -1   0.00000       0.00000    
     11584 FORA     132      FORA     LPO12    LPDO1   -0.380000       0.00000          -1   0.00000       0.00000    
     11585 FORA     133      FORA     C        CD2O2A    2.99370       11.6110           0  -1.01600      0.899000    
     11586 FORA     133      FORA     DC       DRUD     -2.47370      0.400000           0   0.00000       0.00000    
     11587 FORA     133      FORA     H        HDP1C     0.00000       1.00800           0   0.00000       0.00000    
     11588 FORA     133      FORA     O2       OD2C2A    2.05180       15.5994           0 -0.699000       2.39900    
     11589 FORA     133      FORA     DO2      DRUD     -2.05180      0.400000           0   0.00000       0.00000    
     11590 FORA     133      FORA     O1       OD2C2A    2.05180       15.5994           0 -0.699000       2.39900    
     11591 FORA     133      FORA     DO1      DRUD     -2.05180      0.400000           0   0.00000       0.00000    
     11592 FORA     133      FORA     HO1      DUMH      0.00000       1.00800           0   0.00000       0.00000    
     11593 FORA     133      FORA     LPO21    LPDO1   -0.380000       0.00000          -1   0.00000       0.00000    
     11594 FORA     133      FORA     LPO22    LPDO1   -0.380000       0.00000          -1   0.00000       0.00000    
     11595 FORA     133      FORA     LPO11    LPDO1   -0.380000       0.00000          -1   0.00000       0.00000    
     11596 FORA     133      FORA     LPO12    LPDO1   -0.380000       0.00000          -1   0.00000       0.00000    
     11597 FORA     134      FORA     C        CD2O2A    2.99370       11.6110           0  -1.01600      0.899000    
     11598 FORA     134      FORA     DC       DRUD     -2.47370      0.400000           0   0.00000       0.00000    
     11599 FORA     134      FORA     H        HDP1C     0.00000       1.00800           0   0.00000       0.00000    
     11600 FORA     134      FORA     O2       OD2C2A    2.05180       15.5994           0 -0.699000       2.39900    
     11601 FORA     134      FORA     DO2      DRUD     -2.05180      0.400000           0   0.00000       0.00000    
     11602 FORA     134      FORA     O1       OD2C2A    2.05180       15.5994           0 -0.699000       2.39900    
     11603 FORA     134      FORA     DO1      DRUD     -2.05180      0.400000           0   0.00000       0.00000    
     11604 FORA     134      FORA     HO1      DUMH      0.00000       1.00800           0   0.00000       0.00000    
     11605 FORA     134      FORA     LPO21    LPDO1   -0.380000       0.00000          -1   0.00000       0.00000    
     11606 FORA     134      FORA     LPO22    LPDO1   -0.380000       0.00000          -1   0.00000       0.00000    
     11607 FORA     134      FORA     LPO11    LPDO1   -0.380000       0.00000          -1   0.00000       0.00000    
     11608 FORA     134      FORA     LPO12    LPDO1   -0.380000       0.00000          -1   0.00000       0.00000    
     11609 FORA     135      FORA     C        CD2O2A    2.99370       11.6110           0  -1.01600      0.899000    
     11610 FORA     135      FORA     DC       DRUD     -2.47370      0.400000           0   0.00000       0.00000    
     11611 FORA     135      FORA     H        HDP1C     0.00000       1.00800           0   0.00000       0.00000    
     11612 FORA     135      FORA     O2       OD2C2A    2.05180       15.5994           0 -0.699000       2.39900    
     11613 FORA     135      FORA     DO2      DRUD     -2.05180      0.400000           0   0.00000       0.00000    
     11614 FORA     135      FORA     O1       OD2C2A    2.05180       15.5994           0 -0.699000       2.39900    
     11615 FORA     135      FORA     DO1      DRUD     -2.05180      0.400000           0   0.00000       0.00000    
     11616 FORA     135      FORA     HO1      DUMH      0.00000       1.00800           0   0.00000       0.00000    
     11617 FORA     135      FORA     LPO21    LPDO1   -0.380000       0.00000          -1   0.00000       0.00000    
     11618 FORA     135      FORA     LPO22    LPDO1   -0.380000       0.00000          -1   0.00000       0.00000    
     11619 FORA     135      FORA     LPO11    LPDO1   -0.380000       0.00000          -1   0.00000       0.00000    
     11620 FORA     135      FORA     LPO12    LPDO1   -0.380000       0.00000          -1   0.00000       0.00000    
     11621 FORA     136      FORA     C        CD2O2A    2.99370       11.6110           0  -1.01600      0.899000    
     11622 FORA     136      FORA     DC       DRUD     -2.47370      0.400000           0   0.00000       0.00000    
     11623 FORA     136      FORA     H        HDP1C     0.00000       1.00800           0   0.00000       0.00000    
     11624 FORA     136      FORA     O2       OD2C2A    2.05180       15.5994           0 -0.699000       2.39900    
     11625 FORA     136      FORA     DO2      DRUD     -2.05180      0.400000           0   0.00000       0.00000    
     11626 FORA     136      FORA     O1       OD2C2A    2.05180       15.5994           0 -0.699000       2.39900    
     11627 FORA     136      FORA     DO1      DRUD     -2.05180      0.400000           0   0.00000       0.00000    
     11628 FORA     136      FORA     HO1      DUMH      0.00000       1.00800           0   0.00000       0.00000    
     11629 FORA     136      FORA     LPO21    LPDO1   -0.380000       0.00000          -1   0.00000       0.00000    
     11630 FORA     136      FORA     LPO22    LPDO1   -0.380000       0.00000          -1   0.00000       0.00000    
     11631 FORA     136      FORA     LPO11    LPDO1   -0.380000       0.00000          -1   0.00000       0.00000    
     11632 FORA     136      FORA     LPO12    LPDO1   -0.380000       0.00000          -1   0.00000       0.00000    
     11633 FORA     137      FORA     C        CD2O2A    2.99370       11.6110           0  -1.01600      0.899000    
     11634 FORA     137      FORA     DC       DRUD     -2.47370      0.400000           0   0.00000       0.00000    
     11635 FORA     137      FORA     H        HDP1C     0.00000       1.00800           0   0.00000       0.00000    
     11636 FORA     137      FORA     O2       OD2C2A    2.05180       15.5994           0 -0.699000       2.39900    
     11637 FORA     137      FORA     DO2      DRUD     -2.05180      0.400000           0   0.00000       0.00000    
     11638 FORA     137      FORA     O1       OD2C2A    2.05180       15.5994           0 -0.699000       2.39900    
     11639 FORA     137      FORA     DO1      DRUD     -2.05180      0.400000           0   0.00000       0.00000    
     11640 FORA     137      FORA     HO1      DUMH      0.00000       1.00800           0   0.00000       0.00000    
     11641 FORA     137      FORA     LPO21    LPDO1   -0.380000       0.00000          -1   0.00000       0.00000    
     11642 FORA     137      FORA     LPO22    LPDO1   -0.380000       0.00000          -1   0.00000       0.00000    
     11643 FORA     137      FORA     LPO11    LPDO1   -0.380000       0.00000          -1   0.00000       0.00000    
     11644 FORA     137      FORA     LPO12    LPDO1   -0.380000       0.00000          -1   0.00000       0.00000    
     11645 FORA     138      FORA     C        CD2O2A    2.99370       11.6110           0  -1.01600      0.899000    
     11646 FORA     138      FORA     DC       DRUD     -2.47370      0.400000           0   0.00000       0.00000    
     11647 FORA     138      FORA     H        HDP1C     0.00000       1.00800           0   0.00000       0.00000    
     11648 FORA     138      FORA     O2       OD2C2A    2.05180       15.5994           0 -0.699000       2.39900    
     11649 FORA     138      FORA     DO2      DRUD     -2.05180      0.400000           0   0.00000       0.00000    
     11650 FORA     138      FORA     O1       OD2C2A    2.05180       15.5994           0 -0.699000       2.39900    
     11651 FORA     138      FORA     DO1      DRUD     -2.05180      0.400000           0   0.00000       0.00000    
     11652 FORA     138      FORA     HO1      DUMH      0.00000       1.00800           0   0.00000       0.00000    
     11653 FORA     138      FORA     LPO21    LPDO1   -0.380000       0.00000          -1   0.00000       0.00000    
     11654 FORA     138      FORA     LPO22    LPDO1   -0.380000       0.00000          -1   0.00000       0.00000    
     11655 FORA     138      FORA     LPO11    LPDO1   -0.380000       0.00000          -1   0.00000       0.00000    
     11656 FORA     138      FORA     LPO12    LPDO1   -0.380000       0.00000          -1   0.00000       0.00000    
     11657 FORA     139      FORA     C        CD2O2A    2.99370       11.6110           0  -1.01600      0.899000    
     11658 FORA     139      FORA     DC       DRUD     -2.47370      0.400000           0   0.00000       0.00000    
     11659 FORA     139      FORA     H        HDP1C     0.00000       1.00800           0   0.00000       0.00000    
     11660 FORA     139      FORA     O2       OD2C2A    2.05180       15.5994           0 -0.699000       2.39900    
     11661 FORA     139      FORA     DO2      DRUD     -2.05180      0.400000           0   0.00000       0.00000    
     11662 FORA     139      FORA     O1       OD2C2A    2.05180       15.5994           0 -0.699000       2.39900    
     11663 FORA     139      FORA     DO1      DRUD     -2.05180      0.400000           0   0.00000       0.00000    
     11664 FORA     139      FORA     HO1      DUMH      0.00000       1.00800           0   0.00000       0.00000    
     11665 FORA     139      FORA     LPO21    LPDO1   -0.380000       0.00000          -1   0.00000       0.00000    
     11666 FORA     139      FORA     LPO22    LPDO1   -0.380000       0.00000          -1   0.00000       0.00000    
     11667 FORA     139      FORA     LPO11    LPDO1   -0.380000       0.00000          -1   0.00000       0.00000    
     11668 FORA     139      FORA     LPO12    LPDO1   -0.380000       0.00000          -1   0.00000       0.00000    
     11669 FORA     140      FORA     C        CD2O2A    2.99370       11.6110           0  -1.01600      0.899000    
     11670 FORA     140      FORA     DC       DRUD     -2.47370      0.400000           0   0.00000       0.00000    
     11671 FORA     140      FORA     H        HDP1C     0.00000       1.00800           0   0.00000       0.00000    
     11672 FORA     140      FORA     O2       OD2C2A    2.05180       15.5994           0 -0.699000       2.39900    
     11673 FORA     140      FORA     DO2      DRUD     -2.05180      0.400000           0   0.00000       0.00000    
     11674 FORA     140      FORA     O1       OD2C2A    2.05180       15.5994           0 -0.699000       2.39900    
     11675 FORA     140      FORA     DO1      DRUD     -2.05180      0.400000           0   0.00000       0.00000    
     11676 FORA     140      FORA     HO1      DUMH      0.00000       1.00800           0   0.00000       0.00000    
     11677 FORA     140      FORA     LPO21    LPDO1   -0.380000       0.00000          -1   0.00000       0.00000    
     11678 FORA     140      FORA     LPO22    LPDO1   -0.380000       0.00000          -1   0.00000       0.00000    
     11679 FORA     140      FORA     LPO11    LPDO1   -0.380000       0.00000          -1   0.00000       0.00000    
     11680 FORA     140      FORA     LPO12    LPDO1   -0.380000       0.00000          -1   0.00000       0.00000    
     11681 FORA     141      FORA     C        CD2O2A    2.99370       11.6110           0  -1.01600      0.899000    
     11682 FORA     141      FORA     DC       DRUD     -2.47370      0.400000           0   0.00000       0.00000    
     11683 FORA     141      FORA     H        HDP1C     0.00000       1.00800           0   0.00000       0.00000    
     11684 FORA     141      FORA     O2       OD2C2A    2.05180       15.5994           0 -0.699000       2.39900    
     11685 FORA     141      FORA     DO2      DRUD     -2.05180      0.400000           0   0.00000       0.00000    
     11686 FORA     141      FORA     O1       OD2C2A    2.05180       15.5994           0 -0.699000       2.39900    
     11687 FORA     141      FORA     DO1      DRUD     -2.05180      0.400000           0   0.00000       0.00000    
     11688 FORA     141      FORA     HO1      DUMH      0.00000       1.00800           0   0.00000       0.00000    
     11689 FORA     141      FORA     LPO21    LPDO1   -0.380000       0.00000          -1   0.00000       0.00000    
     11690 FORA     141      FORA     LPO22    LPDO1   -0.380000       0.00000          -1   0.00000       0.00000    
     11691 FORA     141      FORA     LPO11    LPDO1   -0.380000       0.00000          -1   0.00000       0.00000    
     11692 FORA     141      FORA     LPO12    LPDO1   -0.380000       0.00000          -1   0.00000       0.00000    
     11693 FORA     142      FORA     C        CD2O2A    2.99370       11.6110           0  -1.01600      0.899000    
     11694 FORA     142      FORA     DC       DRUD     -2.47370      0.400000           0   0.00000       0.00000    
     11695 FORA     142      FORA     H        HDP1C     0.00000       1.00800           0   0.00000       0.00000    
     11696 FORA     142      FORA     O2       OD2C2A    2.05180       15.5994           0 -0.699000       2.39900    
     11697 FORA     142      FORA     DO2      DRUD     -2.05180      0.400000           0   0.00000       0.00000    
     11698 FORA     142      FORA     O1       OD2C2A    2.05180       15.5994           0 -0.699000       2.39900    
     11699 FORA     142      FORA     DO1      DRUD     -2.05180      0.400000           0   0.00000       0.00000    
     11700 FORA     142      FORA     HO1      DUMH      0.00000       1.00800           0   0.00000       0.00000    
     11701 FORA     142      FORA     LPO21    LPDO1   -0.380000       0.00000          -1   0.00000       0.00000    
     11702 FORA     142      FORA     LPO22    LPDO1   -0.380000       0.00000          -1   0.00000       0.00000    
     11703 FORA     142      FORA     LPO11    LPDO1   -0.380000       0.00000          -1   0.00000       0.00000    
     11704 FORA     142      FORA     LPO12    LPDO1   -0.380000       0.00000          -1   0.00000       0.00000    
     11705 FORA     143      FORA     C        CD2O2A    2.99370       11.6110           0  -1.01600      0.899000    
     11706 FORA     143      FORA     DC       DRUD     -2.47370      0.400000           0   0.00000       0.00000    
     11707 FORA     143      FORA     H        HDP1C     0.00000       1.00800           0   0.00000       0.00000    
     11708 FORA     143      FORA     O2       OD2C2A    2.05180       15.5994           0 -0.699000       2.39900    
     11709 FORA     143      FORA     DO2      DRUD     -2.05180      0.400000           0   0.00000       0.00000    
     11710 FORA     143      FORA     O1       OD2C2A    2.05180       15.5994           0 -0.699000       2.39900    
     11711 FORA     143      FORA     DO1      DRUD     -2.05180      0.400000           0   0.00000       0.00000    
     11712 FORA     143      FORA     HO1      DUMH      0.00000       1.00800           0   0.00000       0.00000    
     11713 FORA     143      FORA     LPO21    LPDO1   -0.380000       0.00000          -1   0.00000       0.00000    
     11714 FORA     143      FORA     LPO22    LPDO1   -0.380000       0.00000          -1   0.00000       0.00000    
     11715 FORA     143      FORA     LPO11    LPDO1   -0.380000       0.00000          -1   0.00000       0.00000    
     11716 FORA     143      FORA     LPO12    LPDO1   -0.380000       0.00000          -1   0.00000       0.00000    
     11717 FORA     144      FORA     C        CD2O2A    2.99370       11.6110           0  -1.01600      0.899000    
     11718 FORA     144      FORA     DC       DRUD     -2.47370      0.400000           0   0.00000       0.00000    
     11719 FORA     144      FORA     H        HDP1C     0.00000       1.00800           0   0.00000       0.00000    
     11720 FORA     144      FORA     O2       OD2C2A    2.05180       15.5994           0 -0.699000       2.39900    
     11721 FORA     144      FORA     DO2      DRUD     -2.05180      0.400000           0   0.00000       0.00000    
     11722 FORA     144      FORA     O1       OD2C2A    2.05180       15.5994           0 -0.699000       2.39900    
     11723 FORA     144      FORA     DO1      DRUD     -2.05180      0.400000           0   0.00000       0.00000    
     11724 FORA     144      FORA     HO1      DUMH      0.00000       1.00800           0   0.00000       0.00000    
     11725 FORA     144      FORA     LPO21    LPDO1   -0.380000       0.00000          -1   0.00000       0.00000    
     11726 FORA     144      FORA     LPO22    LPDO1   -0.380000       0.00000          -1   0.00000       0.00000    
     11727 FORA     144      FORA     LPO11    LPDO1   -0.380000       0.00000          -1   0.00000       0.00000    
     11728 FORA     144      FORA     LPO12    LPDO1   -0.380000       0.00000          -1   0.00000       0.00000    
     11729 FORA     145      FORA     C        CD2O2A    2.99370       11.6110           0  -1.01600      0.899000    
     11730 FORA     145      FORA     DC       DRUD     -2.47370      0.400000           0   0.00000       0.00000    
     11731 FORA     145      FORA     H        HDP1C     0.00000       1.00800           0   0.00000       0.00000    
     11732 FORA     145      FORA     O2       OD2C2A    2.05180       15.5994           0 -0.699000       2.39900    
     11733 FORA     145      FORA     DO2      DRUD     -2.05180      0.400000           0   0.00000       0.00000    
     11734 FORA     145      FORA     O1       OD2C2A    2.05180       15.5994           0 -0.699000       2.39900    
     11735 FORA     145      FORA     DO1      DRUD     -2.05180      0.400000           0   0.00000       0.00000    
     11736 FORA     145      FORA     HO1      DUMH      0.00000       1.00800           0   0.00000       0.00000    
     11737 FORA     145      FORA     LPO21    LPDO1   -0.380000       0.00000          -1   0.00000       0.00000    
     11738 FORA     145      FORA     LPO22    LPDO1   -0.380000       0.00000          -1   0.00000       0.00000    
     11739 FORA     145      FORA     LPO11    LPDO1   -0.380000       0.00000          -1   0.00000       0.00000    
     11740 FORA     145      FORA     LPO12    LPDO1   -0.380000       0.00000          -1   0.00000       0.00000    
     11741 FORA     146      FORA     C        CD2O2A    2.99370       11.6110           0  -1.01600      0.899000    
     11742 FORA     146      FORA     DC       DRUD     -2.47370      0.400000           0   0.00000       0.00000    
     11743 FORA     146      FORA     H        HDP1C     0.00000       1.00800           0   0.00000       0.00000    
     11744 FORA     146      FORA     O2       OD2C2A    2.05180       15.5994           0 -0.699000       2.39900    
     11745 FORA     146      FORA     DO2      DRUD     -2.05180      0.400000           0   0.00000       0.00000    
     11746 FORA     146      FORA     O1       OD2C2A    2.05180       15.5994           0 -0.699000       2.39900    
     11747 FORA     146      FORA     DO1      DRUD     -2.05180      0.400000           0   0.00000       0.00000    
     11748 FORA     146      FORA     HO1      DUMH      0.00000       1.00800           0   0.00000       0.00000    
     11749 FORA     146      FORA     LPO21    LPDO1   -0.380000       0.00000          -1   0.00000       0.00000    
     11750 FORA     146      FORA     LPO22    LPDO1   -0.380000       0.00000          -1   0.00000       0.00000    
     11751 FORA     146      FORA     LPO11    LPDO1   -0.380000       0.00000          -1   0.00000       0.00000    
     11752 FORA     146      FORA     LPO12    LPDO1   -0.380000       0.00000          -1   0.00000       0.00000    
     11753 FORA     147      FORA     C        CD2O2A    2.99370       11.6110           0  -1.01600      0.899000    
     11754 FORA     147      FORA     DC       DRUD     -2.47370      0.400000           0   0.00000       0.00000    
     11755 FORA     147      FORA     H        HDP1C     0.00000       1.00800           0   0.00000       0.00000    
     11756 FORA     147      FORA     O2       OD2C2A    2.05180       15.5994           0 -0.699000       2.39900    
     11757 FORA     147      FORA     DO2      DRUD     -2.05180      0.400000           0   0.00000       0.00000    
     11758 FORA     147      FORA     O1       OD2C2A    2.05180       15.5994           0 -0.699000       2.39900    
     11759 FORA     147      FORA     DO1      DRUD     -2.05180      0.400000           0   0.00000       0.00000    
     11760 FORA     147      FORA     HO1      DUMH      0.00000       1.00800           0   0.00000       0.00000    
     11761 FORA     147      FORA     LPO21    LPDO1   -0.380000       0.00000          -1   0.00000       0.00000    
     11762 FORA     147      FORA     LPO22    LPDO1   -0.380000       0.00000          -1   0.00000       0.00000    
     11763 FORA     147      FORA     LPO11    LPDO1   -0.380000       0.00000          -1   0.00000       0.00000    
     11764 FORA     147      FORA     LPO12    LPDO1   -0.380000       0.00000          -1   0.00000       0.00000    
     11765 FORA     148      FORA     C        CD2O2A    2.99370       11.6110           0  -1.01600      0.899000    
     11766 FORA     148      FORA     DC       DRUD     -2.47370      0.400000           0   0.00000       0.00000    
     11767 FORA     148      FORA     H        HDP1C     0.00000       1.00800           0   0.00000       0.00000    
     11768 FORA     148      FORA     O2       OD2C2A    2.05180       15.5994           0 -0.699000       2.39900    
     11769 FORA     148      FORA     DO2      DRUD     -2.05180      0.400000           0   0.00000       0.00000    
     11770 FORA     148      FORA     O1       OD2C2A    2.05180       15.5994           0 -0.699000       2.39900    
     11771 FORA     148      FORA     DO1      DRUD     -2.05180      0.400000           0   0.00000       0.00000    
     11772 FORA     148      FORA     HO1      DUMH      0.00000       1.00800           0   0.00000       0.00000    
     11773 FORA     148      FORA     LPO21    LPDO1   -0.380000       0.00000          -1   0.00000       0.00000    
     11774 FORA     148      FORA     LPO22    LPDO1   -0.380000       0.00000          -1   0.00000       0.00000    
     11775 FORA     148      FORA     LPO11    LPDO1   -0.380000       0.00000          -1   0.00000       0.00000    
     11776 FORA     148      FORA     LPO12    LPDO1   -0.380000       0.00000          -1   0.00000       0.00000    
     11777 FORA     149      FORA     C        CD2O2A    2.99370       11.6110           0  -1.01600      0.899000    
     11778 FORA     149      FORA     DC       DRUD     -2.47370      0.400000           0   0.00000       0.00000    
     11779 FORA     149      FORA     H        HDP1C     0.00000       1.00800           0   0.00000       0.00000    
     11780 FORA     149      FORA     O2       OD2C2A    2.05180       15.5994           0 -0.699000       2.39900    
     11781 FORA     149      FORA     DO2      DRUD     -2.05180      0.400000           0   0.00000       0.00000    
     11782 FORA     149      FORA     O1       OD2C2A    2.05180       15.5994           0 -0.699000       2.39900    
     11783 FORA     149      FORA     DO1      DRUD     -2.05180      0.400000           0   0.00000       0.00000    
     11784 FORA     149      FORA     HO1      DUMH      0.00000       1.00800           0   0.00000       0.00000    
     11785 FORA     149      FORA     LPO21    LPDO1   -0.380000       0.00000          -1   0.00000       0.00000    
     11786 FORA     149      FORA     LPO22    LPDO1   -0.380000       0.00000          -1   0.00000       0.00000    
     11787 FORA     149      FORA     LPO11    LPDO1   -0.380000       0.00000          -1   0.00000       0.00000    
     11788 FORA     149      FORA     LPO12    LPDO1   -0.380000       0.00000          -1   0.00000       0.00000    
     11789 FORA     150      FORA     C        CD2O2A    2.99370       11.6110           0  -1.01600      0.899000    
     11790 FORA     150      FORA     DC       DRUD     -2.47370      0.400000           0   0.00000       0.00000    
     11791 FORA     150      FORA     H        HDP1C     0.00000       1.00800           0   0.00000       0.00000    
     11792 FORA     150      FORA     O2       OD2C2A    2.05180       15.5994           0 -0.699000       2.39900    
     11793 FORA     150      FORA     DO2      DRUD     -2.05180      0.400000           0   0.00000       0.00000    
     11794 FORA     150      FORA     O1       OD2C2A    2.05180       15.5994           0 -0.699000       2.39900    
     11795 FORA     150      FORA     DO1      DRUD     -2.05180      0.400000           0   0.00000       0.00000    
     11796 FORA     150      FORA     HO1      DUMH      0.00000       1.00800           0   0.00000       0.00000    
     11797 FORA     150      FORA     LPO21    LPDO1   -0.380000       0.00000          -1   0.00000       0.00000    
     11798 FORA     150      FORA     LPO22    LPDO1   -0.380000       0.00000          -1   0.00000       0.00000    
     11799 FORA     150      FORA     LPO11    LPDO1   -0.380000       0.00000          -1   0.00000       0.00000    
     11800 FORA     150      FORA     LPO12    LPDO1   -0.380000       0.00000          -1   0.00000       0.00000    
     11801 FORA     151      FORA     C        CD2O2A    2.99370       11.6110           0  -1.01600      0.899000    
     11802 FORA     151      FORA     DC       DRUD     -2.47370      0.400000           0   0.00000       0.00000    
     11803 FORA     151      FORA     H        HDP1C     0.00000       1.00800           0   0.00000       0.00000    
     11804 FORA     151      FORA     O2       OD2C2A    2.05180       15.5994           0 -0.699000       2.39900    
     11805 FORA     151      FORA     DO2      DRUD     -2.05180      0.400000           0   0.00000       0.00000    
     11806 FORA     151      FORA     O1       OD2C2A    2.05180       15.5994           0 -0.699000       2.39900    
     11807 FORA     151      FORA     DO1      DRUD     -2.05180      0.400000           0   0.00000       0.00000    
     11808 FORA     151      FORA     HO1      DUMH      0.00000       1.00800           0   0.00000       0.00000    
     11809 FORA     151      FORA     LPO21    LPDO1   -0.380000       0.00000          -1   0.00000       0.00000    
     11810 FORA     151      FORA     LPO22    LPDO1   -0.380000       0.00000          -1   0.00000       0.00000    
     11811 FORA     151      FORA     LPO11    LPDO1   -0.380000       0.00000          -1   0.00000       0.00000    
     11812 FORA     151      FORA     LPO12    LPDO1   -0.380000       0.00000          -1   0.00000       0.00000    
     11813 FORA     152      FORA     C        CD2O2A    2.99370       11.6110           0  -1.01600      0.899000    
     11814 FORA     152      FORA     DC       DRUD     -2.47370      0.400000           0   0.00000       0.00000    
     11815 FORA     152      FORA     H        HDP1C     0.00000       1.00800           0   0.00000       0.00000    
     11816 FORA     152      FORA     O2       OD2C2A    2.05180       15.5994           0 -0.699000       2.39900    
     11817 FORA     152      FORA     DO2      DRUD     -2.05180      0.400000           0   0.00000       0.00000    
     11818 FORA     152      FORA     O1       OD2C2A    2.05180       15.5994           0 -0.699000       2.39900    
     11819 FORA     152      FORA     DO1      DRUD     -2.05180      0.400000           0   0.00000       0.00000    
     11820 FORA     152      FORA     HO1      DUMH      0.00000       1.00800           0   0.00000       0.00000    
     11821 FORA     152      FORA     LPO21    LPDO1   -0.380000       0.00000          -1   0.00000       0.00000    
     11822 FORA     152      FORA     LPO22    LPDO1   -0.380000       0.00000          -1   0.00000       0.00000    
     11823 FORA     152      FORA     LPO11    LPDO1   -0.380000       0.00000          -1   0.00000       0.00000    
     11824 FORA     152      FORA     LPO12    LPDO1   -0.380000       0.00000          -1   0.00000       0.00000    
     11825 FORA     153      FORA     C        CD2O2A    2.99370       11.6110           0  -1.01600      0.899000    
     11826 FORA     153      FORA     DC       DRUD     -2.47370      0.400000           0   0.00000       0.00000    
     11827 FORA     153      FORA     H        HDP1C     0.00000       1.00800           0   0.00000       0.00000    
     11828 FORA     153      FORA     O2       OD2C2A    2.05180       15.5994           0 -0.699000       2.39900    
     11829 FORA     153      FORA     DO2      DRUD     -2.05180      0.400000           0   0.00000       0.00000    
     11830 FORA     153      FORA     O1       OD2C2A    2.05180       15.5994           0 -0.699000       2.39900    
     11831 FORA     153      FORA     DO1      DRUD     -2.05180      0.400000           0   0.00000       0.00000    
     11832 FORA     153      FORA     HO1      DUMH      0.00000       1.00800           0   0.00000       0.00000    
     11833 FORA     153      FORA     LPO21    LPDO1   -0.380000       0.00000          -1   0.00000       0.00000    
     11834 FORA     153      FORA     LPO22    LPDO1   -0.380000       0.00000          -1   0.00000       0.00000    
     11835 FORA     153      FORA     LPO11    LPDO1   -0.380000       0.00000          -1   0.00000       0.00000    
     11836 FORA     153      FORA     LPO12    LPDO1   -0.380000       0.00000          -1   0.00000       0.00000    
     11837 FORA     154      FORA     C        CD2O2A    2.99370       11.6110           0  -1.01600      0.899000    
     11838 FORA     154      FORA     DC       DRUD     -2.47370      0.400000           0   0.00000       0.00000    
     11839 FORA     154      FORA     H        HDP1C     0.00000       1.00800           0   0.00000       0.00000    
     11840 FORA     154      FORA     O2       OD2C2A    2.05180       15.5994           0 -0.699000       2.39900    
     11841 FORA     154      FORA     DO2      DRUD     -2.05180      0.400000           0   0.00000       0.00000    
     11842 FORA     154      FORA     O1       OD2C2A    2.05180       15.5994           0 -0.699000       2.39900    
     11843 FORA     154      FORA     DO1      DRUD     -2.05180      0.400000           0   0.00000       0.00000    
     11844 FORA     154      FORA     HO1      DUMH      0.00000       1.00800           0   0.00000       0.00000    
     11845 FORA     154      FORA     LPO21    LPDO1   -0.380000       0.00000          -1   0.00000       0.00000    
     11846 FORA     154      FORA     LPO22    LPDO1   -0.380000       0.00000          -1   0.00000       0.00000    
     11847 FORA     154      FORA     LPO11    LPDO1   -0.380000       0.00000          -1   0.00000       0.00000    
     11848 FORA     154      FORA     LPO12    LPDO1   -0.380000       0.00000          -1   0.00000       0.00000    
     11849 FORA     155      FORA     C        CD2O2A    2.99370       11.6110           0  -1.01600      0.899000    
     11850 FORA     155      FORA     DC       DRUD     -2.47370      0.400000           0   0.00000       0.00000    
     11851 FORA     155      FORA     H        HDP1C     0.00000       1.00800           0   0.00000       0.00000    
     11852 FORA     155      FORA     O2       OD2C2A    2.05180       15.5994           0 -0.699000       2.39900    
     11853 FORA     155      FORA     DO2      DRUD     -2.05180      0.400000           0   0.00000       0.00000    
     11854 FORA     155      FORA     O1       OD2C2A    2.05180       15.5994           0 -0.699000       2.39900    
     11855 FORA     155      FORA     DO1      DRUD     -2.05180      0.400000           0   0.00000       0.00000    
     11856 FORA     155      FORA     HO1      DUMH      0.00000       1.00800           0   0.00000       0.00000    
     11857 FORA     155      FORA     LPO21    LPDO1   -0.380000       0.00000          -1   0.00000       0.00000    
     11858 FORA     155      FORA     LPO22    LPDO1   -0.380000       0.00000          -1   0.00000       0.00000    
     11859 FORA     155      FORA     LPO11    LPDO1   -0.380000       0.00000          -1   0.00000       0.00000    
     11860 FORA     155      FORA     LPO12    LPDO1   -0.380000       0.00000          -1   0.00000       0.00000    
     11861 FORA     156      FORA     C        CD2O2A    2.99370       11.6110           0  -1.01600      0.899000    
     11862 FORA     156      FORA     DC       DRUD     -2.47370      0.400000           0   0.00000       0.00000    
     11863 FORA     156      FORA     H        HDP1C     0.00000       1.00800           0   0.00000       0.00000    
     11864 FORA     156      FORA     O2       OD2C2A    2.05180       15.5994           0 -0.699000       2.39900    
     11865 FORA     156      FORA     DO2      DRUD     -2.05180      0.400000           0   0.00000       0.00000    
     11866 FORA     156      FORA     O1       OD2C2A    2.05180       15.5994           0 -0.699000       2.39900    
     11867 FORA     156      FORA     DO1      DRUD     -2.05180      0.400000           0   0.00000       0.00000    
     11868 FORA     156      FORA     HO1      DUMH      0.00000       1.00800           0   0.00000       0.00000    
     11869 FORA     156      FORA     LPO21    LPDO1   -0.380000       0.00000          -1   0.00000       0.00000    
     11870 FORA     156      FORA     LPO22    LPDO1   -0.380000       0.00000          -1   0.00000       0.00000    
     11871 FORA     156      FORA     LPO11    LPDO1   -0.380000       0.00000          -1   0.00000       0.00000    
     11872 FORA     156      FORA     LPO12    LPDO1   -0.380000       0.00000          -1   0.00000       0.00000    
     11873 FORA     157      FORA     C        CD2O2A    2.99370       11.6110           0  -1.01600      0.899000    
     11874 FORA     157      FORA     DC       DRUD     -2.47370      0.400000           0   0.00000       0.00000    
     11875 FORA     157      FORA     H        HDP1C     0.00000       1.00800           0   0.00000       0.00000    
     11876 FORA     157      FORA     O2       OD2C2A    2.05180       15.5994           0 -0.699000       2.39900    
     11877 FORA     157      FORA     DO2      DRUD     -2.05180      0.400000           0   0.00000       0.00000    
     11878 FORA     157      FORA     O1       OD2C2A    2.05180       15.5994           0 -0.699000       2.39900    
     11879 FORA     157      FORA     DO1      DRUD     -2.05180      0.400000           0   0.00000       0.00000    
     11880 FORA     157      FORA     HO1      DUMH      0.00000       1.00800           0   0.00000       0.00000    
     11881 FORA     157      FORA     LPO21    LPDO1   -0.380000       0.00000          -1   0.00000       0.00000    
     11882 FORA     157      FORA     LPO22    LPDO1   -0.380000       0.00000          -1   0.00000       0.00000    
     11883 FORA     157      FORA     LPO11    LPDO1   -0.380000       0.00000          -1   0.00000       0.00000    
     11884 FORA     157      FORA     LPO12    LPDO1   -0.380000       0.00000          -1   0.00000       0.00000    
     11885 FORA     158      FORA     C        CD2O2A    2.99370       11.6110           0  -1.01600      0.899000    
     11886 FORA     158      FORA     DC       DRUD     -2.47370      0.400000           0   0.00000       0.00000    
     11887 FORA     158      FORA     H        HDP1C     0.00000       1.00800           0   0.00000       0.00000    
     11888 FORA     158      FORA     O2       OD2C2A    2.05180       15.5994           0 -0.699000       2.39900    
     11889 FORA     158      FORA     DO2      DRUD     -2.05180      0.400000           0   0.00000       0.00000    
     11890 FORA     158      FORA     O1       OD2C2A    2.05180       15.5994           0 -0.699000       2.39900    
     11891 FORA     158      FORA     DO1      DRUD     -2.05180      0.400000           0   0.00000       0.00000    
     11892 FORA     158      FORA     HO1      DUMH      0.00000       1.00800           0   0.00000       0.00000    
     11893 FORA     158      FORA     LPO21    LPDO1   -0.380000       0.00000          -1   0.00000       0.00000    
     11894 FORA     158      FORA     LPO22    LPDO1   -0.380000       0.00000          -1   0.00000       0.00000    
     11895 FORA     158      FORA     LPO11    LPDO1   -0.380000       0.00000          -1   0.00000       0.00000    
     11896 FORA     158      FORA     LPO12    LPDO1   -0.380000       0.00000          -1   0.00000       0.00000    
     11897 FORA     159      FORA     C        CD2O2A    2.99370       11.6110           0  -1.01600      0.899000    
     11898 FORA     159      FORA     DC       DRUD     -2.47370      0.400000           0   0.00000       0.00000    
     11899 FORA     159      FORA     H        HDP1C     0.00000       1.00800           0   0.00000       0.00000    
     11900 FORA     159      FORA     O2       OD2C2A    2.05180       15.5994           0 -0.699000       2.39900    
     11901 FORA     159      FORA     DO2      DRUD     -2.05180      0.400000           0   0.00000       0.00000    
     11902 FORA     159      FORA     O1       OD2C2A    2.05180       15.5994           0 -0.699000       2.39900    
     11903 FORA     159      FORA     DO1      DRUD     -2.05180      0.400000           0   0.00000       0.00000    
     11904 FORA     159      FORA     HO1      DUMH      0.00000       1.00800           0   0.00000       0.00000    
     11905 FORA     159      FORA     LPO21    LPDO1   -0.380000       0.00000          -1   0.00000       0.00000    
     11906 FORA     159      FORA     LPO22    LPDO1   -0.380000       0.00000          -1   0.00000       0.00000    
     11907 FORA     159      FORA     LPO11    LPDO1   -0.380000       0.00000          -1   0.00000       0.00000    
     11908 FORA     159      FORA     LPO12    LPDO1   -0.380000       0.00000          -1   0.00000       0.00000    
     11909 FORA     160      FORA     C        CD2O2A    2.99370       11.6110           0  -1.01600      0.899000    
     11910 FORA     160      FORA     DC       DRUD     -2.47370      0.400000           0   0.00000       0.00000    
     11911 FORA     160      FORA     H        HDP1C     0.00000       1.00800           0   0.00000       0.00000    
     11912 FORA     160      FORA     O2       OD2C2A    2.05180       15.5994           0 -0.699000       2.39900    
     11913 FORA     160      FORA     DO2      DRUD     -2.05180      0.400000           0   0.00000       0.00000    
     11914 FORA     160      FORA     O1       OD2C2A    2.05180       15.5994           0 -0.699000       2.39900    
     11915 FORA     160      FORA     DO1      DRUD     -2.05180      0.400000           0   0.00000       0.00000    
     11916 FORA     160      FORA     HO1      DUMH      0.00000       1.00800           0   0.00000       0.00000    
     11917 FORA     160      FORA     LPO21    LPDO1   -0.380000       0.00000          -1   0.00000       0.00000    
     11918 FORA     160      FORA     LPO22    LPDO1   -0.380000       0.00000          -1   0.00000       0.00000    
     11919 FORA     160      FORA     LPO11    LPDO1   -0.380000       0.00000          -1   0.00000       0.00000    
     11920 FORA     160      FORA     LPO12    LPDO1   -0.380000       0.00000          -1   0.00000       0.00000    
     11921 FORA     161      FORA     C        CD2O2A    2.99370       11.6110           0  -1.01600      0.899000    
     11922 FORA     161      FORA     DC       DRUD     -2.47370      0.400000           0   0.00000       0.00000    
     11923 FORA     161      FORA     H        HDP1C     0.00000       1.00800           0   0.00000       0.00000    
     11924 FORA     161      FORA     O2       OD2C2A    2.05180       15.5994           0 -0.699000       2.39900    
     11925 FORA     161      FORA     DO2      DRUD     -2.05180      0.400000           0   0.00000       0.00000    
     11926 FORA     161      FORA     O1       OD2C2A    2.05180       15.5994           0 -0.699000       2.39900    
     11927 FORA     161      FORA     DO1      DRUD     -2.05180      0.400000           0   0.00000       0.00000    
     11928 FORA     161      FORA     HO1      DUMH      0.00000       1.00800           0   0.00000       0.00000    
     11929 FORA     161      FORA     LPO21    LPDO1   -0.380000       0.00000          -1   0.00000       0.00000    
     11930 FORA     161      FORA     LPO22    LPDO1   -0.380000       0.00000          -1   0.00000       0.00000    
     11931 FORA     161      FORA     LPO11    LPDO1   -0.380000       0.00000          -1   0.00000       0.00000    
     11932 FORA     161      FORA     LPO12    LPDO1   -0.380000       0.00000          -1   0.00000       0.00000    
     11933 FORA     162      FORA     C        CD2O2A    2.99370       11.6110           0  -1.01600      0.899000    
     11934 FORA     162      FORA     DC       DRUD     -2.47370      0.400000           0   0.00000       0.00000    
     11935 FORA     162      FORA     H        HDP1C     0.00000       1.00800           0   0.00000       0.00000    
     11936 FORA     162      FORA     O2       OD2C2A    2.05180       15.5994           0 -0.699000       2.39900    
     11937 FORA     162      FORA     DO2      DRUD     -2.05180      0.400000           0   0.00000       0.00000    
     11938 FORA     162      FORA     O1       OD2C2A    2.05180       15.5994           0 -0.699000       2.39900    
     11939 FORA     162      FORA     DO1      DRUD     -2.05180      0.400000           0   0.00000       0.00000    
     11940 FORA     162      FORA     HO1      DUMH      0.00000       1.00800           0   0.00000       0.00000    
     11941 FORA     162      FORA     LPO21    LPDO1   -0.380000       0.00000          -1   0.00000       0.00000    
     11942 FORA     162      FORA     LPO22    LPDO1   -0.380000       0.00000          -1   0.00000       0.00000    
     11943 FORA     162      FORA     LPO11    LPDO1   -0.380000       0.00000          -1   0.00000       0.00000    
     11944 FORA     162      FORA     LPO12    LPDO1   -0.380000       0.00000          -1   0.00000       0.00000    
     11945 FORA     163      FORA     C        CD2O2A    2.99370       11.6110           0  -1.01600      0.899000    
     11946 FORA     163      FORA     DC       DRUD     -2.47370      0.400000           0   0.00000       0.00000    
     11947 FORA     163      FORA     H        HDP1C     0.00000       1.00800           0   0.00000       0.00000    
     11948 FORA     163      FORA     O2       OD2C2A    2.05180       15.5994           0 -0.699000       2.39900    
     11949 FORA     163      FORA     DO2      DRUD     -2.05180      0.400000           0   0.00000       0.00000    
     11950 FORA     163      FORA     O1       OD2C2A    2.05180       15.5994           0 -0.699000       2.39900    
     11951 FORA     163      FORA     DO1      DRUD     -2.05180      0.400000           0   0.00000       0.00000    
     11952 FORA     163      FORA     HO1      DUMH      0.00000       1.00800           0   0.00000       0.00000    
     11953 FORA     163      FORA     LPO21    LPDO1   -0.380000       0.00000          -1   0.00000       0.00000    
     11954 FORA     163      FORA     LPO22    LPDO1   -0.380000       0.00000          -1   0.00000       0.00000    
     11955 FORA     163      FORA     LPO11    LPDO1   -0.380000       0.00000          -1   0.00000       0.00000    
     11956 FORA     163      FORA     LPO12    LPDO1   -0.380000       0.00000          -1   0.00000       0.00000    
     11957 FORA     164      FORA     C        CD2O2A    2.99370       11.6110           0  -1.01600      0.899000    
     11958 FORA     164      FORA     DC       DRUD     -2.47370      0.400000           0   0.00000       0.00000    
     11959 FORA     164      FORA     H        HDP1C     0.00000       1.00800           0   0.00000       0.00000    
     11960 FORA     164      FORA     O2       OD2C2A    2.05180       15.5994           0 -0.699000       2.39900    
     11961 FORA     164      FORA     DO2      DRUD     -2.05180      0.400000           0   0.00000       0.00000    
     11962 FORA     164      FORA     O1       OD2C2A    2.05180       15.5994           0 -0.699000       2.39900    
     11963 FORA     164      FORA     DO1      DRUD     -2.05180      0.400000           0   0.00000       0.00000    
     11964 FORA     164      FORA     HO1      DUMH      0.00000       1.00800           0   0.00000       0.00000    
     11965 FORA     164      FORA     LPO21    LPDO1   -0.380000       0.00000          -1   0.00000       0.00000    
     11966 FORA     164      FORA     LPO22    LPDO1   -0.380000       0.00000          -1   0.00000       0.00000    
     11967 FORA     164      FORA     LPO11    LPDO1   -0.380000       0.00000          -1   0.00000       0.00000    
     11968 FORA     164      FORA     LPO12    LPDO1   -0.380000       0.00000          -1   0.00000       0.00000    
     11969 FORA     165      FORA     C        CD2O2A    2.99370       11.6110           0  -1.01600      0.899000    
     11970 FORA     165      FORA     DC       DRUD     -2.47370      0.400000           0   0.00000       0.00000    
     11971 FORA     165      FORA     H        HDP1C     0.00000       1.00800           0   0.00000       0.00000    
     11972 FORA     165      FORA     O2       OD2C2A    2.05180       15.5994           0 -0.699000       2.39900    
     11973 FORA     165      FORA     DO2      DRUD     -2.05180      0.400000           0   0.00000       0.00000    
     11974 FORA     165      FORA     O1       OD2C2A    2.05180       15.5994           0 -0.699000       2.39900    
     11975 FORA     165      FORA     DO1      DRUD     -2.05180      0.400000           0   0.00000       0.00000    
     11976 FORA     165      FORA     HO1      DUMH      0.00000       1.00800           0   0.00000       0.00000    
     11977 FORA     165      FORA     LPO21    LPDO1   -0.380000       0.00000          -1   0.00000       0.00000    
     11978 FORA     165      FORA     LPO22    LPDO1   -0.380000       0.00000          -1   0.00000       0.00000    
     11979 FORA     165      FORA     LPO11    LPDO1   -0.380000       0.00000          -1   0.00000       0.00000    
     11980 FORA     165      FORA     LPO12    LPDO1   -0.380000       0.00000          -1   0.00000       0.00000    
     11981 FORA     166      FORA     C        CD2O2A    2.99370       11.6110           0  -1.01600      0.899000    
     11982 FORA     166      FORA     DC       DRUD     -2.47370      0.400000           0   0.00000       0.00000    
     11983 FORA     166      FORA     H        HDP1C     0.00000       1.00800           0   0.00000       0.00000    
     11984 FORA     166      FORA     O2       OD2C2A    2.05180       15.5994           0 -0.699000       2.39900    
     11985 FORA     166      FORA     DO2      DRUD     -2.05180      0.400000           0   0.00000       0.00000    
     11986 FORA     166      FORA     O1       OD2C2A    2.05180       15.5994           0 -0.699000       2.39900    
     11987 FORA     166      FORA     DO1      DRUD     -2.05180      0.400000           0   0.00000       0.00000    
     11988 FORA     166      FORA     HO1      DUMH      0.00000       1.00800           0   0.00000       0.00000    
     11989 FORA     166      FORA     LPO21    LPDO1   -0.380000       0.00000          -1   0.00000       0.00000    
     11990 FORA     166      FORA     LPO22    LPDO1   -0.380000       0.00000          -1   0.00000       0.00000    
     11991 FORA     166      FORA     LPO11    LPDO1   -0.380000       0.00000          -1   0.00000       0.00000    
     11992 FORA     166      FORA     LPO12    LPDO1   -0.380000       0.00000          -1   0.00000       0.00000    
     11993 FORA     167      FORA     C        CD2O2A    2.99370       11.6110           0  -1.01600      0.899000    
     11994 FORA     167      FORA     DC       DRUD     -2.47370      0.400000           0   0.00000       0.00000    
     11995 FORA     167      FORA     H        HDP1C     0.00000       1.00800           0   0.00000       0.00000    
     11996 FORA     167      FORA     O2       OD2C2A    2.05180       15.5994           0 -0.699000       2.39900    
     11997 FORA     167      FORA     DO2      DRUD     -2.05180      0.400000           0   0.00000       0.00000    
     11998 FORA     167      FORA     O1       OD2C2A    2.05180       15.5994           0 -0.699000       2.39900    
     11999 FORA     167      FORA     DO1      DRUD     -2.05180      0.400000           0   0.00000       0.00000    
     12000 FORA     167      FORA     HO1      DUMH      0.00000       1.00800           0   0.00000       0.00000    
     12001 FORA     167      FORA     LPO21    LPDO1   -0.380000       0.00000          -1   0.00000       0.00000    
     12002 FORA     167      FORA     LPO22    LPDO1   -0.380000       0.00000          -1   0.00000       0.00000    
     12003 FORA     167      FORA     LPO11    LPDO1   -0.380000       0.00000          -1   0.00000       0.00000    
     12004 FORA     167      FORA     LPO12    LPDO1   -0.380000       0.00000          -1   0.00000       0.00000    
     12005 FORA     168      FORA     C        CD2O2A    2.99370       11.6110           0  -1.01600      0.899000    
     12006 FORA     168      FORA     DC       DRUD     -2.47370      0.400000           0   0.00000       0.00000    
     12007 FORA     168      FORA     H        HDP1C     0.00000       1.00800           0   0.00000       0.00000    
     12008 FORA     168      FORA     O2       OD2C2A    2.05180       15.5994           0 -0.699000       2.39900    
     12009 FORA     168      FORA     DO2      DRUD     -2.05180      0.400000           0   0.00000       0.00000    
     12010 FORA     168      FORA     O1       OD2C2A    2.05180       15.5994           0 -0.699000       2.39900    
     12011 FORA     168      FORA     DO1      DRUD     -2.05180      0.400000           0   0.00000       0.00000    
     12012 FORA     168      FORA     HO1      DUMH      0.00000       1.00800           0   0.00000       0.00000    
     12013 FORA     168      FORA     LPO21    LPDO1   -0.380000       0.00000          -1   0.00000       0.00000    
     12014 FORA     168      FORA     LPO22    LPDO1   -0.380000       0.00000          -1   0.00000       0.00000    
     12015 FORA     168      FORA     LPO11    LPDO1   -0.380000       0.00000          -1   0.00000       0.00000    
     12016 FORA     168      FORA     LPO12    LPDO1   -0.380000       0.00000          -1   0.00000       0.00000    
     12017 FORA     169      FORA     C        CD2O2A    2.99370       11.6110           0  -1.01600      0.899000    
     12018 FORA     169      FORA     DC       DRUD     -2.47370      0.400000           0   0.00000       0.00000    
     12019 FORA     169      FORA     H        HDP1C     0.00000       1.00800           0   0.00000       0.00000    
     12020 FORA     169      FORA     O2       OD2C2A    2.05180       15.5994           0 -0.699000       2.39900    
     12021 FORA     169      FORA     DO2      DRUD     -2.05180      0.400000           0   0.00000       0.00000    
     12022 FORA     169      FORA     O1       OD2C2A    2.05180       15.5994           0 -0.699000       2.39900    
     12023 FORA     169      FORA     DO1      DRUD     -2.05180      0.400000           0   0.00000       0.00000    
     12024 FORA     169      FORA     HO1      DUMH      0.00000       1.00800           0   0.00000       0.00000    
     12025 FORA     169      FORA     LPO21    LPDO1   -0.380000       0.00000          -1   0.00000       0.00000    
     12026 FORA     169      FORA     LPO22    LPDO1   -0.380000       0.00000          -1   0.00000       0.00000    
     12027 FORA     169      FORA     LPO11    LPDO1   -0.380000       0.00000          -1   0.00000       0.00000    
     12028 FORA     169      FORA     LPO12    LPDO1   -0.380000       0.00000          -1   0.00000       0.00000    
     12029 FORA     170      FORA     C        CD2O2A    2.99370       11.6110           0  -1.01600      0.899000    
     12030 FORA     170      FORA     DC       DRUD     -2.47370      0.400000           0   0.00000       0.00000    
     12031 FORA     170      FORA     H        HDP1C     0.00000       1.00800           0   0.00000       0.00000    
     12032 FORA     170      FORA     O2       OD2C2A    2.05180       15.5994           0 -0.699000       2.39900    
     12033 FORA     170      FORA     DO2      DRUD     -2.05180      0.400000           0   0.00000       0.00000    
     12034 FORA     170      FORA     O1       OD2C2A    2.05180       15.5994           0 -0.699000       2.39900    
     12035 FORA     170      FORA     DO1      DRUD     -2.05180      0.400000           0   0.00000       0.00000    
     12036 FORA     170      FORA     HO1      DUMH      0.00000       1.00800           0   0.00000       0.00000    
     12037 FORA     170      FORA     LPO21    LPDO1   -0.380000       0.00000          -1   0.00000       0.00000    
     12038 FORA     170      FORA     LPO22    LPDO1   -0.380000       0.00000          -1   0.00000       0.00000    
     12039 FORA     170      FORA     LPO11    LPDO1   -0.380000       0.00000          -1   0.00000       0.00000    
     12040 FORA     170      FORA     LPO12    LPDO1   -0.380000       0.00000          -1   0.00000       0.00000    
     12041 FORA     171      FORA     C        CD2O2A    2.99370       11.6110           0  -1.01600      0.899000    
     12042 FORA     171      FORA     DC       DRUD     -2.47370      0.400000           0   0.00000       0.00000    
     12043 FORA     171      FORA     H        HDP1C     0.00000       1.00800           0   0.00000       0.00000    
     12044 FORA     171      FORA     O2       OD2C2A    2.05180       15.5994           0 -0.699000       2.39900    
     12045 FORA     171      FORA     DO2      DRUD     -2.05180      0.400000           0   0.00000       0.00000    
     12046 FORA     171      FORA     O1       OD2C2A    2.05180       15.5994           0 -0.699000       2.39900    
     12047 FORA     171      FORA     DO1      DRUD     -2.05180      0.400000           0   0.00000       0.00000    
     12048 FORA     171      FORA     HO1      DUMH      0.00000       1.00800           0   0.00000       0.00000    
     12049 FORA     171      FORA     LPO21    LPDO1   -0.380000       0.00000          -1   0.00000       0.00000    
     12050 FORA     171      FORA     LPO22    LPDO1   -0.380000       0.00000          -1   0.00000       0.00000    
     12051 FORA     171      FORA     LPO11    LPDO1   -0.380000       0.00000          -1   0.00000       0.00000    
     12052 FORA     171      FORA     LPO12    LPDO1   -0.380000       0.00000          -1   0.00000       0.00000    
     12053 FORA     172      FORA     C        CD2O2A    2.99370       11.6110           0  -1.01600      0.899000    
     12054 FORA     172      FORA     DC       DRUD     -2.47370      0.400000           0   0.00000       0.00000    
     12055 FORA     172      FORA     H        HDP1C     0.00000       1.00800           0   0.00000       0.00000    
     12056 FORA     172      FORA     O2       OD2C2A    2.05180       15.5994           0 -0.699000       2.39900    
     12057 FORA     172      FORA     DO2      DRUD     -2.05180      0.400000           0   0.00000       0.00000    
     12058 FORA     172      FORA     O1       OD2C2A    2.05180       15.5994           0 -0.699000       2.39900    
     12059 FORA     172      FORA     DO1      DRUD     -2.05180      0.400000           0   0.00000       0.00000    
     12060 FORA     172      FORA     HO1      DUMH      0.00000       1.00800           0   0.00000       0.00000    
     12061 FORA     172      FORA     LPO21    LPDO1   -0.380000       0.00000          -1   0.00000       0.00000    
     12062 FORA     172      FORA     LPO22    LPDO1   -0.380000       0.00000          -1   0.00000       0.00000    
     12063 FORA     172      FORA     LPO11    LPDO1   -0.380000       0.00000          -1   0.00000       0.00000    
     12064 FORA     172      FORA     LPO12    LPDO1   -0.380000       0.00000          -1   0.00000       0.00000    
     12065 FORA     173      FORA     C        CD2O2A    2.99370       11.6110           0  -1.01600      0.899000    
     12066 FORA     173      FORA     DC       DRUD     -2.47370      0.400000           0   0.00000       0.00000    
     12067 FORA     173      FORA     H        HDP1C     0.00000       1.00800           0   0.00000       0.00000    
     12068 FORA     173      FORA     O2       OD2C2A    2.05180       15.5994           0 -0.699000       2.39900    
     12069 FORA     173      FORA     DO2      DRUD     -2.05180      0.400000           0   0.00000       0.00000    
     12070 FORA     173      FORA     O1       OD2C2A    2.05180       15.5994           0 -0.699000       2.39900    
     12071 FORA     173      FORA     DO1      DRUD     -2.05180      0.400000           0   0.00000       0.00000    
     12072 FORA     173      FORA     HO1      DUMH      0.00000       1.00800           0   0.00000       0.00000    
     12073 FORA     173      FORA     LPO21    LPDO1   -0.380000       0.00000          -1   0.00000       0.00000    
     12074 FORA     173      FORA     LPO22    LPDO1   -0.380000       0.00000          -1   0.00000       0.00000    
     12075 FORA     173      FORA     LPO11    LPDO1   -0.380000       0.00000          -1   0.00000       0.00000    
     12076 FORA     173      FORA     LPO12    LPDO1   -0.380000       0.00000          -1   0.00000       0.00000    
     12077 FORA     174      FORA     C        CD2O2A    2.99370       11.6110           0  -1.01600      0.899000    
     12078 FORA     174      FORA     DC       DRUD     -2.47370      0.400000           0   0.00000       0.00000    
     12079 FORA     174      FORA     H        HDP1C     0.00000       1.00800           0   0.00000       0.00000    
     12080 FORA     174      FORA     O2       OD2C2A    2.05180       15.5994           0 -0.699000       2.39900    
     12081 FORA     174      FORA     DO2      DRUD     -2.05180      0.400000           0   0.00000       0.00000    
     12082 FORA     174      FORA     O1       OD2C2A    2.05180       15.5994           0 -0.699000       2.39900    
     12083 FORA     174      FORA     DO1      DRUD     -2.05180      0.400000           0   0.00000       0.00000    
     12084 FORA     174      FORA     HO1      DUMH      0.00000       1.00800           0   0.00000       0.00000    
     12085 FORA     174      FORA     LPO21    LPDO1   -0.380000       0.00000          -1   0.00000       0.00000    
     12086 FORA     174      FORA     LPO22    LPDO1   -0.380000       0.00000          -1   0.00000       0.00000    
     12087 FORA     174      FORA     LPO11    LPDO1   -0.380000       0.00000          -1   0.00000       0.00000    
     12088 FORA     174      FORA     LPO12    LPDO1   -0.380000       0.00000          -1   0.00000       0.00000    
     12089 FORA     175      FORA     C        CD2O2A    2.99370       11.6110           0  -1.01600      0.899000    
     12090 FORA     175      FORA     DC       DRUD     -2.47370      0.400000           0   0.00000       0.00000    
     12091 FORA     175      FORA     H        HDP1C     0.00000       1.00800           0   0.00000       0.00000    
     12092 FORA     175      FORA     O2       OD2C2A    2.05180       15.5994           0 -0.699000       2.39900    
     12093 FORA     175      FORA     DO2      DRUD     -2.05180      0.400000           0   0.00000       0.00000    
     12094 FORA     175      FORA     O1       OD2C2A    2.05180       15.5994           0 -0.699000       2.39900    
     12095 FORA     175      FORA     DO1      DRUD     -2.05180      0.400000           0   0.00000       0.00000    
     12096 FORA     175      FORA     HO1      DUMH      0.00000       1.00800           0   0.00000       0.00000    
     12097 FORA     175      FORA     LPO21    LPDO1   -0.380000       0.00000          -1   0.00000       0.00000    
     12098 FORA     175      FORA     LPO22    LPDO1   -0.380000       0.00000          -1   0.00000       0.00000    
     12099 FORA     175      FORA     LPO11    LPDO1   -0.380000       0.00000          -1   0.00000       0.00000    
     12100 FORA     175      FORA     LPO12    LPDO1   -0.380000       0.00000          -1   0.00000       0.00000    
     12101 FORA     176      FORA     C        CD2O2A    2.99370       11.6110           0  -1.01600      0.899000    
     12102 FORA     176      FORA     DC       DRUD     -2.47370      0.400000           0   0.00000       0.00000    
     12103 FORA     176      FORA     H        HDP1C     0.00000       1.00800           0   0.00000       0.00000    
     12104 FORA     176      FORA     O2       OD2C2A    2.05180       15.5994           0 -0.699000       2.39900    
     12105 FORA     176      FORA     DO2      DRUD     -2.05180      0.400000           0   0.00000       0.00000    
     12106 FORA     176      FORA     O1       OD2C2A    2.05180       15.5994           0 -0.699000       2.39900    
     12107 FORA     176      FORA     DO1      DRUD     -2.05180      0.400000           0   0.00000       0.00000    
     12108 FORA     176      FORA     HO1      DUMH      0.00000       1.00800           0   0.00000       0.00000    
     12109 FORA     176      FORA     LPO21    LPDO1   -0.380000       0.00000          -1   0.00000       0.00000    
     12110 FORA     176      FORA     LPO22    LPDO1   -0.380000       0.00000          -1   0.00000       0.00000    
     12111 FORA     176      FORA     LPO11    LPDO1   -0.380000       0.00000          -1   0.00000       0.00000    
     12112 FORA     176      FORA     LPO12    LPDO1   -0.380000       0.00000          -1   0.00000       0.00000    
     12113 FORA     177      FORA     C        CD2O2A    2.99370       11.6110           0  -1.01600      0.899000    
     12114 FORA     177      FORA     DC       DRUD     -2.47370      0.400000           0   0.00000       0.00000    
     12115 FORA     177      FORA     H        HDP1C     0.00000       1.00800           0   0.00000       0.00000    
     12116 FORA     177      FORA     O2       OD2C2A    2.05180       15.5994           0 -0.699000       2.39900    
     12117 FORA     177      FORA     DO2      DRUD     -2.05180      0.400000           0   0.00000       0.00000    
     12118 FORA     177      FORA     O1       OD2C2A    2.05180       15.5994           0 -0.699000       2.39900    
     12119 FORA     177      FORA     DO1      DRUD     -2.05180      0.400000           0   0.00000       0.00000    
     12120 FORA     177      FORA     HO1      DUMH      0.00000       1.00800           0   0.00000       0.00000    
     12121 FORA     177      FORA     LPO21    LPDO1   -0.380000       0.00000          -1   0.00000       0.00000    
     12122 FORA     177      FORA     LPO22    LPDO1   -0.380000       0.00000          -1   0.00000       0.00000    
     12123 FORA     177      FORA     LPO11    LPDO1   -0.380000       0.00000          -1   0.00000       0.00000    
     12124 FORA     177      FORA     LPO12    LPDO1   -0.380000       0.00000          -1   0.00000       0.00000    
     12125 FORA     178      FORA     C        CD2O2A    2.99370       11.6110           0  -1.01600      0.899000    
     12126 FORA     178      FORA     DC       DRUD     -2.47370      0.400000           0   0.00000       0.00000    
     12127 FORA     178      FORA     H        HDP1C     0.00000       1.00800           0   0.00000       0.00000    
     12128 FORA     178      FORA     O2       OD2C2A    2.05180       15.5994           0 -0.699000       2.39900    
     12129 FORA     178      FORA     DO2      DRUD     -2.05180      0.400000           0   0.00000       0.00000    
     12130 FORA     178      FORA     O1       OD2C2A    2.05180       15.5994           0 -0.699000       2.39900    
     12131 FORA     178      FORA     DO1      DRUD     -2.05180      0.400000           0   0.00000       0.00000    
     12132 FORA     178      FORA     HO1      DUMH      0.00000       1.00800           0   0.00000       0.00000    
     12133 FORA     178      FORA     LPO21    LPDO1   -0.380000       0.00000          -1   0.00000       0.00000    
     12134 FORA     178      FORA     LPO22    LPDO1   -0.380000       0.00000          -1   0.00000       0.00000    
     12135 FORA     178      FORA     LPO11    LPDO1   -0.380000       0.00000          -1   0.00000       0.00000    
     12136 FORA     178      FORA     LPO12    LPDO1   -0.380000       0.00000          -1   0.00000       0.00000    
     12137 FORA     179      FORA     C        CD2O2A    2.99370       11.6110           0  -1.01600      0.899000    
     12138 FORA     179      FORA     DC       DRUD     -2.47370      0.400000           0   0.00000       0.00000    
     12139 FORA     179      FORA     H        HDP1C     0.00000       1.00800           0   0.00000       0.00000    
     12140 FORA     179      FORA     O2       OD2C2A    2.05180       15.5994           0 -0.699000       2.39900    
     12141 FORA     179      FORA     DO2      DRUD     -2.05180      0.400000           0   0.00000       0.00000    
     12142 FORA     179      FORA     O1       OD2C2A    2.05180       15.5994           0 -0.699000       2.39900    
     12143 FORA     179      FORA     DO1      DRUD     -2.05180      0.400000           0   0.00000       0.00000    
     12144 FORA     179      FORA     HO1      DUMH      0.00000       1.00800           0   0.00000       0.00000    
     12145 FORA     179      FORA     LPO21    LPDO1   -0.380000       0.00000          -1   0.00000       0.00000    
     12146 FORA     179      FORA     LPO22    LPDO1   -0.380000       0.00000          -1   0.00000       0.00000    
     12147 FORA     179      FORA     LPO11    LPDO1   -0.380000       0.00000          -1   0.00000       0.00000    
     12148 FORA     179      FORA     LPO12    LPDO1   -0.380000       0.00000          -1   0.00000       0.00000    
     12149 FORA     180      FORA     C        CD2O2A    2.99370       11.6110           0  -1.01600      0.899000    
     12150 FORA     180      FORA     DC       DRUD     -2.47370      0.400000           0   0.00000       0.00000    
     12151 FORA     180      FORA     H        HDP1C     0.00000       1.00800           0   0.00000       0.00000    
     12152 FORA     180      FORA     O2       OD2C2A    2.05180       15.5994           0 -0.699000       2.39900    
     12153 FORA     180      FORA     DO2      DRUD     -2.05180      0.400000           0   0.00000       0.00000    
     12154 FORA     180      FORA     O1       OD2C2A    2.05180       15.5994           0 -0.699000       2.39900    
     12155 FORA     180      FORA     DO1      DRUD     -2.05180      0.400000           0   0.00000       0.00000    
     12156 FORA     180      FORA     HO1      DUMH      0.00000       1.00800           0   0.00000       0.00000    
     12157 FORA     180      FORA     LPO21    LPDO1   -0.380000       0.00000          -1   0.00000       0.00000    
     12158 FORA     180      FORA     LPO22    LPDO1   -0.380000       0.00000          -1   0.00000       0.00000    
     12159 FORA     180      FORA     LPO11    LPDO1   -0.380000       0.00000          -1   0.00000       0.00000    
     12160 FORA     180      FORA     LPO12    LPDO1   -0.380000       0.00000          -1   0.00000       0.00000    
     12161 FORA     181      FORA     C        CD2O2A    2.99370       11.6110           0  -1.01600      0.899000    
     12162 FORA     181      FORA     DC       DRUD     -2.47370      0.400000           0   0.00000       0.00000    
     12163 FORA     181      FORA     H        HDP1C     0.00000       1.00800           0   0.00000       0.00000    
     12164 FORA     181      FORA     O2       OD2C2A    2.05180       15.5994           0 -0.699000       2.39900    
     12165 FORA     181      FORA     DO2      DRUD     -2.05180      0.400000           0   0.00000       0.00000    
     12166 FORA     181      FORA     O1       OD2C2A    2.05180       15.5994           0 -0.699000       2.39900    
     12167 FORA     181      FORA     DO1      DRUD     -2.05180      0.400000           0   0.00000       0.00000    
     12168 FORA     181      FORA     HO1      DUMH      0.00000       1.00800           0   0.00000       0.00000    
     12169 FORA     181      FORA     LPO21    LPDO1   -0.380000       0.00000          -1   0.00000       0.00000    
     12170 FORA     181      FORA     LPO22    LPDO1   -0.380000       0.00000          -1   0.00000       0.00000    
     12171 FORA     181      FORA     LPO11    LPDO1   -0.380000       0.00000          -1   0.00000       0.00000    
     12172 FORA     181      FORA     LPO12    LPDO1   -0.380000       0.00000          -1   0.00000       0.00000    
     12173 FORA     182      FORA     C        CD2O2A    2.99370       11.6110           0  -1.01600      0.899000    
     12174 FORA     182      FORA     DC       DRUD     -2.47370      0.400000           0   0.00000       0.00000    
     12175 FORA     182      FORA     H        HDP1C     0.00000       1.00800           0   0.00000       0.00000    
     12176 FORA     182      FORA     O2       OD2C2A    2.05180       15.5994           0 -0.699000       2.39900    
     12177 FORA     182      FORA     DO2      DRUD     -2.05180      0.400000           0   0.00000       0.00000    
     12178 FORA     182      FORA     O1       OD2C2A    2.05180       15.5994           0 -0.699000       2.39900    
     12179 FORA     182      FORA     DO1      DRUD     -2.05180      0.400000           0   0.00000       0.00000    
     12180 FORA     182      FORA     HO1      DUMH      0.00000       1.00800           0   0.00000       0.00000    
     12181 FORA     182      FORA     LPO21    LPDO1   -0.380000       0.00000          -1   0.00000       0.00000    
     12182 FORA     182      FORA     LPO22    LPDO1   -0.380000       0.00000          -1   0.00000       0.00000    
     12183 FORA     182      FORA     LPO11    LPDO1   -0.380000       0.00000          -1   0.00000       0.00000    
     12184 FORA     182      FORA     LPO12    LPDO1   -0.380000       0.00000          -1   0.00000       0.00000    
     12185 FORA     183      FORA     C        CD2O2A    2.99370       11.6110           0  -1.01600      0.899000    
     12186 FORA     183      FORA     DC       DRUD     -2.47370      0.400000           0   0.00000       0.00000    
     12187 FORA     183      FORA     H        HDP1C     0.00000       1.00800           0   0.00000       0.00000    
     12188 FORA     183      FORA     O2       OD2C2A    2.05180       15.5994           0 -0.699000       2.39900    
     12189 FORA     183      FORA     DO2      DRUD     -2.05180      0.400000           0   0.00000       0.00000    
     12190 FORA     183      FORA     O1       OD2C2A    2.05180       15.5994           0 -0.699000       2.39900    
     12191 FORA     183      FORA     DO1      DRUD     -2.05180      0.400000           0   0.00000       0.00000    
     12192 FORA     183      FORA     HO1      DUMH      0.00000       1.00800           0   0.00000       0.00000    
     12193 FORA     183      FORA     LPO21    LPDO1   -0.380000       0.00000          -1   0.00000       0.00000    
     12194 FORA     183      FORA     LPO22    LPDO1   -0.380000       0.00000          -1   0.00000       0.00000    
     12195 FORA     183      FORA     LPO11    LPDO1   -0.380000       0.00000          -1   0.00000       0.00000    
     12196 FORA     183      FORA     LPO12    LPDO1   -0.380000       0.00000          -1   0.00000       0.00000    
     12197 FORA     184      FORA     C        CD2O2A    2.99370       11.6110           0  -1.01600      0.899000    
     12198 FORA     184      FORA     DC       DRUD     -2.47370      0.400000           0   0.00000       0.00000    
     12199 FORA     184      FORA     H        HDP1C     0.00000       1.00800           0   0.00000       0.00000    
     12200 FORA     184      FORA     O2       OD2C2A    2.05180       15.5994           0 -0.699000       2.39900    
     12201 FORA     184      FORA     DO2      DRUD     -2.05180      0.400000           0   0.00000       0.00000    
     12202 FORA     184      FORA     O1       OD2C2A    2.05180       15.5994           0 -0.699000       2.39900    
     12203 FORA     184      FORA     DO1      DRUD     -2.05180      0.400000           0   0.00000       0.00000    
     12204 FORA     184      FORA     HO1      DUMH      0.00000       1.00800           0   0.00000       0.00000    
     12205 FORA     184      FORA     LPO21    LPDO1   -0.380000       0.00000          -1   0.00000       0.00000    
     12206 FORA     184      FORA     LPO22    LPDO1   -0.380000       0.00000          -1   0.00000       0.00000    
     12207 FORA     184      FORA     LPO11    LPDO1   -0.380000       0.00000          -1   0.00000       0.00000    
     12208 FORA     184      FORA     LPO12    LPDO1   -0.380000       0.00000          -1   0.00000       0.00000    
     12209 FORA     185      FORA     C        CD2O2A    2.99370       11.6110           0  -1.01600      0.899000    
     12210 FORA     185      FORA     DC       DRUD     -2.47370      0.400000           0   0.00000       0.00000    
     12211 FORA     185      FORA     H        HDP1C     0.00000       1.00800           0   0.00000       0.00000    
     12212 FORA     185      FORA     O2       OD2C2A    2.05180       15.5994           0 -0.699000       2.39900    
     12213 FORA     185      FORA     DO2      DRUD     -2.05180      0.400000           0   0.00000       0.00000    
     12214 FORA     185      FORA     O1       OD2C2A    2.05180       15.5994           0 -0.699000       2.39900    
     12215 FORA     185      FORA     DO1      DRUD     -2.05180      0.400000           0   0.00000       0.00000    
     12216 FORA     185      FORA     HO1      DUMH      0.00000       1.00800           0   0.00000       0.00000    
     12217 FORA     185      FORA     LPO21    LPDO1   -0.380000       0.00000          -1   0.00000       0.00000    
     12218 FORA     185      FORA     LPO22    LPDO1   -0.380000       0.00000          -1   0.00000       0.00000    
     12219 FORA     185      FORA     LPO11    LPDO1   -0.380000       0.00000          -1   0.00000       0.00000    
     12220 FORA     185      FORA     LPO12    LPDO1   -0.380000       0.00000          -1   0.00000       0.00000    
     12221 FORA     186      FORA     C        CD2O2A    2.99370       11.6110           0  -1.01600      0.899000    
     12222 FORA     186      FORA     DC       DRUD     -2.47370      0.400000           0   0.00000       0.00000    
     12223 FORA     186      FORA     H        HDP1C     0.00000       1.00800           0   0.00000       0.00000    
     12224 FORA     186      FORA     O2       OD2C2A    2.05180       15.5994           0 -0.699000       2.39900    
     12225 FORA     186      FORA     DO2      DRUD     -2.05180      0.400000           0   0.00000       0.00000    
     12226 FORA     186      FORA     O1       OD2C2A    2.05180       15.5994           0 -0.699000       2.39900    
     12227 FORA     186      FORA     DO1      DRUD     -2.05180      0.400000           0   0.00000       0.00000    
     12228 FORA     186      FORA     HO1      DUMH      0.00000       1.00800           0   0.00000       0.00000    
     12229 FORA     186      FORA     LPO21    LPDO1   -0.380000       0.00000          -1   0.00000       0.00000    
     12230 FORA     186      FORA     LPO22    LPDO1   -0.380000       0.00000          -1   0.00000       0.00000    
     12231 FORA     186      FORA     LPO11    LPDO1   -0.380000       0.00000          -1   0.00000       0.00000    
     12232 FORA     186      FORA     LPO12    LPDO1   -0.380000       0.00000          -1   0.00000       0.00000    
     12233 FORA     187      FORA     C        CD2O2A    2.99370       11.6110           0  -1.01600      0.899000    
     12234 FORA     187      FORA     DC       DRUD     -2.47370      0.400000           0   0.00000       0.00000    
     12235 FORA     187      FORA     H        HDP1C     0.00000       1.00800           0   0.00000       0.00000    
     12236 FORA     187      FORA     O2       OD2C2A    2.05180       15.5994           0 -0.699000       2.39900    
     12237 FORA     187      FORA     DO2      DRUD     -2.05180      0.400000           0   0.00000       0.00000    
     12238 FORA     187      FORA     O1       OD2C2A    2.05180       15.5994           0 -0.699000       2.39900    
     12239 FORA     187      FORA     DO1      DRUD     -2.05180      0.400000           0   0.00000       0.00000    
     12240 FORA     187      FORA     HO1      DUMH      0.00000       1.00800           0   0.00000       0.00000    
     12241 FORA     187      FORA     LPO21    LPDO1   -0.380000       0.00000          -1   0.00000       0.00000    
     12242 FORA     187      FORA     LPO22    LPDO1   -0.380000       0.00000          -1   0.00000       0.00000    
     12243 FORA     187      FORA     LPO11    LPDO1   -0.380000       0.00000          -1   0.00000       0.00000    
     12244 FORA     187      FORA     LPO12    LPDO1   -0.380000       0.00000          -1   0.00000       0.00000    
     12245 FORA     188      FORA     C        CD2O2A    2.99370       11.6110           0  -1.01600      0.899000    
     12246 FORA     188      FORA     DC       DRUD     -2.47370      0.400000           0   0.00000       0.00000    
     12247 FORA     188      FORA     H        HDP1C     0.00000       1.00800           0   0.00000       0.00000    
     12248 FORA     188      FORA     O2       OD2C2A    2.05180       15.5994           0 -0.699000       2.39900    
     12249 FORA     188      FORA     DO2      DRUD     -2.05180      0.400000           0   0.00000       0.00000    
     12250 FORA     188      FORA     O1       OD2C2A    2.05180       15.5994           0 -0.699000       2.39900    
     12251 FORA     188      FORA     DO1      DRUD     -2.05180      0.400000           0   0.00000       0.00000    
     12252 FORA     188      FORA     HO1      DUMH      0.00000       1.00800           0   0.00000       0.00000    
     12253 FORA     188      FORA     LPO21    LPDO1   -0.380000       0.00000          -1   0.00000       0.00000    
     12254 FORA     188      FORA     LPO22    LPDO1   -0.380000       0.00000          -1   0.00000       0.00000    
     12255 FORA     188      FORA     LPO11    LPDO1   -0.380000       0.00000          -1   0.00000       0.00000    
     12256 FORA     188      FORA     LPO12    LPDO1   -0.380000       0.00000          -1   0.00000       0.00000    
     12257 FORA     189      FORA     C        CD2O2A    2.99370       11.6110           0  -1.01600      0.899000    
     12258 FORA     189      FORA     DC       DRUD     -2.47370      0.400000           0   0.00000       0.00000    
     12259 FORA     189      FORA     H        HDP1C     0.00000       1.00800           0   0.00000       0.00000    
     12260 FORA     189      FORA     O2       OD2C2A    2.05180       15.5994           0 -0.699000       2.39900    
     12261 FORA     189      FORA     DO2      DRUD     -2.05180      0.400000           0   0.00000       0.00000    
     12262 FORA     189      FORA     O1       OD2C2A    2.05180       15.5994           0 -0.699000       2.39900    
     12263 FORA     189      FORA     DO1      DRUD     -2.05180      0.400000           0   0.00000       0.00000    
     12264 FORA     189      FORA     HO1      DUMH      0.00000       1.00800           0   0.00000       0.00000    
     12265 FORA     189      FORA     LPO21    LPDO1   -0.380000       0.00000          -1   0.00000       0.00000    
     12266 FORA     189      FORA     LPO22    LPDO1   -0.380000       0.00000          -1   0.00000       0.00000    
     12267 FORA     189      FORA     LPO11    LPDO1   -0.380000       0.00000          -1   0.00000       0.00000    
     12268 FORA     189      FORA     LPO12    LPDO1   -0.380000       0.00000          -1   0.00000       0.00000    
     12269 FORA     190      FORA     C        CD2O2A    2.99370       11.6110           0  -1.01600      0.899000    
     12270 FORA     190      FORA     DC       DRUD     -2.47370      0.400000           0   0.00000       0.00000    
     12271 FORA     190      FORA     H        HDP1C     0.00000       1.00800           0   0.00000       0.00000    
     12272 FORA     190      FORA     O2       OD2C2A    2.05180       15.5994           0 -0.699000       2.39900    
     12273 FORA     190      FORA     DO2      DRUD     -2.05180      0.400000           0   0.00000       0.00000    
     12274 FORA     190      FORA     O1       OD2C2A    2.05180       15.5994           0 -0.699000       2.39900    
     12275 FORA     190      FORA     DO1      DRUD     -2.05180      0.400000           0   0.00000       0.00000    
     12276 FORA     190      FORA     HO1      DUMH      0.00000       1.00800           0   0.00000       0.00000    
     12277 FORA     190      FORA     LPO21    LPDO1   -0.380000       0.00000          -1   0.00000       0.00000    
     12278 FORA     190      FORA     LPO22    LPDO1   -0.380000       0.00000          -1   0.00000       0.00000    
     12279 FORA     190      FORA     LPO11    LPDO1   -0.380000       0.00000          -1   0.00000       0.00000    
     12280 FORA     190      FORA     LPO12    LPDO1   -0.380000       0.00000          -1   0.00000       0.00000    
     12281 FORA     191      FORA     C        CD2O2A    2.99370       11.6110           0  -1.01600      0.899000    
     12282 FORA     191      FORA     DC       DRUD     -2.47370      0.400000           0   0.00000       0.00000    
     12283 FORA     191      FORA     H        HDP1C     0.00000       1.00800           0   0.00000       0.00000    
     12284 FORA     191      FORA     O2       OD2C2A    2.05180       15.5994           0 -0.699000       2.39900    
     12285 FORA     191      FORA     DO2      DRUD     -2.05180      0.400000           0   0.00000       0.00000    
     12286 FORA     191      FORA     O1       OD2C2A    2.05180       15.5994           0 -0.699000       2.39900    
     12287 FORA     191      FORA     DO1      DRUD     -2.05180      0.400000           0   0.00000       0.00000    
     12288 FORA     191      FORA     HO1      DUMH      0.00000       1.00800           0   0.00000       0.00000    
     12289 FORA     191      FORA     LPO21    LPDO1   -0.380000       0.00000          -1   0.00000       0.00000    
     12290 FORA     191      FORA     LPO22    LPDO1   -0.380000       0.00000          -1   0.00000       0.00000    
     12291 FORA     191      FORA     LPO11    LPDO1   -0.380000       0.00000          -1   0.00000       0.00000    
     12292 FORA     191      FORA     LPO12    LPDO1   -0.380000       0.00000          -1   0.00000       0.00000    
     12293 FORA     192      FORA     C        CD2O2A    2.99370       11.6110           0  -1.01600      0.899000    
     12294 FORA     192      FORA     DC       DRUD     -2.47370      0.400000           0   0.00000       0.00000    
     12295 FORA     192      FORA     H        HDP1C     0.00000       1.00800           0   0.00000       0.00000    
     12296 FORA     192      FORA     O2       OD2C2A    2.05180       15.5994           0 -0.699000       2.39900    
     12297 FORA     192      FORA     DO2      DRUD     -2.05180      0.400000           0   0.00000       0.00000    
     12298 FORA     192      FORA     O1       OD2C2A    2.05180       15.5994           0 -0.699000       2.39900    
     12299 FORA     192      FORA     DO1      DRUD     -2.05180      0.400000           0   0.00000       0.00000    
     12300 FORA     192      FORA     HO1      DUMH      0.00000       1.00800           0   0.00000       0.00000    
     12301 FORA     192      FORA     LPO21    LPDO1   -0.380000       0.00000          -1   0.00000       0.00000    
     12302 FORA     192      FORA     LPO22    LPDO1   -0.380000       0.00000          -1   0.00000       0.00000    
     12303 FORA     192      FORA     LPO11    LPDO1   -0.380000       0.00000          -1   0.00000       0.00000    
     12304 FORA     192      FORA     LPO12    LPDO1   -0.380000       0.00000          -1   0.00000       0.00000    
     12305 FORA     193      FORA     C        CD2O2A    2.99370       11.6110           0  -1.01600      0.899000    
     12306 FORA     193      FORA     DC       DRUD     -2.47370      0.400000           0   0.00000       0.00000    
     12307 FORA     193      FORA     H        HDP1C     0.00000       1.00800           0   0.00000       0.00000    
     12308 FORA     193      FORA     O2       OD2C2A    2.05180       15.5994           0 -0.699000       2.39900    
     12309 FORA     193      FORA     DO2      DRUD     -2.05180      0.400000           0   0.00000       0.00000    
     12310 FORA     193      FORA     O1       OD2C2A    2.05180       15.5994           0 -0.699000       2.39900    
     12311 FORA     193      FORA     DO1      DRUD     -2.05180      0.400000           0   0.00000       0.00000    
     12312 FORA     193      FORA     HO1      DUMH      0.00000       1.00800           0   0.00000       0.00000    
     12313 FORA     193      FORA     LPO21    LPDO1   -0.380000       0.00000          -1   0.00000       0.00000    
     12314 FORA     193      FORA     LPO22    LPDO1   -0.380000       0.00000          -1   0.00000       0.00000    
     12315 FORA     193      FORA     LPO11    LPDO1   -0.380000       0.00000          -1   0.00000       0.00000    
     12316 FORA     193      FORA     LPO12    LPDO1   -0.380000       0.00000          -1   0.00000       0.00000    
     12317 FORA     194      FORA     C        CD2O2A    2.99370       11.6110           0  -1.01600      0.899000    
     12318 FORA     194      FORA     DC       DRUD     -2.47370      0.400000           0   0.00000       0.00000    
     12319 FORA     194      FORA     H        HDP1C     0.00000       1.00800           0   0.00000       0.00000    
     12320 FORA     194      FORA     O2       OD2C2A    2.05180       15.5994           0 -0.699000       2.39900    
     12321 FORA     194      FORA     DO2      DRUD     -2.05180      0.400000           0   0.00000       0.00000    
     12322 FORA     194      FORA     O1       OD2C2A    2.05180       15.5994           0 -0.699000       2.39900    
     12323 FORA     194      FORA     DO1      DRUD     -2.05180      0.400000           0   0.00000       0.00000    
     12324 FORA     194      FORA     HO1      DUMH      0.00000       1.00800           0   0.00000       0.00000    
     12325 FORA     194      FORA     LPO21    LPDO1   -0.380000       0.00000          -1   0.00000       0.00000    
     12326 FORA     194      FORA     LPO22    LPDO1   -0.380000       0.00000          -1   0.00000       0.00000    
     12327 FORA     194      FORA     LPO11    LPDO1   -0.380000       0.00000          -1   0.00000       0.00000    
     12328 FORA     194      FORA     LPO12    LPDO1   -0.380000       0.00000          -1   0.00000       0.00000    
     12329 FORA     195      FORA     C        CD2O2A    2.99370       11.6110           0  -1.01600      0.899000    
     12330 FORA     195      FORA     DC       DRUD     -2.47370      0.400000           0   0.00000       0.00000    
     12331 FORA     195      FORA     H        HDP1C     0.00000       1.00800           0   0.00000       0.00000    
     12332 FORA     195      FORA     O2       OD2C2A    2.05180       15.5994           0 -0.699000       2.39900    
     12333 FORA     195      FORA     DO2      DRUD     -2.05180      0.400000           0   0.00000       0.00000    
     12334 FORA     195      FORA     O1       OD2C2A    2.05180       15.5994           0 -0.699000       2.39900    
     12335 FORA     195      FORA     DO1      DRUD     -2.05180      0.400000           0   0.00000       0.00000    
     12336 FORA     195      FORA     HO1      DUMH      0.00000       1.00800           0   0.00000       0.00000    
     12337 FORA     195      FORA     LPO21    LPDO1   -0.380000       0.00000          -1   0.00000       0.00000    
     12338 FORA     195      FORA     LPO22    LPDO1   -0.380000       0.00000          -1   0.00000       0.00000    
     12339 FORA     195      FORA     LPO11    LPDO1   -0.380000       0.00000          -1   0.00000       0.00000    
     12340 FORA     195      FORA     LPO12    LPDO1   -0.380000       0.00000          -1   0.00000       0.00000    
     12341 FORA     196      FORA     C        CD2O2A    2.99370       11.6110           0  -1.01600      0.899000    
     12342 FORA     196      FORA     DC       DRUD     -2.47370      0.400000           0   0.00000       0.00000    
     12343 FORA     196      FORA     H        HDP1C     0.00000       1.00800           0   0.00000       0.00000    
     12344 FORA     196      FORA     O2       OD2C2A    2.05180       15.5994           0 -0.699000       2.39900    
     12345 FORA     196      FORA     DO2      DRUD     -2.05180      0.400000           0   0.00000       0.00000    
     12346 FORA     196      FORA     O1       OD2C2A    2.05180       15.5994           0 -0.699000       2.39900    
     12347 FORA     196      FORA     DO1      DRUD     -2.05180      0.400000           0   0.00000       0.00000    
     12348 FORA     196      FORA     HO1      DUMH      0.00000       1.00800           0   0.00000       0.00000    
     12349 FORA     196      FORA     LPO21    LPDO1   -0.380000       0.00000          -1   0.00000       0.00000    
     12350 FORA     196      FORA     LPO22    LPDO1   -0.380000       0.00000          -1   0.00000       0.00000    
     12351 FORA     196      FORA     LPO11    LPDO1   -0.380000       0.00000          -1   0.00000       0.00000    
     12352 FORA     196      FORA     LPO12    LPDO1   -0.380000       0.00000          -1   0.00000       0.00000    
     12353 FORA     197      FORA     C        CD2O2A    2.99370       11.6110           0  -1.01600      0.899000    
     12354 FORA     197      FORA     DC       DRUD     -2.47370      0.400000           0   0.00000       0.00000    
     12355 FORA     197      FORA     H        HDP1C     0.00000       1.00800           0   0.00000       0.00000    
     12356 FORA     197      FORA     O2       OD2C2A    2.05180       15.5994           0 -0.699000       2.39900    
     12357 FORA     197      FORA     DO2      DRUD     -2.05180      0.400000           0   0.00000       0.00000    
     12358 FORA     197      FORA     O1       OD2C2A    2.05180       15.5994           0 -0.699000       2.39900    
     12359 FORA     197      FORA     DO1      DRUD     -2.05180      0.400000           0   0.00000       0.00000    
     12360 FORA     197      FORA     HO1      DUMH      0.00000       1.00800           0   0.00000       0.00000    
     12361 FORA     197      FORA     LPO21    LPDO1   -0.380000       0.00000          -1   0.00000       0.00000    
     12362 FORA     197      FORA     LPO22    LPDO1   -0.380000       0.00000          -1   0.00000       0.00000    
     12363 FORA     197      FORA     LPO11    LPDO1   -0.380000       0.00000          -1   0.00000       0.00000    
     12364 FORA     197      FORA     LPO12    LPDO1   -0.380000       0.00000          -1   0.00000       0.00000    
     12365 FORA     198      FORA     C        CD2O2A    2.99370       11.6110           0  -1.01600      0.899000    
     12366 FORA     198      FORA     DC       DRUD     -2.47370      0.400000           0   0.00000       0.00000    
     12367 FORA     198      FORA     H        HDP1C     0.00000       1.00800           0   0.00000       0.00000    
     12368 FORA     198      FORA     O2       OD2C2A    2.05180       15.5994           0 -0.699000       2.39900    
     12369 FORA     198      FORA     DO2      DRUD     -2.05180      0.400000           0   0.00000       0.00000    
     12370 FORA     198      FORA     O1       OD2C2A    2.05180       15.5994           0 -0.699000       2.39900    
     12371 FORA     198      FORA     DO1      DRUD     -2.05180      0.400000           0   0.00000       0.00000    
     12372 FORA     198      FORA     HO1      DUMH      0.00000       1.00800           0   0.00000       0.00000    
     12373 FORA     198      FORA     LPO21    LPDO1   -0.380000       0.00000          -1   0.00000       0.00000    
     12374 FORA     198      FORA     LPO22    LPDO1   -0.380000       0.00000          -1   0.00000       0.00000    
     12375 FORA     198      FORA     LPO11    LPDO1   -0.380000       0.00000          -1   0.00000       0.00000    
     12376 FORA     198      FORA     LPO12    LPDO1   -0.380000       0.00000          -1   0.00000       0.00000    
     12377 FORA     199      FORA     C        CD2O2A    2.99370       11.6110           0  -1.01600      0.899000    
     12378 FORA     199      FORA     DC       DRUD     -2.47370      0.400000           0   0.00000       0.00000    
     12379 FORA     199      FORA     H        HDP1C     0.00000       1.00800           0   0.00000       0.00000    
     12380 FORA     199      FORA     O2       OD2C2A    2.05180       15.5994           0 -0.699000       2.39900    
     12381 FORA     199      FORA     DO2      DRUD     -2.05180      0.400000           0   0.00000       0.00000    
     12382 FORA     199      FORA     O1       OD2C2A    2.05180       15.5994           0 -0.699000       2.39900    
     12383 FORA     199      FORA     DO1      DRUD     -2.05180      0.400000           0   0.00000       0.00000    
     12384 FORA     199      FORA     HO1      DUMH      0.00000       1.00800           0   0.00000       0.00000    
     12385 FORA     199      FORA     LPO21    LPDO1   -0.380000       0.00000          -1   0.00000       0.00000    
     12386 FORA     199      FORA     LPO22    LPDO1   -0.380000       0.00000          -1   0.00000       0.00000    
     12387 FORA     199      FORA     LPO11    LPDO1   -0.380000       0.00000          -1   0.00000       0.00000    
     12388 FORA     199      FORA     LPO12    LPDO1   -0.380000       0.00000          -1   0.00000       0.00000    
     12389 FORA     200      FORA     C        CD2O2A    2.99370       11.6110           0  -1.01600      0.899000    
     12390 FORA     200      FORA     DC       DRUD     -2.47370      0.400000           0   0.00000       0.00000    
     12391 FORA     200      FORA     H        HDP1C     0.00000       1.00800           0   0.00000       0.00000    
     12392 FORA     200      FORA     O2       OD2C2A    2.05180       15.5994           0 -0.699000       2.39900    
     12393 FORA     200      FORA     DO2      DRUD     -2.05180      0.400000           0   0.00000       0.00000    
     12394 FORA     200      FORA     O1       OD2C2A    2.05180       15.5994           0 -0.699000       2.39900    
     12395 FORA     200      FORA     DO1      DRUD     -2.05180      0.400000           0   0.00000       0.00000    
     12396 FORA     200      FORA     HO1      DUMH      0.00000       1.00800           0   0.00000       0.00000    
     12397 FORA     200      FORA     LPO21    LPDO1   -0.380000       0.00000          -1   0.00000       0.00000    
     12398 FORA     200      FORA     LPO22    LPDO1   -0.380000       0.00000          -1   0.00000       0.00000    
     12399 FORA     200      FORA     LPO11    LPDO1   -0.380000       0.00000          -1   0.00000       0.00000    
     12400 FORA     200      FORA     LPO12    LPDO1   -0.380000       0.00000          -1   0.00000       0.00000    
     12401 FORA     201      FORA     C        CD2O2A    2.99370       11.6110           0  -1.01600      0.899000    
     12402 FORA     201      FORA     DC       DRUD     -2.47370      0.400000           0   0.00000       0.00000    
     12403 FORA     201      FORA     H        HDP1C     0.00000       1.00800           0   0.00000       0.00000    
     12404 FORA     201      FORA     O2       OD2C2A    2.05180       15.5994           0 -0.699000       2.39900    
     12405 FORA     201      FORA     DO2      DRUD     -2.05180      0.400000           0   0.00000       0.00000    
     12406 FORA     201      FORA     O1       OD2C2A    2.05180       15.5994           0 -0.699000       2.39900    
     12407 FORA     201      FORA     DO1      DRUD     -2.05180      0.400000           0   0.00000       0.00000    
     12408 FORA     201      FORA     HO1      DUMH      0.00000       1.00800           0   0.00000       0.00000    
     12409 FORA     201      FORA     LPO21    LPDO1   -0.380000       0.00000          -1   0.00000       0.00000    
     12410 FORA     201      FORA     LPO22    LPDO1   -0.380000       0.00000          -1   0.00000       0.00000    
     12411 FORA     201      FORA     LPO11    LPDO1   -0.380000       0.00000          -1   0.00000       0.00000    
     12412 FORA     201      FORA     LPO12    LPDO1   -0.380000       0.00000          -1   0.00000       0.00000    
     12413 FORA     202      FORA     C        CD2O2A    2.99370       11.6110           0  -1.01600      0.899000    
     12414 FORA     202      FORA     DC       DRUD     -2.47370      0.400000           0   0.00000       0.00000    
     12415 FORA     202      FORA     H        HDP1C     0.00000       1.00800           0   0.00000       0.00000    
     12416 FORA     202      FORA     O2       OD2C2A    2.05180       15.5994           0 -0.699000       2.39900    
     12417 FORA     202      FORA     DO2      DRUD     -2.05180      0.400000           0   0.00000       0.00000    
     12418 FORA     202      FORA     O1       OD2C2A    2.05180       15.5994           0 -0.699000       2.39900    
     12419 FORA     202      FORA     DO1      DRUD     -2.05180      0.400000           0   0.00000       0.00000    
     12420 FORA     202      FORA     HO1      DUMH      0.00000       1.00800           0   0.00000       0.00000    
     12421 FORA     202      FORA     LPO21    LPDO1   -0.380000       0.00000          -1   0.00000       0.00000    
     12422 FORA     202      FORA     LPO22    LPDO1   -0.380000       0.00000          -1   0.00000       0.00000    
     12423 FORA     202      FORA     LPO11    LPDO1   -0.380000       0.00000          -1   0.00000       0.00000    
     12424 FORA     202      FORA     LPO12    LPDO1   -0.380000       0.00000          -1   0.00000       0.00000    
     12425 FORA     203      FORA     C        CD2O2A    2.99370       11.6110           0  -1.01600      0.899000    
     12426 FORA     203      FORA     DC       DRUD     -2.47370      0.400000           0   0.00000       0.00000    
     12427 FORA     203      FORA     H        HDP1C     0.00000       1.00800           0   0.00000       0.00000    
     12428 FORA     203      FORA     O2       OD2C2A    2.05180       15.5994           0 -0.699000       2.39900    
     12429 FORA     203      FORA     DO2      DRUD     -2.05180      0.400000           0   0.00000       0.00000    
     12430 FORA     203      FORA     O1       OD2C2A    2.05180       15.5994           0 -0.699000       2.39900    
     12431 FORA     203      FORA     DO1      DRUD     -2.05180      0.400000           0   0.00000       0.00000    
     12432 FORA     203      FORA     HO1      DUMH      0.00000       1.00800           0   0.00000       0.00000    
     12433 FORA     203      FORA     LPO21    LPDO1   -0.380000       0.00000          -1   0.00000       0.00000    
     12434 FORA     203      FORA     LPO22    LPDO1   -0.380000       0.00000          -1   0.00000       0.00000    
     12435 FORA     203      FORA     LPO11    LPDO1   -0.380000       0.00000          -1   0.00000       0.00000    
     12436 FORA     203      FORA     LPO12    LPDO1   -0.380000       0.00000          -1   0.00000       0.00000    
     12437 FORA     204      FORA     C        CD2O2A    2.99370       11.6110           0  -1.01600      0.899000    
     12438 FORA     204      FORA     DC       DRUD     -2.47370      0.400000           0   0.00000       0.00000    
     12439 FORA     204      FORA     H        HDP1C     0.00000       1.00800           0   0.00000       0.00000    
     12440 FORA     204      FORA     O2       OD2C2A    2.05180       15.5994           0 -0.699000       2.39900    
     12441 FORA     204      FORA     DO2      DRUD     -2.05180      0.400000           0   0.00000       0.00000    
     12442 FORA     204      FORA     O1       OD2C2A    2.05180       15.5994           0 -0.699000       2.39900    
     12443 FORA     204      FORA     DO1      DRUD     -2.05180      0.400000           0   0.00000       0.00000    
     12444 FORA     204      FORA     HO1      DUMH      0.00000       1.00800           0   0.00000       0.00000    
     12445 FORA     204      FORA     LPO21    LPDO1   -0.380000       0.00000          -1   0.00000       0.00000    
     12446 FORA     204      FORA     LPO22    LPDO1   -0.380000       0.00000          -1   0.00000       0.00000    
     12447 FORA     204      FORA     LPO11    LPDO1   -0.380000       0.00000          -1   0.00000       0.00000    
     12448 FORA     204      FORA     LPO12    LPDO1   -0.380000       0.00000          -1   0.00000       0.00000    
     12449 FORA     205      FORA     C        CD2O2A    2.99370       11.6110           0  -1.01600      0.899000    
     12450 FORA     205      FORA     DC       DRUD     -2.47370      0.400000           0   0.00000       0.00000    
     12451 FORA     205      FORA     H        HDP1C     0.00000       1.00800           0   0.00000       0.00000    
     12452 FORA     205      FORA     O2       OD2C2A    2.05180       15.5994           0 -0.699000       2.39900    
     12453 FORA     205      FORA     DO2      DRUD     -2.05180      0.400000           0   0.00000       0.00000    
     12454 FORA     205      FORA     O1       OD2C2A    2.05180       15.5994           0 -0.699000       2.39900    
     12455 FORA     205      FORA     DO1      DRUD     -2.05180      0.400000           0   0.00000       0.00000    
     12456 FORA     205      FORA     HO1      DUMH      0.00000       1.00800           0   0.00000       0.00000    
     12457 FORA     205      FORA     LPO21    LPDO1   -0.380000       0.00000          -1   0.00000       0.00000    
     12458 FORA     205      FORA     LPO22    LPDO1   -0.380000       0.00000          -1   0.00000       0.00000    
     12459 FORA     205      FORA     LPO11    LPDO1   -0.380000       0.00000          -1   0.00000       0.00000    
     12460 FORA     205      FORA     LPO12    LPDO1   -0.380000       0.00000          -1   0.00000       0.00000    
     12461 FORA     206      FORA     C        CD2O2A    2.99370       11.6110           0  -1.01600      0.899000    
     12462 FORA     206      FORA     DC       DRUD     -2.47370      0.400000           0   0.00000       0.00000    
     12463 FORA     206      FORA     H        HDP1C     0.00000       1.00800           0   0.00000       0.00000    
     12464 FORA     206      FORA     O2       OD2C2A    2.05180       15.5994           0 -0.699000       2.39900    
     12465 FORA     206      FORA     DO2      DRUD     -2.05180      0.400000           0   0.00000       0.00000    
     12466 FORA     206      FORA     O1       OD2C2A    2.05180       15.5994           0 -0.699000       2.39900    
     12467 FORA     206      FORA     DO1      DRUD     -2.05180      0.400000           0   0.00000       0.00000    
     12468 FORA     206      FORA     HO1      DUMH      0.00000       1.00800           0   0.00000       0.00000    
     12469 FORA     206      FORA     LPO21    LPDO1   -0.380000       0.00000          -1   0.00000       0.00000    
     12470 FORA     206      FORA     LPO22    LPDO1   -0.380000       0.00000          -1   0.00000       0.00000    
     12471 FORA     206      FORA     LPO11    LPDO1   -0.380000       0.00000          -1   0.00000       0.00000    
     12472 FORA     206      FORA     LPO12    LPDO1   -0.380000       0.00000          -1   0.00000       0.00000    
     12473 FORA     207      FORA     C        CD2O2A    2.99370       11.6110           0  -1.01600      0.899000    
     12474 FORA     207      FORA     DC       DRUD     -2.47370      0.400000           0   0.00000       0.00000    
     12475 FORA     207      FORA     H        HDP1C     0.00000       1.00800           0   0.00000       0.00000    
     12476 FORA     207      FORA     O2       OD2C2A    2.05180       15.5994           0 -0.699000       2.39900    
     12477 FORA     207      FORA     DO2      DRUD     -2.05180      0.400000           0   0.00000       0.00000    
     12478 FORA     207      FORA     O1       OD2C2A    2.05180       15.5994           0 -0.699000       2.39900    
     12479 FORA     207      FORA     DO1      DRUD     -2.05180      0.400000           0   0.00000       0.00000    
     12480 FORA     207      FORA     HO1      DUMH      0.00000       1.00800           0   0.00000       0.00000    
     12481 FORA     207      FORA     LPO21    LPDO1   -0.380000       0.00000          -1   0.00000       0.00000    
     12482 FORA     207      FORA     LPO22    LPDO1   -0.380000       0.00000          -1   0.00000       0.00000    
     12483 FORA     207      FORA     LPO11    LPDO1   -0.380000       0.00000          -1   0.00000       0.00000    
     12484 FORA     207      FORA     LPO12    LPDO1   -0.380000       0.00000          -1   0.00000       0.00000    
     12485 FORA     208      FORA     C        CD2O2A    2.99370       11.6110           0  -1.01600      0.899000    
     12486 FORA     208      FORA     DC       DRUD     -2.47370      0.400000           0   0.00000       0.00000    
     12487 FORA     208      FORA     H        HDP1C     0.00000       1.00800           0   0.00000       0.00000    
     12488 FORA     208      FORA     O2       OD2C2A    2.05180       15.5994           0 -0.699000       2.39900    
     12489 FORA     208      FORA     DO2      DRUD     -2.05180      0.400000           0   0.00000       0.00000    
     12490 FORA     208      FORA     O1       OD2C2A    2.05180       15.5994           0 -0.699000       2.39900    
     12491 FORA     208      FORA     DO1      DRUD     -2.05180      0.400000           0   0.00000       0.00000    
     12492 FORA     208      FORA     HO1      DUMH      0.00000       1.00800           0   0.00000       0.00000    
     12493 FORA     208      FORA     LPO21    LPDO1   -0.380000       0.00000          -1   0.00000       0.00000    
     12494 FORA     208      FORA     LPO22    LPDO1   -0.380000       0.00000          -1   0.00000       0.00000    
     12495 FORA     208      FORA     LPO11    LPDO1   -0.380000       0.00000          -1   0.00000       0.00000    
     12496 FORA     208      FORA     LPO12    LPDO1   -0.380000       0.00000          -1   0.00000       0.00000    
     12497 FORA     209      FORA     C        CD2O2A    2.99370       11.6110           0  -1.01600      0.899000    
     12498 FORA     209      FORA     DC       DRUD     -2.47370      0.400000           0   0.00000       0.00000    
     12499 FORA     209      FORA     H        HDP1C     0.00000       1.00800           0   0.00000       0.00000    
     12500 FORA     209      FORA     O2       OD2C2A    2.05180       15.5994           0 -0.699000       2.39900    
     12501 FORA     209      FORA     DO2      DRUD     -2.05180      0.400000           0   0.00000       0.00000    
     12502 FORA     209      FORA     O1       OD2C2A    2.05180       15.5994           0 -0.699000       2.39900    
     12503 FORA     209      FORA     DO1      DRUD     -2.05180      0.400000           0   0.00000       0.00000    
     12504 FORA     209      FORA     HO1      DUMH      0.00000       1.00800           0   0.00000       0.00000    
     12505 FORA     209      FORA     LPO21    LPDO1   -0.380000       0.00000          -1   0.00000       0.00000    
     12506 FORA     209      FORA     LPO22    LPDO1   -0.380000       0.00000          -1   0.00000       0.00000    
     12507 FORA     209      FORA     LPO11    LPDO1   -0.380000       0.00000          -1   0.00000       0.00000    
     12508 FORA     209      FORA     LPO12    LPDO1   -0.380000       0.00000          -1   0.00000       0.00000    
     12509 FORA     210      FORA     C        CD2O2A    2.99370       11.6110           0  -1.01600      0.899000    
     12510 FORA     210      FORA     DC       DRUD     -2.47370      0.400000           0   0.00000       0.00000    
     12511 FORA     210      FORA     H        HDP1C     0.00000       1.00800           0   0.00000       0.00000    
     12512 FORA     210      FORA     O2       OD2C2A    2.05180       15.5994           0 -0.699000       2.39900    
     12513 FORA     210      FORA     DO2      DRUD     -2.05180      0.400000           0   0.00000       0.00000    
     12514 FORA     210      FORA     O1       OD2C2A    2.05180       15.5994           0 -0.699000       2.39900    
     12515 FORA     210      FORA     DO1      DRUD     -2.05180      0.400000           0   0.00000       0.00000    
     12516 FORA     210      FORA     HO1      DUMH      0.00000       1.00800           0   0.00000       0.00000    
     12517 FORA     210      FORA     LPO21    LPDO1   -0.380000       0.00000          -1   0.00000       0.00000    
     12518 FORA     210      FORA     LPO22    LPDO1   -0.380000       0.00000          -1   0.00000       0.00000    
     12519 FORA     210      FORA     LPO11    LPDO1   -0.380000       0.00000          -1   0.00000       0.00000    
     12520 FORA     210      FORA     LPO12    LPDO1   -0.380000       0.00000          -1   0.00000       0.00000    
     12521 FORA     211      FORA     C        CD2O2A    2.99370       11.6110           0  -1.01600      0.899000    
     12522 FORA     211      FORA     DC       DRUD     -2.47370      0.400000           0   0.00000       0.00000    
     12523 FORA     211      FORA     H        HDP1C     0.00000       1.00800           0   0.00000       0.00000    
     12524 FORA     211      FORA     O2       OD2C2A    2.05180       15.5994           0 -0.699000       2.39900    
     12525 FORA     211      FORA     DO2      DRUD     -2.05180      0.400000           0   0.00000       0.00000    
     12526 FORA     211      FORA     O1       OD2C2A    2.05180       15.5994           0 -0.699000       2.39900    
     12527 FORA     211      FORA     DO1      DRUD     -2.05180      0.400000           0   0.00000       0.00000    
     12528 FORA     211      FORA     HO1      DUMH      0.00000       1.00800           0   0.00000       0.00000    
     12529 FORA     211      FORA     LPO21    LPDO1   -0.380000       0.00000          -1   0.00000       0.00000    
     12530 FORA     211      FORA     LPO22    LPDO1   -0.380000       0.00000          -1   0.00000       0.00000    
     12531 FORA     211      FORA     LPO11    LPDO1   -0.380000       0.00000          -1   0.00000       0.00000    
     12532 FORA     211      FORA     LPO12    LPDO1   -0.380000       0.00000          -1   0.00000       0.00000    
     12533 FORA     212      FORA     C        CD2O2A    2.99370       11.6110           0  -1.01600      0.899000    
     12534 FORA     212      FORA     DC       DRUD     -2.47370      0.400000           0   0.00000       0.00000    
     12535 FORA     212      FORA     H        HDP1C     0.00000       1.00800           0   0.00000       0.00000    
     12536 FORA     212      FORA     O2       OD2C2A    2.05180       15.5994           0 -0.699000       2.39900    
     12537 FORA     212      FORA     DO2      DRUD     -2.05180      0.400000           0   0.00000       0.00000    
     12538 FORA     212      FORA     O1       OD2C2A    2.05180       15.5994           0 -0.699000       2.39900    
     12539 FORA     212      FORA     DO1      DRUD     -2.05180      0.400000           0   0.00000       0.00000    
     12540 FORA     212      FORA     HO1      DUMH      0.00000       1.00800           0   0.00000       0.00000    
     12541 FORA     212      FORA     LPO21    LPDO1   -0.380000       0.00000          -1   0.00000       0.00000    
     12542 FORA     212      FORA     LPO22    LPDO1   -0.380000       0.00000          -1   0.00000       0.00000    
     12543 FORA     212      FORA     LPO11    LPDO1   -0.380000       0.00000          -1   0.00000       0.00000    
     12544 FORA     212      FORA     LPO12    LPDO1   -0.380000       0.00000          -1   0.00000       0.00000    
     12545 FORA     213      FORA     C        CD2O2A    2.99370       11.6110           0  -1.01600      0.899000    
     12546 FORA     213      FORA     DC       DRUD     -2.47370      0.400000           0   0.00000       0.00000    
     12547 FORA     213      FORA     H        HDP1C     0.00000       1.00800           0   0.00000       0.00000    
     12548 FORA     213      FORA     O2       OD2C2A    2.05180       15.5994           0 -0.699000       2.39900    
     12549 FORA     213      FORA     DO2      DRUD     -2.05180      0.400000           0   0.00000       0.00000    
     12550 FORA     213      FORA     O1       OD2C2A    2.05180       15.5994           0 -0.699000       2.39900    
     12551 FORA     213      FORA     DO1      DRUD     -2.05180      0.400000           0   0.00000       0.00000    
     12552 FORA     213      FORA     HO1      DUMH      0.00000       1.00800           0   0.00000       0.00000    
     12553 FORA     213      FORA     LPO21    LPDO1   -0.380000       0.00000          -1   0.00000       0.00000    
     12554 FORA     213      FORA     LPO22    LPDO1   -0.380000       0.00000          -1   0.00000       0.00000    
     12555 FORA     213      FORA     LPO11    LPDO1   -0.380000       0.00000          -1   0.00000       0.00000    
     12556 FORA     213      FORA     LPO12    LPDO1   -0.380000       0.00000          -1   0.00000       0.00000    
     12557 FORA     214      FORA     C        CD2O2A    2.99370       11.6110           0  -1.01600      0.899000    
     12558 FORA     214      FORA     DC       DRUD     -2.47370      0.400000           0   0.00000       0.00000    
     12559 FORA     214      FORA     H        HDP1C     0.00000       1.00800           0   0.00000       0.00000    
     12560 FORA     214      FORA     O2       OD2C2A    2.05180       15.5994           0 -0.699000       2.39900    
     12561 FORA     214      FORA     DO2      DRUD     -2.05180      0.400000           0   0.00000       0.00000    
     12562 FORA     214      FORA     O1       OD2C2A    2.05180       15.5994           0 -0.699000       2.39900    
     12563 FORA     214      FORA     DO1      DRUD     -2.05180      0.400000           0   0.00000       0.00000    
     12564 FORA     214      FORA     HO1      DUMH      0.00000       1.00800           0   0.00000       0.00000    
     12565 FORA     214      FORA     LPO21    LPDO1   -0.380000       0.00000          -1   0.00000       0.00000    
     12566 FORA     214      FORA     LPO22    LPDO1   -0.380000       0.00000          -1   0.00000       0.00000    
     12567 FORA     214      FORA     LPO11    LPDO1   -0.380000       0.00000          -1   0.00000       0.00000    
     12568 FORA     214      FORA     LPO12    LPDO1   -0.380000       0.00000          -1   0.00000       0.00000    
     12569 FORA     215      FORA     C        CD2O2A    2.99370       11.6110           0  -1.01600      0.899000    
     12570 FORA     215      FORA     DC       DRUD     -2.47370      0.400000           0   0.00000       0.00000    
     12571 FORA     215      FORA     H        HDP1C     0.00000       1.00800           0   0.00000       0.00000    
     12572 FORA     215      FORA     O2       OD2C2A    2.05180       15.5994           0 -0.699000       2.39900    
     12573 FORA     215      FORA     DO2      DRUD     -2.05180      0.400000           0   0.00000       0.00000    
     12574 FORA     215      FORA     O1       OD2C2A    2.05180       15.5994           0 -0.699000       2.39900    
     12575 FORA     215      FORA     DO1      DRUD     -2.05180      0.400000           0   0.00000       0.00000    
     12576 FORA     215      FORA     HO1      DUMH      0.00000       1.00800           0   0.00000       0.00000    
     12577 FORA     215      FORA     LPO21    LPDO1   -0.380000       0.00000          -1   0.00000       0.00000    
     12578 FORA     215      FORA     LPO22    LPDO1   -0.380000       0.00000          -1   0.00000       0.00000    
     12579 FORA     215      FORA     LPO11    LPDO1   -0.380000       0.00000          -1   0.00000       0.00000    
     12580 FORA     215      FORA     LPO12    LPDO1   -0.380000       0.00000          -1   0.00000       0.00000    
     12581 FORA     216      FORA     C        CD2O2A    2.99370       11.6110           0  -1.01600      0.899000    
     12582 FORA     216      FORA     DC       DRUD     -2.47370      0.400000           0   0.00000       0.00000    
     12583 FORA     216      FORA     H        HDP1C     0.00000       1.00800           0   0.00000       0.00000    
     12584 FORA     216      FORA     O2       OD2C2A    2.05180       15.5994           0 -0.699000       2.39900    
     12585 FORA     216      FORA     DO2      DRUD     -2.05180      0.400000           0   0.00000       0.00000    
     12586 FORA     216      FORA     O1       OD2C2A    2.05180       15.5994           0 -0.699000       2.39900    
     12587 FORA     216      FORA     DO1      DRUD     -2.05180      0.400000           0   0.00000       0.00000    
     12588 FORA     216      FORA     HO1      DUMH      0.00000       1.00800           0   0.00000       0.00000    
     12589 FORA     216      FORA     LPO21    LPDO1   -0.380000       0.00000          -1   0.00000       0.00000    
     12590 FORA     216      FORA     LPO22    LPDO1   -0.380000       0.00000          -1   0.00000       0.00000    
     12591 FORA     216      FORA     LPO11    LPDO1   -0.380000       0.00000          -1   0.00000       0.00000    
     12592 FORA     216      FORA     LPO12    LPDO1   -0.380000       0.00000          -1   0.00000       0.00000    
     12593 FORA     217      FORA     C        CD2O2A    2.99370       11.6110           0  -1.01600      0.899000    
     12594 FORA     217      FORA     DC       DRUD     -2.47370      0.400000           0   0.00000       0.00000    
     12595 FORA     217      FORA     H        HDP1C     0.00000       1.00800           0   0.00000       0.00000    
     12596 FORA     217      FORA     O2       OD2C2A    2.05180       15.5994           0 -0.699000       2.39900    
     12597 FORA     217      FORA     DO2      DRUD     -2.05180      0.400000           0   0.00000       0.00000    
     12598 FORA     217      FORA     O1       OD2C2A    2.05180       15.5994           0 -0.699000       2.39900    
     12599 FORA     217      FORA     DO1      DRUD     -2.05180      0.400000           0   0.00000       0.00000    
     12600 FORA     217      FORA     HO1      DUMH      0.00000       1.00800           0   0.00000       0.00000    
     12601 FORA     217      FORA     LPO21    LPDO1   -0.380000       0.00000          -1   0.00000       0.00000    
     12602 FORA     217      FORA     LPO22    LPDO1   -0.380000       0.00000          -1   0.00000       0.00000    
     12603 FORA     217      FORA     LPO11    LPDO1   -0.380000       0.00000          -1   0.00000       0.00000    
     12604 FORA     217      FORA     LPO12    LPDO1   -0.380000       0.00000          -1   0.00000       0.00000    
     12605 FORA     218      FORA     C        CD2O2A    2.99370       11.6110           0  -1.01600      0.899000    
     12606 FORA     218      FORA     DC       DRUD     -2.47370      0.400000           0   0.00000       0.00000    
     12607 FORA     218      FORA     H        HDP1C     0.00000       1.00800           0   0.00000       0.00000    
     12608 FORA     218      FORA     O2       OD2C2A    2.05180       15.5994           0 -0.699000       2.39900    
     12609 FORA     218      FORA     DO2      DRUD     -2.05180      0.400000           0   0.00000       0.00000    
     12610 FORA     218      FORA     O1       OD2C2A    2.05180       15.5994           0 -0.699000       2.39900    
     12611 FORA     218      FORA     DO1      DRUD     -2.05180      0.400000           0   0.00000       0.00000    
     12612 FORA     218      FORA     HO1      DUMH      0.00000       1.00800           0   0.00000       0.00000    
     12613 FORA     218      FORA     LPO21    LPDO1   -0.380000       0.00000          -1   0.00000       0.00000    
     12614 FORA     218      FORA     LPO22    LPDO1   -0.380000       0.00000          -1   0.00000       0.00000    
     12615 FORA     218      FORA     LPO11    LPDO1   -0.380000       0.00000          -1   0.00000       0.00000    
     12616 FORA     218      FORA     LPO12    LPDO1   -0.380000       0.00000          -1   0.00000       0.00000    
     12617 FORA     219      FORA     C        CD2O2A    2.99370       11.6110           0  -1.01600      0.899000    
     12618 FORA     219      FORA     DC       DRUD     -2.47370      0.400000           0   0.00000       0.00000    
     12619 FORA     219      FORA     H        HDP1C     0.00000       1.00800           0   0.00000       0.00000    
     12620 FORA     219      FORA     O2       OD2C2A    2.05180       15.5994           0 -0.699000       2.39900    
     12621 FORA     219      FORA     DO2      DRUD     -2.05180      0.400000           0   0.00000       0.00000    
     12622 FORA     219      FORA     O1       OD2C2A    2.05180       15.5994           0 -0.699000       2.39900    
     12623 FORA     219      FORA     DO1      DRUD     -2.05180      0.400000           0   0.00000       0.00000    
     12624 FORA     219      FORA     HO1      DUMH      0.00000       1.00800           0   0.00000       0.00000    
     12625 FORA     219      FORA     LPO21    LPDO1   -0.380000       0.00000          -1   0.00000       0.00000    
     12626 FORA     219      FORA     LPO22    LPDO1   -0.380000       0.00000          -1   0.00000       0.00000    
     12627 FORA     219      FORA     LPO11    LPDO1   -0.380000       0.00000          -1   0.00000       0.00000    
     12628 FORA     219      FORA     LPO12    LPDO1   -0.380000       0.00000          -1   0.00000       0.00000    
     12629 FORA     220      FORA     C        CD2O2A    2.99370       11.6110           0  -1.01600      0.899000    
     12630 FORA     220      FORA     DC       DRUD     -2.47370      0.400000           0   0.00000       0.00000    
     12631 FORA     220      FORA     H        HDP1C     0.00000       1.00800           0   0.00000       0.00000    
     12632 FORA     220      FORA     O2       OD2C2A    2.05180       15.5994           0 -0.699000       2.39900    
     12633 FORA     220      FORA     DO2      DRUD     -2.05180      0.400000           0   0.00000       0.00000    
     12634 FORA     220      FORA     O1       OD2C2A    2.05180       15.5994           0 -0.699000       2.39900    
     12635 FORA     220      FORA     DO1      DRUD     -2.05180      0.400000           0   0.00000       0.00000    
     12636 FORA     220      FORA     HO1      DUMH      0.00000       1.00800           0   0.00000       0.00000    
     12637 FORA     220      FORA     LPO21    LPDO1   -0.380000       0.00000          -1   0.00000       0.00000    
     12638 FORA     220      FORA     LPO22    LPDO1   -0.380000       0.00000          -1   0.00000       0.00000    
     12639 FORA     220      FORA     LPO11    LPDO1   -0.380000       0.00000          -1   0.00000       0.00000    
     12640 FORA     220      FORA     LPO12    LPDO1   -0.380000       0.00000          -1   0.00000       0.00000    
     12641 FORA     221      FORA     C        CD2O2A    2.99370       11.6110           0  -1.01600      0.899000    
     12642 FORA     221      FORA     DC       DRUD     -2.47370      0.400000           0   0.00000       0.00000    
     12643 FORA     221      FORA     H        HDP1C     0.00000       1.00800           0   0.00000       0.00000    
     12644 FORA     221      FORA     O2       OD2C2A    2.05180       15.5994           0 -0.699000       2.39900    
     12645 FORA     221      FORA     DO2      DRUD     -2.05180      0.400000           0   0.00000       0.00000    
     12646 FORA     221      FORA     O1       OD2C2A    2.05180       15.5994           0 -0.699000       2.39900    
     12647 FORA     221      FORA     DO1      DRUD     -2.05180      0.400000           0   0.00000       0.00000    
     12648 FORA     221      FORA     HO1      DUMH      0.00000       1.00800           0   0.00000       0.00000    
     12649 FORA     221      FORA     LPO21    LPDO1   -0.380000       0.00000          -1   0.00000       0.00000    
     12650 FORA     221      FORA     LPO22    LPDO1   -0.380000       0.00000          -1   0.00000       0.00000    
     12651 FORA     221      FORA     LPO11    LPDO1   -0.380000       0.00000          -1   0.00000       0.00000    
     12652 FORA     221      FORA     LPO12    LPDO1   -0.380000       0.00000          -1   0.00000       0.00000    
     12653 FORA     222      FORA     C        CD2O2A    2.99370       11.6110           0  -1.01600      0.899000    
     12654 FORA     222      FORA     DC       DRUD     -2.47370      0.400000           0   0.00000       0.00000    
     12655 FORA     222      FORA     H        HDP1C     0.00000       1.00800           0   0.00000       0.00000    
     12656 FORA     222      FORA     O2       OD2C2A    2.05180       15.5994           0 -0.699000       2.39900    
     12657 FORA     222      FORA     DO2      DRUD     -2.05180      0.400000           0   0.00000       0.00000    
     12658 FORA     222      FORA     O1       OD2C2A    2.05180       15.5994           0 -0.699000       2.39900    
     12659 FORA     222      FORA     DO1      DRUD     -2.05180      0.400000           0   0.00000       0.00000    
     12660 FORA     222      FORA     HO1      DUMH      0.00000       1.00800           0   0.00000       0.00000    
     12661 FORA     222      FORA     LPO21    LPDO1   -0.380000       0.00000          -1   0.00000       0.00000    
     12662 FORA     222      FORA     LPO22    LPDO1   -0.380000       0.00000          -1   0.00000       0.00000    
     12663 FORA     222      FORA     LPO11    LPDO1   -0.380000       0.00000          -1   0.00000       0.00000    
     12664 FORA     222      FORA     LPO12    LPDO1   -0.380000       0.00000          -1   0.00000       0.00000    
     12665 FORA     223      FORA     C        CD2O2A    2.99370       11.6110           0  -1.01600      0.899000    
     12666 FORA     223      FORA     DC       DRUD     -2.47370      0.400000           0   0.00000       0.00000    
     12667 FORA     223      FORA     H        HDP1C     0.00000       1.00800           0   0.00000       0.00000    
     12668 FORA     223      FORA     O2       OD2C2A    2.05180       15.5994           0 -0.699000       2.39900    
     12669 FORA     223      FORA     DO2      DRUD     -2.05180      0.400000           0   0.00000       0.00000    
     12670 FORA     223      FORA     O1       OD2C2A    2.05180       15.5994           0 -0.699000       2.39900    
     12671 FORA     223      FORA     DO1      DRUD     -2.05180      0.400000           0   0.00000       0.00000    
     12672 FORA     223      FORA     HO1      DUMH      0.00000       1.00800           0   0.00000       0.00000    
     12673 FORA     223      FORA     LPO21    LPDO1   -0.380000       0.00000          -1   0.00000       0.00000    
     12674 FORA     223      FORA     LPO22    LPDO1   -0.380000       0.00000          -1   0.00000       0.00000    
     12675 FORA     223      FORA     LPO11    LPDO1   -0.380000       0.00000          -1   0.00000       0.00000    
     12676 FORA     223      FORA     LPO12    LPDO1   -0.380000       0.00000          -1   0.00000       0.00000    
     12677 FORA     224      FORA     C        CD2O2A    2.99370       11.6110           0  -1.01600      0.899000    
     12678 FORA     224      FORA     DC       DRUD     -2.47370      0.400000           0   0.00000       0.00000    
     12679 FORA     224      FORA     H        HDP1C     0.00000       1.00800           0   0.00000       0.00000    
     12680 FORA     224      FORA     O2       OD2C2A    2.05180       15.5994           0 -0.699000       2.39900    
     12681 FORA     224      FORA     DO2      DRUD     -2.05180      0.400000           0   0.00000       0.00000    
     12682 FORA     224      FORA     O1       OD2C2A    2.05180       15.5994           0 -0.699000       2.39900    
     12683 FORA     224      FORA     DO1      DRUD     -2.05180      0.400000           0   0.00000       0.00000    
     12684 FORA     224      FORA     HO1      DUMH      0.00000       1.00800           0   0.00000       0.00000    
     12685 FORA     224      FORA     LPO21    LPDO1   -0.380000       0.00000          -1   0.00000       0.00000    
     12686 FORA     224      FORA     LPO22    LPDO1   -0.380000       0.00000          -1   0.00000       0.00000    
     12687 FORA     224      FORA     LPO11    LPDO1   -0.380000       0.00000          -1   0.00000       0.00000    
     12688 FORA     224      FORA     LPO12    LPDO1   -0.380000       0.00000          -1   0.00000       0.00000    
     12689 FORA     225      FORA     C        CD2O2A    2.99370       11.6110           0  -1.01600      0.899000    
     12690 FORA     225      FORA     DC       DRUD     -2.47370      0.400000           0   0.00000       0.00000    
     12691 FORA     225      FORA     H        HDP1C     0.00000       1.00800           0   0.00000       0.00000    
     12692 FORA     225      FORA     O2       OD2C2A    2.05180       15.5994           0 -0.699000       2.39900    
     12693 FORA     225      FORA     DO2      DRUD     -2.05180      0.400000           0   0.00000       0.00000    
     12694 FORA     225      FORA     O1       OD2C2A    2.05180       15.5994           0 -0.699000       2.39900    
     12695 FORA     225      FORA     DO1      DRUD     -2.05180      0.400000           0   0.00000       0.00000    
     12696 FORA     225      FORA     HO1      DUMH      0.00000       1.00800           0   0.00000       0.00000    
     12697 FORA     225      FORA     LPO21    LPDO1   -0.380000       0.00000          -1   0.00000       0.00000    
     12698 FORA     225      FORA     LPO22    LPDO1   -0.380000       0.00000          -1   0.00000       0.00000    
     12699 FORA     225      FORA     LPO11    LPDO1   -0.380000       0.00000          -1   0.00000       0.00000    
     12700 FORA     225      FORA     LPO12    LPDO1   -0.380000       0.00000          -1   0.00000       0.00000    
     12701 FORA     226      FORA     C        CD2O2A    2.99370       11.6110           0  -1.01600      0.899000    
     12702 FORA     226      FORA     DC       DRUD     -2.47370      0.400000           0   0.00000       0.00000    
     12703 FORA     226      FORA     H        HDP1C     0.00000       1.00800           0   0.00000       0.00000    
     12704 FORA     226      FORA     O2       OD2C2A    2.05180       15.5994           0 -0.699000       2.39900    
     12705 FORA     226      FORA     DO2      DRUD     -2.05180      0.400000           0   0.00000       0.00000    
     12706 FORA     226      FORA     O1       OD2C2A    2.05180       15.5994           0 -0.699000       2.39900    
     12707 FORA     226      FORA     DO1      DRUD     -2.05180      0.400000           0   0.00000       0.00000    
     12708 FORA     226      FORA     HO1      DUMH      0.00000       1.00800           0   0.00000       0.00000    
     12709 FORA     226      FORA     LPO21    LPDO1   -0.380000       0.00000          -1   0.00000       0.00000    
     12710 FORA     226      FORA     LPO22    LPDO1   -0.380000       0.00000          -1   0.00000       0.00000    
     12711 FORA     226      FORA     LPO11    LPDO1   -0.380000       0.00000          -1   0.00000       0.00000    
     12712 FORA     226      FORA     LPO12    LPDO1   -0.380000       0.00000          -1   0.00000       0.00000    
     12713 FORA     227      FORA     C        CD2O2A    2.99370       11.6110           0  -1.01600      0.899000    
     12714 FORA     227      FORA     DC       DRUD     -2.47370      0.400000           0   0.00000       0.00000    
     12715 FORA     227      FORA     H        HDP1C     0.00000       1.00800           0   0.00000       0.00000    
     12716 FORA     227      FORA     O2       OD2C2A    2.05180       15.5994           0 -0.699000       2.39900    
     12717 FORA     227      FORA     DO2      DRUD     -2.05180      0.400000           0   0.00000       0.00000    
     12718 FORA     227      FORA     O1       OD2C2A    2.05180       15.5994           0 -0.699000       2.39900    
     12719 FORA     227      FORA     DO1      DRUD     -2.05180      0.400000           0   0.00000       0.00000    
     12720 FORA     227      FORA     HO1      DUMH      0.00000       1.00800           0   0.00000       0.00000    
     12721 FORA     227      FORA     LPO21    LPDO1   -0.380000       0.00000          -1   0.00000       0.00000    
     12722 FORA     227      FORA     LPO22    LPDO1   -0.380000       0.00000          -1   0.00000       0.00000    
     12723 FORA     227      FORA     LPO11    LPDO1   -0.380000       0.00000          -1   0.00000       0.00000    
     12724 FORA     227      FORA     LPO12    LPDO1   -0.380000       0.00000          -1   0.00000       0.00000    
     12725 FORA     228      FORA     C        CD2O2A    2.99370       11.6110           0  -1.01600      0.899000    
     12726 FORA     228      FORA     DC       DRUD     -2.47370      0.400000           0   0.00000       0.00000    
     12727 FORA     228      FORA     H        HDP1C     0.00000       1.00800           0   0.00000       0.00000    
     12728 FORA     228      FORA     O2       OD2C2A    2.05180       15.5994           0 -0.699000       2.39900    
     12729 FORA     228      FORA     DO2      DRUD     -2.05180      0.400000           0   0.00000       0.00000    
     12730 FORA     228      FORA     O1       OD2C2A    2.05180       15.5994           0 -0.699000       2.39900    
     12731 FORA     228      FORA     DO1      DRUD     -2.05180      0.400000           0   0.00000       0.00000    
     12732 FORA     228      FORA     HO1      DUMH      0.00000       1.00800           0   0.00000       0.00000    
     12733 FORA     228      FORA     LPO21    LPDO1   -0.380000       0.00000          -1   0.00000       0.00000    
     12734 FORA     228      FORA     LPO22    LPDO1   -0.380000       0.00000          -1   0.00000       0.00000    
     12735 FORA     228      FORA     LPO11    LPDO1   -0.380000       0.00000          -1   0.00000       0.00000    
     12736 FORA     228      FORA     LPO12    LPDO1   -0.380000       0.00000          -1   0.00000       0.00000    
     12737 FORA     229      FORA     C        CD2O2A    2.99370       11.6110           0  -1.01600      0.899000    
     12738 FORA     229      FORA     DC       DRUD     -2.47370      0.400000           0   0.00000       0.00000    
     12739 FORA     229      FORA     H        HDP1C     0.00000       1.00800           0   0.00000       0.00000    
     12740 FORA     229      FORA     O2       OD2C2A    2.05180       15.5994           0 -0.699000       2.39900    
     12741 FORA     229      FORA     DO2      DRUD     -2.05180      0.400000           0   0.00000       0.00000    
     12742 FORA     229      FORA     O1       OD2C2A    2.05180       15.5994           0 -0.699000       2.39900    
     12743 FORA     229      FORA     DO1      DRUD     -2.05180      0.400000           0   0.00000       0.00000    
     12744 FORA     229      FORA     HO1      DUMH      0.00000       1.00800           0   0.00000       0.00000    
     12745 FORA     229      FORA     LPO21    LPDO1   -0.380000       0.00000          -1   0.00000       0.00000    
     12746 FORA     229      FORA     LPO22    LPDO1   -0.380000       0.00000          -1   0.00000       0.00000    
     12747 FORA     229      FORA     LPO11    LPDO1   -0.380000       0.00000          -1   0.00000       0.00000    
     12748 FORA     229      FORA     LPO12    LPDO1   -0.380000       0.00000          -1   0.00000       0.00000    
     12749 FORA     230      FORA     C        CD2O2A    2.99370       11.6110           0  -1.01600      0.899000    
     12750 FORA     230      FORA     DC       DRUD     -2.47370      0.400000           0   0.00000       0.00000    
     12751 FORA     230      FORA     H        HDP1C     0.00000       1.00800           0   0.00000       0.00000    
     12752 FORA     230      FORA     O2       OD2C2A    2.05180       15.5994           0 -0.699000       2.39900    
     12753 FORA     230      FORA     DO2      DRUD     -2.05180      0.400000           0   0.00000       0.00000    
     12754 FORA     230      FORA     O1       OD2C2A    2.05180       15.5994           0 -0.699000       2.39900    
     12755 FORA     230      FORA     DO1      DRUD     -2.05180      0.400000           0   0.00000       0.00000    
     12756 FORA     230      FORA     HO1      DUMH      0.00000       1.00800           0   0.00000       0.00000    
     12757 FORA     230      FORA     LPO21    LPDO1   -0.380000       0.00000          -1   0.00000       0.00000    
     12758 FORA     230      FORA     LPO22    LPDO1   -0.380000       0.00000          -1   0.00000       0.00000    
     12759 FORA     230      FORA     LPO11    LPDO1   -0.380000       0.00000          -1   0.00000       0.00000    
     12760 FORA     230      FORA     LPO12    LPDO1   -0.380000       0.00000          -1   0.00000       0.00000    
     12761 FORA     231      FORA     C        CD2O2A    2.99370       11.6110           0  -1.01600      0.899000    
     12762 FORA     231      FORA     DC       DRUD     -2.47370      0.400000           0   0.00000       0.00000    
     12763 FORA     231      FORA     H        HDP1C     0.00000       1.00800           0   0.00000       0.00000    
     12764 FORA     231      FORA     O2       OD2C2A    2.05180       15.5994           0 -0.699000       2.39900    
     12765 FORA     231      FORA     DO2      DRUD     -2.05180      0.400000           0   0.00000       0.00000    
     12766 FORA     231      FORA     O1       OD2C2A    2.05180       15.5994           0 -0.699000       2.39900    
     12767 FORA     231      FORA     DO1      DRUD     -2.05180      0.400000           0   0.00000       0.00000    
     12768 FORA     231      FORA     HO1      DUMH      0.00000       1.00800           0   0.00000       0.00000    
     12769 FORA     231      FORA     LPO21    LPDO1   -0.380000       0.00000          -1   0.00000       0.00000    
     12770 FORA     231      FORA     LPO22    LPDO1   -0.380000       0.00000          -1   0.00000       0.00000    
     12771 FORA     231      FORA     LPO11    LPDO1   -0.380000       0.00000          -1   0.00000       0.00000    
     12772 FORA     231      FORA     LPO12    LPDO1   -0.380000       0.00000          -1   0.00000       0.00000    
     12773 FORA     232      FORA     C        CD2O2A    2.99370       11.6110           0  -1.01600      0.899000    
     12774 FORA     232      FORA     DC       DRUD     -2.47370      0.400000           0   0.00000       0.00000    
     12775 FORA     232      FORA     H        HDP1C     0.00000       1.00800           0   0.00000       0.00000    
     12776 FORA     232      FORA     O2       OD2C2A    2.05180       15.5994           0 -0.699000       2.39900    
     12777 FORA     232      FORA     DO2      DRUD     -2.05180      0.400000           0   0.00000       0.00000    
     12778 FORA     232      FORA     O1       OD2C2A    2.05180       15.5994           0 -0.699000       2.39900    
     12779 FORA     232      FORA     DO1      DRUD     -2.05180      0.400000           0   0.00000       0.00000    
     12780 FORA     232      FORA     HO1      DUMH      0.00000       1.00800           0   0.00000       0.00000    
     12781 FORA     232      FORA     LPO21    LPDO1   -0.380000       0.00000          -1   0.00000       0.00000    
     12782 FORA     232      FORA     LPO22    LPDO1   -0.380000       0.00000          -1   0.00000       0.00000    
     12783 FORA     232      FORA     LPO11    LPDO1   -0.380000       0.00000          -1   0.00000       0.00000    
     12784 FORA     232      FORA     LPO12    LPDO1   -0.380000       0.00000          -1   0.00000       0.00000    
     12785 FORA     233      FORA     C        CD2O2A    2.99370       11.6110           0  -1.01600      0.899000    
     12786 FORA     233      FORA     DC       DRUD     -2.47370      0.400000           0   0.00000       0.00000    
     12787 FORA     233      FORA     H        HDP1C     0.00000       1.00800           0   0.00000       0.00000    
     12788 FORA     233      FORA     O2       OD2C2A    2.05180       15.5994           0 -0.699000       2.39900    
     12789 FORA     233      FORA     DO2      DRUD     -2.05180      0.400000           0   0.00000       0.00000    
     12790 FORA     233      FORA     O1       OD2C2A    2.05180       15.5994           0 -0.699000       2.39900    
     12791 FORA     233      FORA     DO1      DRUD     -2.05180      0.400000           0   0.00000       0.00000    
     12792 FORA     233      FORA     HO1      DUMH      0.00000       1.00800           0   0.00000       0.00000    
     12793 FORA     233      FORA     LPO21    LPDO1   -0.380000       0.00000          -1   0.00000       0.00000    
     12794 FORA     233      FORA     LPO22    LPDO1   -0.380000       0.00000          -1   0.00000       0.00000    
     12795 FORA     233      FORA     LPO11    LPDO1   -0.380000       0.00000          -1   0.00000       0.00000    
     12796 FORA     233      FORA     LPO12    LPDO1   -0.380000       0.00000          -1   0.00000       0.00000    
     12797 FORA     234      FORA     C        CD2O2A    2.99370       11.6110           0  -1.01600      0.899000    
     12798 FORA     234      FORA     DC       DRUD     -2.47370      0.400000           0   0.00000       0.00000    
     12799 FORA     234      FORA     H        HDP1C     0.00000       1.00800           0   0.00000       0.00000    
     12800 FORA     234      FORA     O2       OD2C2A    2.05180       15.5994           0 -0.699000       2.39900    
     12801 FORA     234      FORA     DO2      DRUD     -2.05180      0.400000           0   0.00000       0.00000    
     12802 FORA     234      FORA     O1       OD2C2A    2.05180       15.5994           0 -0.699000       2.39900    
     12803 FORA     234      FORA     DO1      DRUD     -2.05180      0.400000           0   0.00000       0.00000    
     12804 FORA     234      FORA     HO1      DUMH      0.00000       1.00800           0   0.00000       0.00000    
     12805 FORA     234      FORA     LPO21    LPDO1   -0.380000       0.00000          -1   0.00000       0.00000    
     12806 FORA     234      FORA     LPO22    LPDO1   -0.380000       0.00000          -1   0.00000       0.00000    
     12807 FORA     234      FORA     LPO11    LPDO1   -0.380000       0.00000          -1   0.00000       0.00000    
     12808 FORA     234      FORA     LPO12    LPDO1   -0.380000       0.00000          -1   0.00000       0.00000    
     12809 FORA     235      FORA     C        CD2O2A    2.99370       11.6110           0  -1.01600      0.899000    
     12810 FORA     235      FORA     DC       DRUD     -2.47370      0.400000           0   0.00000       0.00000    
     12811 FORA     235      FORA     H        HDP1C     0.00000       1.00800           0   0.00000       0.00000    
     12812 FORA     235      FORA     O2       OD2C2A    2.05180       15.5994           0 -0.699000       2.39900    
     12813 FORA     235      FORA     DO2      DRUD     -2.05180      0.400000           0   0.00000       0.00000    
     12814 FORA     235      FORA     O1       OD2C2A    2.05180       15.5994           0 -0.699000       2.39900    
     12815 FORA     235      FORA     DO1      DRUD     -2.05180      0.400000           0   0.00000       0.00000    
     12816 FORA     235      FORA     HO1      DUMH      0.00000       1.00800           0   0.00000       0.00000    
     12817 FORA     235      FORA     LPO21    LPDO1   -0.380000       0.00000          -1   0.00000       0.00000    
     12818 FORA     235      FORA     LPO22    LPDO1   -0.380000       0.00000          -1   0.00000       0.00000    
     12819 FORA     235      FORA     LPO11    LPDO1   -0.380000       0.00000          -1   0.00000       0.00000    
     12820 FORA     235      FORA     LPO12    LPDO1   -0.380000       0.00000          -1   0.00000       0.00000    
     12821 FORA     236      FORA     C        CD2O2A    2.99370       11.6110           0  -1.01600      0.899000    
     12822 FORA     236      FORA     DC       DRUD     -2.47370      0.400000           0   0.00000       0.00000    
     12823 FORA     236      FORA     H        HDP1C     0.00000       1.00800           0   0.00000       0.00000    
     12824 FORA     236      FORA     O2       OD2C2A    2.05180       15.5994           0 -0.699000       2.39900    
     12825 FORA     236      FORA     DO2      DRUD     -2.05180      0.400000           0   0.00000       0.00000    
     12826 FORA     236      FORA     O1       OD2C2A    2.05180       15.5994           0 -0.699000       2.39900    
     12827 FORA     236      FORA     DO1      DRUD     -2.05180      0.400000           0   0.00000       0.00000    
     12828 FORA     236      FORA     HO1      DUMH      0.00000       1.00800           0   0.00000       0.00000    
     12829 FORA     236      FORA     LPO21    LPDO1   -0.380000       0.00000          -1   0.00000       0.00000    
     12830 FORA     236      FORA     LPO22    LPDO1   -0.380000       0.00000          -1   0.00000       0.00000    
     12831 FORA     236      FORA     LPO11    LPDO1   -0.380000       0.00000          -1   0.00000       0.00000    
     12832 FORA     236      FORA     LPO12    LPDO1   -0.380000       0.00000          -1   0.00000       0.00000    
     12833 FORA     237      FORA     C        CD2O2A    2.99370       11.6110           0  -1.01600      0.899000    
     12834 FORA     237      FORA     DC       DRUD     -2.47370      0.400000           0   0.00000       0.00000    
     12835 FORA     237      FORA     H        HDP1C     0.00000       1.00800           0   0.00000       0.00000    
     12836 FORA     237      FORA     O2       OD2C2A    2.05180       15.5994           0 -0.699000       2.39900    
     12837 FORA     237      FORA     DO2      DRUD     -2.05180      0.400000           0   0.00000       0.00000    
     12838 FORA     237      FORA     O1       OD2C2A    2.05180       15.5994           0 -0.699000       2.39900    
     12839 FORA     237      FORA     DO1      DRUD     -2.05180      0.400000           0   0.00000       0.00000    
     12840 FORA     237      FORA     HO1      DUMH      0.00000       1.00800           0   0.00000       0.00000    
     12841 FORA     237      FORA     LPO21    LPDO1   -0.380000       0.00000          -1   0.00000       0.00000    
     12842 FORA     237      FORA     LPO22    LPDO1   -0.380000       0.00000          -1   0.00000       0.00000    
     12843 FORA     237      FORA     LPO11    LPDO1   -0.380000       0.00000          -1   0.00000       0.00000    
     12844 FORA     237      FORA     LPO12    LPDO1   -0.380000       0.00000          -1   0.00000       0.00000    
     12845 FORA     238      FORA     C        CD2O2A    2.99370       11.6110           0  -1.01600      0.899000    
     12846 FORA     238      FORA     DC       DRUD     -2.47370      0.400000           0   0.00000       0.00000    
     12847 FORA     238      FORA     H        HDP1C     0.00000       1.00800           0   0.00000       0.00000    
     12848 FORA     238      FORA     O2       OD2C2A    2.05180       15.5994           0 -0.699000       2.39900    
     12849 FORA     238      FORA     DO2      DRUD     -2.05180      0.400000           0   0.00000       0.00000    
     12850 FORA     238      FORA     O1       OD2C2A    2.05180       15.5994           0 -0.699000       2.39900    
     12851 FORA     238      FORA     DO1      DRUD     -2.05180      0.400000           0   0.00000       0.00000    
     12852 FORA     238      FORA     HO1      DUMH      0.00000       1.00800           0   0.00000       0.00000    
     12853 FORA     238      FORA     LPO21    LPDO1   -0.380000       0.00000          -1   0.00000       0.00000    
     12854 FORA     238      FORA     LPO22    LPDO1   -0.380000       0.00000          -1   0.00000       0.00000    
     12855 FORA     238      FORA     LPO11    LPDO1   -0.380000       0.00000          -1   0.00000       0.00000    
     12856 FORA     238      FORA     LPO12    LPDO1   -0.380000       0.00000          -1   0.00000       0.00000    
     12857 FORA     239      FORA     C        CD2O2A    2.99370       11.6110           0  -1.01600      0.899000    
     12858 FORA     239      FORA     DC       DRUD     -2.47370      0.400000           0   0.00000       0.00000    
     12859 FORA     239      FORA     H        HDP1C     0.00000       1.00800           0   0.00000       0.00000    
     12860 FORA     239      FORA     O2       OD2C2A    2.05180       15.5994           0 -0.699000       2.39900    
     12861 FORA     239      FORA     DO2      DRUD     -2.05180      0.400000           0   0.00000       0.00000    
     12862 FORA     239      FORA     O1       OD2C2A    2.05180       15.5994           0 -0.699000       2.39900    
     12863 FORA     239      FORA     DO1      DRUD     -2.05180      0.400000           0   0.00000       0.00000    
     12864 FORA     239      FORA     HO1      DUMH      0.00000       1.00800           0   0.00000       0.00000    
     12865 FORA     239      FORA     LPO21    LPDO1   -0.380000       0.00000          -1   0.00000       0.00000    
     12866 FORA     239      FORA     LPO22    LPDO1   -0.380000       0.00000          -1   0.00000       0.00000    
     12867 FORA     239      FORA     LPO11    LPDO1   -0.380000       0.00000          -1   0.00000       0.00000    
     12868 FORA     239      FORA     LPO12    LPDO1   -0.380000       0.00000          -1   0.00000       0.00000    
     12869 FORA     240      FORA     C        CD2O2A    2.99370       11.6110           0  -1.01600      0.899000    
     12870 FORA     240      FORA     DC       DRUD     -2.47370      0.400000           0   0.00000       0.00000    
     12871 FORA     240      FORA     H        HDP1C     0.00000       1.00800           0   0.00000       0.00000    
     12872 FORA     240      FORA     O2       OD2C2A    2.05180       15.5994           0 -0.699000       2.39900    
     12873 FORA     240      FORA     DO2      DRUD     -2.05180      0.400000           0   0.00000       0.00000    
     12874 FORA     240      FORA     O1       OD2C2A    2.05180       15.5994           0 -0.699000       2.39900    
     12875 FORA     240      FORA     DO1      DRUD     -2.05180      0.400000           0   0.00000       0.00000    
     12876 FORA     240      FORA     HO1      DUMH      0.00000       1.00800           0   0.00000       0.00000    
     12877 FORA     240      FORA     LPO21    LPDO1   -0.380000       0.00000          -1   0.00000       0.00000    
     12878 FORA     240      FORA     LPO22    LPDO1   -0.380000       0.00000          -1   0.00000       0.00000    
     12879 FORA     240      FORA     LPO11    LPDO1   -0.380000       0.00000          -1   0.00000       0.00000    
     12880 FORA     240      FORA     LPO12    LPDO1   -0.380000       0.00000          -1   0.00000       0.00000    
     12881 FORA     241      FORA     C        CD2O2A    2.99370       11.6110           0  -1.01600      0.899000    
     12882 FORA     241      FORA     DC       DRUD     -2.47370      0.400000           0   0.00000       0.00000    
     12883 FORA     241      FORA     H        HDP1C     0.00000       1.00800           0   0.00000       0.00000    
     12884 FORA     241      FORA     O2       OD2C2A    2.05180       15.5994           0 -0.699000       2.39900    
     12885 FORA     241      FORA     DO2      DRUD     -2.05180      0.400000           0   0.00000       0.00000    
     12886 FORA     241      FORA     O1       OD2C2A    2.05180       15.5994           0 -0.699000       2.39900    
     12887 FORA     241      FORA     DO1      DRUD     -2.05180      0.400000           0   0.00000       0.00000    
     12888 FORA     241      FORA     HO1      DUMH      0.00000       1.00800           0   0.00000       0.00000    
     12889 FORA     241      FORA     LPO21    LPDO1   -0.380000       0.00000          -1   0.00000       0.00000    
     12890 FORA     241      FORA     LPO22    LPDO1   -0.380000       0.00000          -1   0.00000       0.00000    
     12891 FORA     241      FORA     LPO11    LPDO1   -0.380000       0.00000          -1   0.00000       0.00000    
     12892 FORA     241      FORA     LPO12    LPDO1   -0.380000       0.00000          -1   0.00000       0.00000    
     12893 FORA     242      FORA     C        CD2O2A    2.99370       11.6110           0  -1.01600      0.899000    
     12894 FORA     242      FORA     DC       DRUD     -2.47370      0.400000           0   0.00000       0.00000    
     12895 FORA     242      FORA     H        HDP1C     0.00000       1.00800           0   0.00000       0.00000    
     12896 FORA     242      FORA     O2       OD2C2A    2.05180       15.5994           0 -0.699000       2.39900    
     12897 FORA     242      FORA     DO2      DRUD     -2.05180      0.400000           0   0.00000       0.00000    
     12898 FORA     242      FORA     O1       OD2C2A    2.05180       15.5994           0 -0.699000       2.39900    
     12899 FORA     242      FORA     DO1      DRUD     -2.05180      0.400000           0   0.00000       0.00000    
     12900 FORA     242      FORA     HO1      DUMH      0.00000       1.00800           0   0.00000       0.00000    
     12901 FORA     242      FORA     LPO21    LPDO1   -0.380000       0.00000          -1   0.00000       0.00000    
     12902 FORA     242      FORA     LPO22    LPDO1   -0.380000       0.00000          -1   0.00000       0.00000    
     12903 FORA     242      FORA     LPO11    LPDO1   -0.380000       0.00000          -1   0.00000       0.00000    
     12904 FORA     242      FORA     LPO12    LPDO1   -0.380000       0.00000          -1   0.00000       0.00000    
     12905 FORA     243      FORA     C        CD2O2A    2.99370       11.6110           0  -1.01600      0.899000    
     12906 FORA     243      FORA     DC       DRUD     -2.47370      0.400000           0   0.00000       0.00000    
     12907 FORA     243      FORA     H        HDP1C     0.00000       1.00800           0   0.00000       0.00000    
     12908 FORA     243      FORA     O2       OD2C2A    2.05180       15.5994           0 -0.699000       2.39900    
     12909 FORA     243      FORA     DO2      DRUD     -2.05180      0.400000           0   0.00000       0.00000    
     12910 FORA     243      FORA     O1       OD2C2A    2.05180       15.5994           0 -0.699000       2.39900    
     12911 FORA     243      FORA     DO1      DRUD     -2.05180      0.400000           0   0.00000       0.00000    
     12912 FORA     243      FORA     HO1      DUMH      0.00000       1.00800           0   0.00000       0.00000    
     12913 FORA     243      FORA     LPO21    LPDO1   -0.380000       0.00000          -1   0.00000       0.00000    
     12914 FORA     243      FORA     LPO22    LPDO1   -0.380000       0.00000          -1   0.00000       0.00000    
     12915 FORA     243      FORA     LPO11    LPDO1   -0.380000       0.00000          -1   0.00000       0.00000    
     12916 FORA     243      FORA     LPO12    LPDO1   -0.380000       0.00000          -1   0.00000       0.00000    
     12917 FORA     244      FORA     C        CD2O2A    2.99370       11.6110           0  -1.01600      0.899000    
     12918 FORA     244      FORA     DC       DRUD     -2.47370      0.400000           0   0.00000       0.00000    
     12919 FORA     244      FORA     H        HDP1C     0.00000       1.00800           0   0.00000       0.00000    
     12920 FORA     244      FORA     O2       OD2C2A    2.05180       15.5994           0 -0.699000       2.39900    
     12921 FORA     244      FORA     DO2      DRUD     -2.05180      0.400000           0   0.00000       0.00000    
     12922 FORA     244      FORA     O1       OD2C2A    2.05180       15.5994           0 -0.699000       2.39900    
     12923 FORA     244      FORA     DO1      DRUD     -2.05180      0.400000           0   0.00000       0.00000    
     12924 FORA     244      FORA     HO1      DUMH      0.00000       1.00800           0   0.00000       0.00000    
     12925 FORA     244      FORA     LPO21    LPDO1   -0.380000       0.00000          -1   0.00000       0.00000    
     12926 FORA     244      FORA     LPO22    LPDO1   -0.380000       0.00000          -1   0.00000       0.00000    
     12927 FORA     244      FORA     LPO11    LPDO1   -0.380000       0.00000          -1   0.00000       0.00000    
     12928 FORA     244      FORA     LPO12    LPDO1   -0.380000       0.00000          -1   0.00000       0.00000    
     12929 FORA     245      FORA     C        CD2O2A    2.99370       11.6110           0  -1.01600      0.899000    
     12930 FORA     245      FORA     DC       DRUD     -2.47370      0.400000           0   0.00000       0.00000    
     12931 FORA     245      FORA     H        HDP1C     0.00000       1.00800           0   0.00000       0.00000    
     12932 FORA     245      FORA     O2       OD2C2A    2.05180       15.5994           0 -0.699000       2.39900    
     12933 FORA     245      FORA     DO2      DRUD     -2.05180      0.400000           0   0.00000       0.00000    
     12934 FORA     245      FORA     O1       OD2C2A    2.05180       15.5994           0 -0.699000       2.39900    
     12935 FORA     245      FORA     DO1      DRUD     -2.05180      0.400000           0   0.00000       0.00000    
     12936 FORA     245      FORA     HO1      DUMH      0.00000       1.00800           0   0.00000       0.00000    
     12937 FORA     245      FORA     LPO21    LPDO1   -0.380000       0.00000          -1   0.00000       0.00000    
     12938 FORA     245      FORA     LPO22    LPDO1   -0.380000       0.00000          -1   0.00000       0.00000    
     12939 FORA     245      FORA     LPO11    LPDO1   -0.380000       0.00000          -1   0.00000       0.00000    
     12940 FORA     245      FORA     LPO12    LPDO1   -0.380000       0.00000          -1   0.00000       0.00000    
     12941 FORA     246      FORA     C        CD2O2A    2.99370       11.6110           0  -1.01600      0.899000    
     12942 FORA     246      FORA     DC       DRUD     -2.47370      0.400000           0   0.00000       0.00000    
     12943 FORA     246      FORA     H        HDP1C     0.00000       1.00800           0   0.00000       0.00000    
     12944 FORA     246      FORA     O2       OD2C2A    2.05180       15.5994           0 -0.699000       2.39900    
     12945 FORA     246      FORA     DO2      DRUD     -2.05180      0.400000           0   0.00000       0.00000    
     12946 FORA     246      FORA     O1       OD2C2A    2.05180       15.5994           0 -0.699000       2.39900    
     12947 FORA     246      FORA     DO1      DRUD     -2.05180      0.400000           0   0.00000       0.00000    
     12948 FORA     246      FORA     HO1      DUMH      0.00000       1.00800           0   0.00000       0.00000    
     12949 FORA     246      FORA     LPO21    LPDO1   -0.380000       0.00000          -1   0.00000       0.00000    
     12950 FORA     246      FORA     LPO22    LPDO1   -0.380000       0.00000          -1   0.00000       0.00000    
     12951 FORA     246      FORA     LPO11    LPDO1   -0.380000       0.00000          -1   0.00000       0.00000    
     12952 FORA     246      FORA     LPO12    LPDO1   -0.380000       0.00000          -1   0.00000       0.00000    
     12953 FORA     247      FORA     C        CD2O2A    2.99370       11.6110           0  -1.01600      0.899000    
     12954 FORA     247      FORA     DC       DRUD     -2.47370      0.400000           0   0.00000       0.00000    
     12955 FORA     247      FORA     H        HDP1C     0.00000       1.00800           0   0.00000       0.00000    
     12956 FORA     247      FORA     O2       OD2C2A    2.05180       15.5994           0 -0.699000       2.39900    
     12957 FORA     247      FORA     DO2      DRUD     -2.05180      0.400000           0   0.00000       0.00000    
     12958 FORA     247      FORA     O1       OD2C2A    2.05180       15.5994           0 -0.699000       2.39900    
     12959 FORA     247      FORA     DO1      DRUD     -2.05180      0.400000           0   0.00000       0.00000    
     12960 FORA     247      FORA     HO1      DUMH      0.00000       1.00800           0   0.00000       0.00000    
     12961 FORA     247      FORA     LPO21    LPDO1   -0.380000       0.00000          -1   0.00000       0.00000    
     12962 FORA     247      FORA     LPO22    LPDO1   -0.380000       0.00000          -1   0.00000       0.00000    
     12963 FORA     247      FORA     LPO11    LPDO1   -0.380000       0.00000          -1   0.00000       0.00000    
     12964 FORA     247      FORA     LPO12    LPDO1   -0.380000       0.00000          -1   0.00000       0.00000    
     12965 FORA     248      FORA     C        CD2O2A    2.99370       11.6110           0  -1.01600      0.899000    
     12966 FORA     248      FORA     DC       DRUD     -2.47370      0.400000           0   0.00000       0.00000    
     12967 FORA     248      FORA     H        HDP1C     0.00000       1.00800           0   0.00000       0.00000    
     12968 FORA     248      FORA     O2       OD2C2A    2.05180       15.5994           0 -0.699000       2.39900    
     12969 FORA     248      FORA     DO2      DRUD     -2.05180      0.400000           0   0.00000       0.00000    
     12970 FORA     248      FORA     O1       OD2C2A    2.05180       15.5994           0 -0.699000       2.39900    
     12971 FORA     248      FORA     DO1      DRUD     -2.05180      0.400000           0   0.00000       0.00000    
     12972 FORA     248      FORA     HO1      DUMH      0.00000       1.00800           0   0.00000       0.00000    
     12973 FORA     248      FORA     LPO21    LPDO1   -0.380000       0.00000          -1   0.00000       0.00000    
     12974 FORA     248      FORA     LPO22    LPDO1   -0.380000       0.00000          -1   0.00000       0.00000    
     12975 FORA     248      FORA     LPO11    LPDO1   -0.380000       0.00000          -1   0.00000       0.00000    
     12976 FORA     248      FORA     LPO12    LPDO1   -0.380000       0.00000          -1   0.00000       0.00000    
     12977 FORA     249      FORA     C        CD2O2A    2.99370       11.6110           0  -1.01600      0.899000    
     12978 FORA     249      FORA     DC       DRUD     -2.47370      0.400000           0   0.00000       0.00000    
     12979 FORA     249      FORA     H        HDP1C     0.00000       1.00800           0   0.00000       0.00000    
     12980 FORA     249      FORA     O2       OD2C2A    2.05180       15.5994           0 -0.699000       2.39900    
     12981 FORA     249      FORA     DO2      DRUD     -2.05180      0.400000           0   0.00000       0.00000    
     12982 FORA     249      FORA     O1       OD2C2A    2.05180       15.5994           0 -0.699000       2.39900    
     12983 FORA     249      FORA     DO1      DRUD     -2.05180      0.400000           0   0.00000       0.00000    
     12984 FORA     249      FORA     HO1      DUMH      0.00000       1.00800           0   0.00000       0.00000    
     12985 FORA     249      FORA     LPO21    LPDO1   -0.380000       0.00000          -1   0.00000       0.00000    
     12986 FORA     249      FORA     LPO22    LPDO1   -0.380000       0.00000          -1   0.00000       0.00000    
     12987 FORA     249      FORA     LPO11    LPDO1   -0.380000       0.00000          -1   0.00000       0.00000    
     12988 FORA     249      FORA     LPO12    LPDO1   -0.380000       0.00000          -1   0.00000       0.00000    
     12989 FORA     250      FORA     C        CD2O2A    2.99370       11.6110           0  -1.01600      0.899000    
     12990 FORA     250      FORA     DC       DRUD     -2.47370      0.400000           0   0.00000       0.00000    
     12991 FORA     250      FORA     H        HDP1C     0.00000       1.00800           0   0.00000       0.00000    
     12992 FORA     250      FORA     O2       OD2C2A    2.05180       15.5994           0 -0.699000       2.39900    
     12993 FORA     250      FORA     DO2      DRUD     -2.05180      0.400000           0   0.00000       0.00000    
     12994 FORA     250      FORA     O1       OD2C2A    2.05180       15.5994           0 -0.699000       2.39900    
     12995 FORA     250      FORA     DO1      DRUD     -2.05180      0.400000           0   0.00000       0.00000    
     12996 FORA     250      FORA     HO1      DUMH      0.00000       1.00800           0   0.00000       0.00000    
     12997 FORA     250      FORA     LPO21    LPDO1   -0.380000       0.00000          -1   0.00000       0.00000    
     12998 FORA     250      FORA     LPO22    LPDO1   -0.380000       0.00000          -1   0.00000       0.00000    
     12999 FORA     250      FORA     LPO11    LPDO1   -0.380000       0.00000          -1   0.00000       0.00000    
     13000 FORA     250      FORA     LPO12    LPDO1   -0.380000       0.00000          -1   0.00000       0.00000    
     13001 FORA     251      FORA     C        CD2O2A    2.99370       11.6110           0  -1.01600      0.899000    
     13002 FORA     251      FORA     DC       DRUD     -2.47370      0.400000           0   0.00000       0.00000    
     13003 FORA     251      FORA     H        HDP1C     0.00000       1.00800           0   0.00000       0.00000    
     13004 FORA     251      FORA     O2       OD2C2A    2.05180       15.5994           0 -0.699000       2.39900    
     13005 FORA     251      FORA     DO2      DRUD     -2.05180      0.400000           0   0.00000       0.00000    
     13006 FORA     251      FORA     O1       OD2C2A    2.05180       15.5994           0 -0.699000       2.39900    
     13007 FORA     251      FORA     DO1      DRUD     -2.05180      0.400000           0   0.00000       0.00000    
     13008 FORA     251      FORA     HO1      DUMH      0.00000       1.00800           0   0.00000       0.00000    
     13009 FORA     251      FORA     LPO21    LPDO1   -0.380000       0.00000          -1   0.00000       0.00000    
     13010 FORA     251      FORA     LPO22    LPDO1   -0.380000       0.00000          -1   0.00000       0.00000    
     13011 FORA     251      FORA     LPO11    LPDO1   -0.380000       0.00000          -1   0.00000       0.00000    
     13012 FORA     251      FORA     LPO12    LPDO1   -0.380000       0.00000          -1   0.00000       0.00000    
     13013 FORA     252      FORA     C        CD2O2A    2.99370       11.6110           0  -1.01600      0.899000    
     13014 FORA     252      FORA     DC       DRUD     -2.47370      0.400000           0   0.00000       0.00000    
     13015 FORA     252      FORA     H        HDP1C     0.00000       1.00800           0   0.00000       0.00000    
     13016 FORA     252      FORA     O2       OD2C2A    2.05180       15.5994           0 -0.699000       2.39900    
     13017 FORA     252      FORA     DO2      DRUD     -2.05180      0.400000           0   0.00000       0.00000    
     13018 FORA     252      FORA     O1       OD2C2A    2.05180       15.5994           0 -0.699000       2.39900    
     13019 FORA     252      FORA     DO1      DRUD     -2.05180      0.400000           0   0.00000       0.00000    
     13020 FORA     252      FORA     HO1      DUMH      0.00000       1.00800           0   0.00000       0.00000    
     13021 FORA     252      FORA     LPO21    LPDO1   -0.380000       0.00000          -1   0.00000       0.00000    
     13022 FORA     252      FORA     LPO22    LPDO1   -0.380000       0.00000          -1   0.00000       0.00000    
     13023 FORA     252      FORA     LPO11    LPDO1   -0.380000       0.00000          -1   0.00000       0.00000    
     13024 FORA     252      FORA     LPO12    LPDO1   -0.380000       0.00000          -1   0.00000       0.00000    
     13025 FORA     253      FORA     C        CD2O2A    2.99370       11.6110           0  -1.01600      0.899000    
     13026 FORA     253      FORA     DC       DRUD     -2.47370      0.400000           0   0.00000       0.00000    
     13027 FORA     253      FORA     H        HDP1C     0.00000       1.00800           0   0.00000       0.00000    
     13028 FORA     253      FORA     O2       OD2C2A    2.05180       15.5994           0 -0.699000       2.39900    
     13029 FORA     253      FORA     DO2      DRUD     -2.05180      0.400000           0   0.00000       0.00000    
     13030 FORA     253      FORA     O1       OD2C2A    2.05180       15.5994           0 -0.699000       2.39900    
     13031 FORA     253      FORA     DO1      DRUD     -2.05180      0.400000           0   0.00000       0.00000    
     13032 FORA     253      FORA     HO1      DUMH      0.00000       1.00800           0   0.00000       0.00000    
     13033 FORA     253      FORA     LPO21    LPDO1   -0.380000       0.00000          -1   0.00000       0.00000    
     13034 FORA     253      FORA     LPO22    LPDO1   -0.380000       0.00000          -1   0.00000       0.00000    
     13035 FORA     253      FORA     LPO11    LPDO1   -0.380000       0.00000          -1   0.00000       0.00000    
     13036 FORA     253      FORA     LPO12    LPDO1   -0.380000       0.00000          -1   0.00000       0.00000    
     13037 FORA     254      FORA     C        CD2O2A    2.99370       11.6110           0  -1.01600      0.899000    
     13038 FORA     254      FORA     DC       DRUD     -2.47370      0.400000           0   0.00000       0.00000    
     13039 FORA     254      FORA     H        HDP1C     0.00000       1.00800           0   0.00000       0.00000    
     13040 FORA     254      FORA     O2       OD2C2A    2.05180       15.5994           0 -0.699000       2.39900    
     13041 FORA     254      FORA     DO2      DRUD     -2.05180      0.400000           0   0.00000       0.00000    
     13042 FORA     254      FORA     O1       OD2C2A    2.05180       15.5994           0 -0.699000       2.39900    
     13043 FORA     254      FORA     DO1      DRUD     -2.05180      0.400000           0   0.00000       0.00000    
     13044 FORA     254      FORA     HO1      DUMH      0.00000       1.00800           0   0.00000       0.00000    
     13045 FORA     254      FORA     LPO21    LPDO1   -0.380000       0.00000          -1   0.00000       0.00000    
     13046 FORA     254      FORA     LPO22    LPDO1   -0.380000       0.00000          -1   0.00000       0.00000    
     13047 FORA     254      FORA     LPO11    LPDO1   -0.380000       0.00000          -1   0.00000       0.00000    
     13048 FORA     254      FORA     LPO12    LPDO1   -0.380000       0.00000          -1   0.00000       0.00000    
     13049 FORA     255      FORA     C        CD2O2A    2.99370       11.6110           0  -1.01600      0.899000    
     13050 FORA     255      FORA     DC       DRUD     -2.47370      0.400000           0   0.00000       0.00000    
     13051 FORA     255      FORA     H        HDP1C     0.00000       1.00800           0   0.00000       0.00000    
     13052 FORA     255      FORA     O2       OD2C2A    2.05180       15.5994           0 -0.699000       2.39900    
     13053 FORA     255      FORA     DO2      DRUD     -2.05180      0.400000           0   0.00000       0.00000    
     13054 FORA     255      FORA     O1       OD2C2A    2.05180       15.5994           0 -0.699000       2.39900    
     13055 FORA     255      FORA     DO1      DRUD     -2.05180      0.400000           0   0.00000       0.00000    
     13056 FORA     255      FORA     HO1      DUMH      0.00000       1.00800           0   0.00000       0.00000    
     13057 FORA     255      FORA     LPO21    LPDO1   -0.380000       0.00000          -1   0.00000       0.00000    
     13058 FORA     255      FORA     LPO22    LPDO1   -0.380000       0.00000          -1   0.00000       0.00000    
     13059 FORA     255      FORA     LPO11    LPDO1   -0.380000       0.00000          -1   0.00000       0.00000    
     13060 FORA     255      FORA     LPO12    LPDO1   -0.380000       0.00000          -1   0.00000       0.00000    
     13061 FORA     256      FORA     C        CD2O2A    2.99370       11.6110           0  -1.01600      0.899000    
     13062 FORA     256      FORA     DC       DRUD     -2.47370      0.400000           0   0.00000       0.00000    
     13063 FORA     256      FORA     H        HDP1C     0.00000       1.00800           0   0.00000       0.00000    
     13064 FORA     256      FORA     O2       OD2C2A    2.05180       15.5994           0 -0.699000       2.39900    
     13065 FORA     256      FORA     DO2      DRUD     -2.05180      0.400000           0   0.00000       0.00000    
     13066 FORA     256      FORA     O1       OD2C2A    2.05180       15.5994           0 -0.699000       2.39900    
     13067 FORA     256      FORA     DO1      DRUD     -2.05180      0.400000           0   0.00000       0.00000    
     13068 FORA     256      FORA     HO1      DUMH      0.00000       1.00800           0   0.00000       0.00000    
     13069 FORA     256      FORA     LPO21    LPDO1   -0.380000       0.00000          -1   0.00000       0.00000    
     13070 FORA     256      FORA     LPO22    LPDO1   -0.380000       0.00000          -1   0.00000       0.00000    
     13071 FORA     256      FORA     LPO11    LPDO1   -0.380000       0.00000          -1   0.00000       0.00000    
     13072 FORA     256      FORA     LPO12    LPDO1   -0.380000       0.00000          -1   0.00000       0.00000    
     13073 FORA     257      FORA     C        CD2O2A    2.99370       11.6110           0  -1.01600      0.899000    
     13074 FORA     257      FORA     DC       DRUD     -2.47370      0.400000           0   0.00000       0.00000    
     13075 FORA     257      FORA     H        HDP1C     0.00000       1.00800           0   0.00000       0.00000    
     13076 FORA     257      FORA     O2       OD2C2A    2.05180       15.5994           0 -0.699000       2.39900    
     13077 FORA     257      FORA     DO2      DRUD     -2.05180      0.400000           0   0.00000       0.00000    
     13078 FORA     257      FORA     O1       OD2C2A    2.05180       15.5994           0 -0.699000       2.39900    
     13079 FORA     257      FORA     DO1      DRUD     -2.05180      0.400000           0   0.00000       0.00000    
     13080 FORA     257      FORA     HO1      DUMH      0.00000       1.00800           0   0.00000       0.00000    
     13081 FORA     257      FORA     LPO21    LPDO1   -0.380000       0.00000          -1   0.00000       0.00000    
     13082 FORA     257      FORA     LPO22    LPDO1   -0.380000       0.00000          -1   0.00000       0.00000    
     13083 FORA     257      FORA     LPO11    LPDO1   -0.380000       0.00000          -1   0.00000       0.00000    
     13084 FORA     257      FORA     LPO12    LPDO1   -0.380000       0.00000          -1   0.00000       0.00000    
     13085 FORA     258      FORA     C        CD2O2A    2.99370       11.6110           0  -1.01600      0.899000    
     13086 FORA     258      FORA     DC       DRUD     -2.47370      0.400000           0   0.00000       0.00000    
     13087 FORA     258      FORA     H        HDP1C     0.00000       1.00800           0   0.00000       0.00000    
     13088 FORA     258      FORA     O2       OD2C2A    2.05180       15.5994           0 -0.699000       2.39900    
     13089 FORA     258      FORA     DO2      DRUD     -2.05180      0.400000           0   0.00000       0.00000    
     13090 FORA     258      FORA     O1       OD2C2A    2.05180       15.5994           0 -0.699000       2.39900    
     13091 FORA     258      FORA     DO1      DRUD     -2.05180      0.400000           0   0.00000       0.00000    
     13092 FORA     258      FORA     HO1      DUMH      0.00000       1.00800           0   0.00000       0.00000    
     13093 FORA     258      FORA     LPO21    LPDO1   -0.380000       0.00000          -1   0.00000       0.00000    
     13094 FORA     258      FORA     LPO22    LPDO1   -0.380000       0.00000          -1   0.00000       0.00000    
     13095 FORA     258      FORA     LPO11    LPDO1   -0.380000       0.00000          -1   0.00000       0.00000    
     13096 FORA     258      FORA     LPO12    LPDO1   -0.380000       0.00000          -1   0.00000       0.00000    
     13097 FORA     259      FORA     C        CD2O2A    2.99370       11.6110           0  -1.01600      0.899000    
     13098 FORA     259      FORA     DC       DRUD     -2.47370      0.400000           0   0.00000       0.00000    
     13099 FORA     259      FORA     H        HDP1C     0.00000       1.00800           0   0.00000       0.00000    
     13100 FORA     259      FORA     O2       OD2C2A    2.05180       15.5994           0 -0.699000       2.39900    
     13101 FORA     259      FORA     DO2      DRUD     -2.05180      0.400000           0   0.00000       0.00000    
     13102 FORA     259      FORA     O1       OD2C2A    2.05180       15.5994           0 -0.699000       2.39900    
     13103 FORA     259      FORA     DO1      DRUD     -2.05180      0.400000           0   0.00000       0.00000    
     13104 FORA     259      FORA     HO1      DUMH      0.00000       1.00800           0   0.00000       0.00000    
     13105 FORA     259      FORA     LPO21    LPDO1   -0.380000       0.00000          -1   0.00000       0.00000    
     13106 FORA     259      FORA     LPO22    LPDO1   -0.380000       0.00000          -1   0.00000       0.00000    
     13107 FORA     259      FORA     LPO11    LPDO1   -0.380000       0.00000          -1   0.00000       0.00000    
     13108 FORA     259      FORA     LPO12    LPDO1   -0.380000       0.00000          -1   0.00000       0.00000    
     13109 FORA     260      FORA     C        CD2O2A    2.99370       11.6110           0  -1.01600      0.899000    
     13110 FORA     260      FORA     DC       DRUD     -2.47370      0.400000           0   0.00000       0.00000    
     13111 FORA     260      FORA     H        HDP1C     0.00000       1.00800           0   0.00000       0.00000    
     13112 FORA     260      FORA     O2       OD2C2A    2.05180       15.5994           0 -0.699000       2.39900    
     13113 FORA     260      FORA     DO2      DRUD     -2.05180      0.400000           0   0.00000       0.00000    
     13114 FORA     260      FORA     O1       OD2C2A    2.05180       15.5994           0 -0.699000       2.39900    
     13115 FORA     260      FORA     DO1      DRUD     -2.05180      0.400000           0   0.00000       0.00000    
     13116 FORA     260      FORA     HO1      DUMH      0.00000       1.00800           0   0.00000       0.00000    
     13117 FORA     260      FORA     LPO21    LPDO1   -0.380000       0.00000          -1   0.00000       0.00000    
     13118 FORA     260      FORA     LPO22    LPDO1   -0.380000       0.00000          -1   0.00000       0.00000    
     13119 FORA     260      FORA     LPO11    LPDO1   -0.380000       0.00000          -1   0.00000       0.00000    
     13120 FORA     260      FORA     LPO12    LPDO1   -0.380000       0.00000          -1   0.00000       0.00000    
     13121 FORA     261      FORA     C        CD2O2A    2.99370       11.6110           0  -1.01600      0.899000    
     13122 FORA     261      FORA     DC       DRUD     -2.47370      0.400000           0   0.00000       0.00000    
     13123 FORA     261      FORA     H        HDP1C     0.00000       1.00800           0   0.00000       0.00000    
     13124 FORA     261      FORA     O2       OD2C2A    2.05180       15.5994           0 -0.699000       2.39900    
     13125 FORA     261      FORA     DO2      DRUD     -2.05180      0.400000           0   0.00000       0.00000    
     13126 FORA     261      FORA     O1       OD2C2A    2.05180       15.5994           0 -0.699000       2.39900    
     13127 FORA     261      FORA     DO1      DRUD     -2.05180      0.400000           0   0.00000       0.00000    
     13128 FORA     261      FORA     HO1      DUMH      0.00000       1.00800           0   0.00000       0.00000    
     13129 FORA     261      FORA     LPO21    LPDO1   -0.380000       0.00000          -1   0.00000       0.00000    
     13130 FORA     261      FORA     LPO22    LPDO1   -0.380000       0.00000          -1   0.00000       0.00000    
     13131 FORA     261      FORA     LPO11    LPDO1   -0.380000       0.00000          -1   0.00000       0.00000    
     13132 FORA     261      FORA     LPO12    LPDO1   -0.380000       0.00000          -1   0.00000       0.00000    
     13133 FORA     262      FORA     C        CD2O2A    2.99370       11.6110           0  -1.01600      0.899000    
     13134 FORA     262      FORA     DC       DRUD     -2.47370      0.400000           0   0.00000       0.00000    
     13135 FORA     262      FORA     H        HDP1C     0.00000       1.00800           0   0.00000       0.00000    
     13136 FORA     262      FORA     O2       OD2C2A    2.05180       15.5994           0 -0.699000       2.39900    
     13137 FORA     262      FORA     DO2      DRUD     -2.05180      0.400000           0   0.00000       0.00000    
     13138 FORA     262      FORA     O1       OD2C2A    2.05180       15.5994           0 -0.699000       2.39900    
     13139 FORA     262      FORA     DO1      DRUD     -2.05180      0.400000           0   0.00000       0.00000    
     13140 FORA     262      FORA     HO1      DUMH      0.00000       1.00800           0   0.00000       0.00000    
     13141 FORA     262      FORA     LPO21    LPDO1   -0.380000       0.00000          -1   0.00000       0.00000    
     13142 FORA     262      FORA     LPO22    LPDO1   -0.380000       0.00000          -1   0.00000       0.00000    
     13143 FORA     262      FORA     LPO11    LPDO1   -0.380000       0.00000          -1   0.00000       0.00000    
     13144 FORA     262      FORA     LPO12    LPDO1   -0.380000       0.00000          -1   0.00000       0.00000    
     13145 FORA     263      FORA     C        CD2O2A    2.99370       11.6110           0  -1.01600      0.899000    
     13146 FORA     263      FORA     DC       DRUD     -2.47370      0.400000           0   0.00000       0.00000    
     13147 FORA     263      FORA     H        HDP1C     0.00000       1.00800           0   0.00000       0.00000    
     13148 FORA     263      FORA     O2       OD2C2A    2.05180       15.5994           0 -0.699000       2.39900    
     13149 FORA     263      FORA     DO2      DRUD     -2.05180      0.400000           0   0.00000       0.00000    
     13150 FORA     263      FORA     O1       OD2C2A    2.05180       15.5994           0 -0.699000       2.39900    
     13151 FORA     263      FORA     DO1      DRUD     -2.05180      0.400000           0   0.00000       0.00000    
     13152 FORA     263      FORA     HO1      DUMH      0.00000       1.00800           0   0.00000       0.00000    
     13153 FORA     263      FORA     LPO21    LPDO1   -0.380000       0.00000          -1   0.00000       0.00000    
     13154 FORA     263      FORA     LPO22    LPDO1   -0.380000       0.00000          -1   0.00000       0.00000    
     13155 FORA     263      FORA     LPO11    LPDO1   -0.380000       0.00000          -1   0.00000       0.00000    
     13156 FORA     263      FORA     LPO12    LPDO1   -0.380000       0.00000          -1   0.00000       0.00000    
     13157 FORA     264      FORA     C        CD2O2A    2.99370       11.6110           0  -1.01600      0.899000    
     13158 FORA     264      FORA     DC       DRUD     -2.47370      0.400000           0   0.00000       0.00000    
     13159 FORA     264      FORA     H        HDP1C     0.00000       1.00800           0   0.00000       0.00000    
     13160 FORA     264      FORA     O2       OD2C2A    2.05180       15.5994           0 -0.699000       2.39900    
     13161 FORA     264      FORA     DO2      DRUD     -2.05180      0.400000           0   0.00000       0.00000    
     13162 FORA     264      FORA     O1       OD2C2A    2.05180       15.5994           0 -0.699000       2.39900    
     13163 FORA     264      FORA     DO1      DRUD     -2.05180      0.400000           0   0.00000       0.00000    
     13164 FORA     264      FORA     HO1      DUMH      0.00000       1.00800           0   0.00000       0.00000    
     13165 FORA     264      FORA     LPO21    LPDO1   -0.380000       0.00000          -1   0.00000       0.00000    
     13166 FORA     264      FORA     LPO22    LPDO1   -0.380000       0.00000          -1   0.00000       0.00000    
     13167 FORA     264      FORA     LPO11    LPDO1   -0.380000       0.00000          -1   0.00000       0.00000    
     13168 FORA     264      FORA     LPO12    LPDO1   -0.380000       0.00000          -1   0.00000       0.00000    
     13169 FORA     265      FORA     C        CD2O2A    2.99370       11.6110           0  -1.01600      0.899000    
     13170 FORA     265      FORA     DC       DRUD     -2.47370      0.400000           0   0.00000       0.00000    
     13171 FORA     265      FORA     H        HDP1C     0.00000       1.00800           0   0.00000       0.00000    
     13172 FORA     265      FORA     O2       OD2C2A    2.05180       15.5994           0 -0.699000       2.39900    
     13173 FORA     265      FORA     DO2      DRUD     -2.05180      0.400000           0   0.00000       0.00000    
     13174 FORA     265      FORA     O1       OD2C2A    2.05180       15.5994           0 -0.699000       2.39900    
     13175 FORA     265      FORA     DO1      DRUD     -2.05180      0.400000           0   0.00000       0.00000    
     13176 FORA     265      FORA     HO1      DUMH      0.00000       1.00800           0   0.00000       0.00000    
     13177 FORA     265      FORA     LPO21    LPDO1   -0.380000       0.00000          -1   0.00000       0.00000    
     13178 FORA     265      FORA     LPO22    LPDO1   -0.380000       0.00000          -1   0.00000       0.00000    
     13179 FORA     265      FORA     LPO11    LPDO1   -0.380000       0.00000          -1   0.00000       0.00000    
     13180 FORA     265      FORA     LPO12    LPDO1   -0.380000       0.00000          -1   0.00000       0.00000    
     13181 FORA     266      FORA     C        CD2O2A    2.99370       11.6110           0  -1.01600      0.899000    
     13182 FORA     266      FORA     DC       DRUD     -2.47370      0.400000           0   0.00000       0.00000    
     13183 FORA     266      FORA     H        HDP1C     0.00000       1.00800           0   0.00000       0.00000    
     13184 FORA     266      FORA     O2       OD2C2A    2.05180       15.5994           0 -0.699000       2.39900    
     13185 FORA     266      FORA     DO2      DRUD     -2.05180      0.400000           0   0.00000       0.00000    
     13186 FORA     266      FORA     O1       OD2C2A    2.05180       15.5994           0 -0.699000       2.39900    
     13187 FORA     266      FORA     DO1      DRUD     -2.05180      0.400000           0   0.00000       0.00000    
     13188 FORA     266      FORA     HO1      DUMH      0.00000       1.00800           0   0.00000       0.00000    
     13189 FORA     266      FORA     LPO21    LPDO1   -0.380000       0.00000          -1   0.00000       0.00000    
     13190 FORA     266      FORA     LPO22    LPDO1   -0.380000       0.00000          -1   0.00000       0.00000    
     13191 FORA     266      FORA     LPO11    LPDO1   -0.380000       0.00000          -1   0.00000       0.00000    
     13192 FORA     266      FORA     LPO12    LPDO1   -0.380000       0.00000          -1   0.00000       0.00000    
     13193 FORA     267      FORA     C        CD2O2A    2.99370       11.6110           0  -1.01600      0.899000    
     13194 FORA     267      FORA     DC       DRUD     -2.47370      0.400000           0   0.00000       0.00000    
     13195 FORA     267      FORA     H        HDP1C     0.00000       1.00800           0   0.00000       0.00000    
     13196 FORA     267      FORA     O2       OD2C2A    2.05180       15.5994           0 -0.699000       2.39900    
     13197 FORA     267      FORA     DO2      DRUD     -2.05180      0.400000           0   0.00000       0.00000    
     13198 FORA     267      FORA     O1       OD2C2A    2.05180       15.5994           0 -0.699000       2.39900    
     13199 FORA     267      FORA     DO1      DRUD     -2.05180      0.400000           0   0.00000       0.00000    
     13200 FORA     267      FORA     HO1      DUMH      0.00000       1.00800           0   0.00000       0.00000    
     13201 FORA     267      FORA     LPO21    LPDO1   -0.380000       0.00000          -1   0.00000       0.00000    
     13202 FORA     267      FORA     LPO22    LPDO1   -0.380000       0.00000          -1   0.00000       0.00000    
     13203 FORA     267      FORA     LPO11    LPDO1   -0.380000       0.00000          -1   0.00000       0.00000    
     13204 FORA     267      FORA     LPO12    LPDO1   -0.380000       0.00000          -1   0.00000       0.00000    
     13205 FORA     268      FORA     C        CD2O2A    2.99370       11.6110           0  -1.01600      0.899000    
     13206 FORA     268      FORA     DC       DRUD     -2.47370      0.400000           0   0.00000       0.00000    
     13207 FORA     268      FORA     H        HDP1C     0.00000       1.00800           0   0.00000       0.00000    
     13208 FORA     268      FORA     O2       OD2C2A    2.05180       15.5994           0 -0.699000       2.39900    
     13209 FORA     268      FORA     DO2      DRUD     -2.05180      0.400000           0   0.00000       0.00000    
     13210 FORA     268      FORA     O1       OD2C2A    2.05180       15.5994           0 -0.699000       2.39900    
     13211 FORA     268      FORA     DO1      DRUD     -2.05180      0.400000           0   0.00000       0.00000    
     13212 FORA     268      FORA     HO1      DUMH      0.00000       1.00800           0   0.00000       0.00000    
     13213 FORA     268      FORA     LPO21    LPDO1   -0.380000       0.00000          -1   0.00000       0.00000    
     13214 FORA     268      FORA     LPO22    LPDO1   -0.380000       0.00000          -1   0.00000       0.00000    
     13215 FORA     268      FORA     LPO11    LPDO1   -0.380000       0.00000          -1   0.00000       0.00000    
     13216 FORA     268      FORA     LPO12    LPDO1   -0.380000       0.00000          -1   0.00000       0.00000    
     13217 FORA     269      FORA     C        CD2O2A    2.99370       11.6110           0  -1.01600      0.899000    
     13218 FORA     269      FORA     DC       DRUD     -2.47370      0.400000           0   0.00000       0.00000    
     13219 FORA     269      FORA     H        HDP1C     0.00000       1.00800           0   0.00000       0.00000    
     13220 FORA     269      FORA     O2       OD2C2A    2.05180       15.5994           0 -0.699000       2.39900    
     13221 FORA     269      FORA     DO2      DRUD     -2.05180      0.400000           0   0.00000       0.00000    
     13222 FORA     269      FORA     O1       OD2C2A    2.05180       15.5994           0 -0.699000       2.39900    
     13223 FORA     269      FORA     DO1      DRUD     -2.05180      0.400000           0   0.00000       0.00000    
     13224 FORA     269      FORA     HO1      DUMH      0.00000       1.00800           0   0.00000       0.00000    
     13225 FORA     269      FORA     LPO21    LPDO1   -0.380000       0.00000          -1   0.00000       0.00000    
     13226 FORA     269      FORA     LPO22    LPDO1   -0.380000       0.00000          -1   0.00000       0.00000    
     13227 FORA     269      FORA     LPO11    LPDO1   -0.380000       0.00000          -1   0.00000       0.00000    
     13228 FORA     269      FORA     LPO12    LPDO1   -0.380000       0.00000          -1   0.00000       0.00000    
     13229 FORA     270      FORA     C        CD2O2A    2.99370       11.6110           0  -1.01600      0.899000    
     13230 FORA     270      FORA     DC       DRUD     -2.47370      0.400000           0   0.00000       0.00000    
     13231 FORA     270      FORA     H        HDP1C     0.00000       1.00800           0   0.00000       0.00000    
     13232 FORA     270      FORA     O2       OD2C2A    2.05180       15.5994           0 -0.699000       2.39900    
     13233 FORA     270      FORA     DO2      DRUD     -2.05180      0.400000           0   0.00000       0.00000    
     13234 FORA     270      FORA     O1       OD2C2A    2.05180       15.5994           0 -0.699000       2.39900    
     13235 FORA     270      FORA     DO1      DRUD     -2.05180      0.400000           0   0.00000       0.00000    
     13236 FORA     270      FORA     HO1      DUMH      0.00000       1.00800           0   0.00000       0.00000    
     13237 FORA     270      FORA     LPO21    LPDO1   -0.380000       0.00000          -1   0.00000       0.00000    
     13238 FORA     270      FORA     LPO22    LPDO1   -0.380000       0.00000          -1   0.00000       0.00000    
     13239 FORA     270      FORA     LPO11    LPDO1   -0.380000       0.00000          -1   0.00000       0.00000    
     13240 FORA     270      FORA     LPO12    LPDO1   -0.380000       0.00000          -1   0.00000       0.00000    
     13241 FORA     271      FORA     C        CD2O2A    2.99370       11.6110           0  -1.01600      0.899000    
     13242 FORA     271      FORA     DC       DRUD     -2.47370      0.400000           0   0.00000       0.00000    
     13243 FORA     271      FORA     H        HDP1C     0.00000       1.00800           0   0.00000       0.00000    
     13244 FORA     271      FORA     O2       OD2C2A    2.05180       15.5994           0 -0.699000       2.39900    
     13245 FORA     271      FORA     DO2      DRUD     -2.05180      0.400000           0   0.00000       0.00000    
     13246 FORA     271      FORA     O1       OD2C2A    2.05180       15.5994           0 -0.699000       2.39900    
     13247 FORA     271      FORA     DO1      DRUD     -2.05180      0.400000           0   0.00000       0.00000    
     13248 FORA     271      FORA     HO1      DUMH      0.00000       1.00800           0   0.00000       0.00000    
     13249 FORA     271      FORA     LPO21    LPDO1   -0.380000       0.00000          -1   0.00000       0.00000    
     13250 FORA     271      FORA     LPO22    LPDO1   -0.380000       0.00000          -1   0.00000       0.00000    
     13251 FORA     271      FORA     LPO11    LPDO1   -0.380000       0.00000          -1   0.00000       0.00000    
     13252 FORA     271      FORA     LPO12    LPDO1   -0.380000       0.00000          -1   0.00000       0.00000    
     13253 FORA     272      FORA     C        CD2O2A    2.99370       11.6110           0  -1.01600      0.899000    
     13254 FORA     272      FORA     DC       DRUD     -2.47370      0.400000           0   0.00000       0.00000    
     13255 FORA     272      FORA     H        HDP1C     0.00000       1.00800           0   0.00000       0.00000    
     13256 FORA     272      FORA     O2       OD2C2A    2.05180       15.5994           0 -0.699000       2.39900    
     13257 FORA     272      FORA     DO2      DRUD     -2.05180      0.400000           0   0.00000       0.00000    
     13258 FORA     272      FORA     O1       OD2C2A    2.05180       15.5994           0 -0.699000       2.39900    
     13259 FORA     272      FORA     DO1      DRUD     -2.05180      0.400000           0   0.00000       0.00000    
     13260 FORA     272      FORA     HO1      DUMH      0.00000       1.00800           0   0.00000       0.00000    
     13261 FORA     272      FORA     LPO21    LPDO1   -0.380000       0.00000          -1   0.00000       0.00000    
     13262 FORA     272      FORA     LPO22    LPDO1   -0.380000       0.00000          -1   0.00000       0.00000    
     13263 FORA     272      FORA     LPO11    LPDO1   -0.380000       0.00000          -1   0.00000       0.00000    
     13264 FORA     272      FORA     LPO12    LPDO1   -0.380000       0.00000          -1   0.00000       0.00000    
     13265 FORA     273      FORA     C        CD2O2A    2.99370       11.6110           0  -1.01600      0.899000    
     13266 FORA     273      FORA     DC       DRUD     -2.47370      0.400000           0   0.00000       0.00000    
     13267 FORA     273      FORA     H        HDP1C     0.00000       1.00800           0   0.00000       0.00000    
     13268 FORA     273      FORA     O2       OD2C2A    2.05180       15.5994           0 -0.699000       2.39900    
     13269 FORA     273      FORA     DO2      DRUD     -2.05180      0.400000           0   0.00000       0.00000    
     13270 FORA     273      FORA     O1       OD2C2A    2.05180       15.5994           0 -0.699000       2.39900    
     13271 FORA     273      FORA     DO1      DRUD     -2.05180      0.400000           0   0.00000       0.00000    
     13272 FORA     273      FORA     HO1      DUMH      0.00000       1.00800           0   0.00000       0.00000    
     13273 FORA     273      FORA     LPO21    LPDO1   -0.380000       0.00000          -1   0.00000       0.00000    
     13274 FORA     273      FORA     LPO22    LPDO1   -0.380000       0.00000          -1   0.00000       0.00000    
     13275 FORA     273      FORA     LPO11    LPDO1   -0.380000       0.00000          -1   0.00000       0.00000    
     13276 FORA     273      FORA     LPO12    LPDO1   -0.380000       0.00000          -1   0.00000       0.00000    
     13277 FORA     274      FORA     C        CD2O2A    2.99370       11.6110           0  -1.01600      0.899000    
     13278 FORA     274      FORA     DC       DRUD     -2.47370      0.400000           0   0.00000       0.00000    
     13279 FORA     274      FORA     H        HDP1C     0.00000       1.00800           0   0.00000       0.00000    
     13280 FORA     274      FORA     O2       OD2C2A    2.05180       15.5994           0 -0.699000       2.39900    
     13281 FORA     274      FORA     DO2      DRUD     -2.05180      0.400000           0   0.00000       0.00000    
     13282 FORA     274      FORA     O1       OD2C2A    2.05180       15.5994           0 -0.699000       2.39900    
     13283 FORA     274      FORA     DO1      DRUD     -2.05180      0.400000           0   0.00000       0.00000    
     13284 FORA     274      FORA     HO1      DUMH      0.00000       1.00800           0   0.00000       0.00000    
     13285 FORA     274      FORA     LPO21    LPDO1   -0.380000       0.00000          -1   0.00000       0.00000    
     13286 FORA     274      FORA     LPO22    LPDO1   -0.380000       0.00000          -1   0.00000       0.00000    
     13287 FORA     274      FORA     LPO11    LPDO1   -0.380000       0.00000          -1   0.00000       0.00000    
     13288 FORA     274      FORA     LPO12    LPDO1   -0.380000       0.00000          -1   0.00000       0.00000    
     13289 FORA     275      FORA     C        CD2O2A    2.99370       11.6110           0  -1.01600      0.899000    
     13290 FORA     275      FORA     DC       DRUD     -2.47370      0.400000           0   0.00000       0.00000    
     13291 FORA     275      FORA     H        HDP1C     0.00000       1.00800           0   0.00000       0.00000    
     13292 FORA     275      FORA     O2       OD2C2A    2.05180       15.5994           0 -0.699000       2.39900    
     13293 FORA     275      FORA     DO2      DRUD     -2.05180      0.400000           0   0.00000       0.00000    
     13294 FORA     275      FORA     O1       OD2C2A    2.05180       15.5994           0 -0.699000       2.39900    
     13295 FORA     275      FORA     DO1      DRUD     -2.05180      0.400000           0   0.00000       0.00000    
     13296 FORA     275      FORA     HO1      DUMH      0.00000       1.00800           0   0.00000       0.00000    
     13297 FORA     275      FORA     LPO21    LPDO1   -0.380000       0.00000          -1   0.00000       0.00000    
     13298 FORA     275      FORA     LPO22    LPDO1   -0.380000       0.00000          -1   0.00000       0.00000    
     13299 FORA     275      FORA     LPO11    LPDO1   -0.380000       0.00000          -1   0.00000       0.00000    
     13300 FORA     275      FORA     LPO12    LPDO1   -0.380000       0.00000          -1   0.00000       0.00000    
     13301 FORA     276      FORA     C        CD2O2A    2.99370       11.6110           0  -1.01600      0.899000    
     13302 FORA     276      FORA     DC       DRUD     -2.47370      0.400000           0   0.00000       0.00000    
     13303 FORA     276      FORA     H        HDP1C     0.00000       1.00800           0   0.00000       0.00000    
     13304 FORA     276      FORA     O2       OD2C2A    2.05180       15.5994           0 -0.699000       2.39900    
     13305 FORA     276      FORA     DO2      DRUD     -2.05180      0.400000           0   0.00000       0.00000    
     13306 FORA     276      FORA     O1       OD2C2A    2.05180       15.5994           0 -0.699000       2.39900    
     13307 FORA     276      FORA     DO1      DRUD     -2.05180      0.400000           0   0.00000       0.00000    
     13308 FORA     276      FORA     HO1      DUMH      0.00000       1.00800           0   0.00000       0.00000    
     13309 FORA     276      FORA     LPO21    LPDO1   -0.380000       0.00000          -1   0.00000       0.00000    
     13310 FORA     276      FORA     LPO22    LPDO1   -0.380000       0.00000          -1   0.00000       0.00000    
     13311 FORA     276      FORA     LPO11    LPDO1   -0.380000       0.00000          -1   0.00000       0.00000    
     13312 FORA     276      FORA     LPO12    LPDO1   -0.380000       0.00000          -1   0.00000       0.00000    
     13313 FORA     277      FORA     C        CD2O2A    2.99370       11.6110           0  -1.01600      0.899000    
     13314 FORA     277      FORA     DC       DRUD     -2.47370      0.400000           0   0.00000       0.00000    
     13315 FORA     277      FORA     H        HDP1C     0.00000       1.00800           0   0.00000       0.00000    
     13316 FORA     277      FORA     O2       OD2C2A    2.05180       15.5994           0 -0.699000       2.39900    
     13317 FORA     277      FORA     DO2      DRUD     -2.05180      0.400000           0   0.00000       0.00000    
     13318 FORA     277      FORA     O1       OD2C2A    2.05180       15.5994           0 -0.699000       2.39900    
     13319 FORA     277      FORA     DO1      DRUD     -2.05180      0.400000           0   0.00000       0.00000    
     13320 FORA     277      FORA     HO1      DUMH      0.00000       1.00800           0   0.00000       0.00000    
     13321 FORA     277      FORA     LPO21    LPDO1   -0.380000       0.00000          -1   0.00000       0.00000    
     13322 FORA     277      FORA     LPO22    LPDO1   -0.380000       0.00000          -1   0.00000       0.00000    
     13323 FORA     277      FORA     LPO11    LPDO1   -0.380000       0.00000          -1   0.00000       0.00000    
     13324 FORA     277      FORA     LPO12    LPDO1   -0.380000       0.00000          -1   0.00000       0.00000    
     13325 FORA     278      FORA     C        CD2O2A    2.99370       11.6110           0  -1.01600      0.899000    
     13326 FORA     278      FORA     DC       DRUD     -2.47370      0.400000           0   0.00000       0.00000    
     13327 FORA     278      FORA     H        HDP1C     0.00000       1.00800           0   0.00000       0.00000    
     13328 FORA     278      FORA     O2       OD2C2A    2.05180       15.5994           0 -0.699000       2.39900    
     13329 FORA     278      FORA     DO2      DRUD     -2.05180      0.400000           0   0.00000       0.00000    
     13330 FORA     278      FORA     O1       OD2C2A    2.05180       15.5994           0 -0.699000       2.39900    
     13331 FORA     278      FORA     DO1      DRUD     -2.05180      0.400000           0   0.00000       0.00000    
     13332 FORA     278      FORA     HO1      DUMH      0.00000       1.00800           0   0.00000       0.00000    
     13333 FORA     278      FORA     LPO21    LPDO1   -0.380000       0.00000          -1   0.00000       0.00000    
     13334 FORA     278      FORA     LPO22    LPDO1   -0.380000       0.00000          -1   0.00000       0.00000    
     13335 FORA     278      FORA     LPO11    LPDO1   -0.380000       0.00000          -1   0.00000       0.00000    
     13336 FORA     278      FORA     LPO12    LPDO1   -0.380000       0.00000          -1   0.00000       0.00000    
     13337 FORA     279      FORA     C        CD2O2A    2.99370       11.6110           0  -1.01600      0.899000    
     13338 FORA     279      FORA     DC       DRUD     -2.47370      0.400000           0   0.00000       0.00000    
     13339 FORA     279      FORA     H        HDP1C     0.00000       1.00800           0   0.00000       0.00000    
     13340 FORA     279      FORA     O2       OD2C2A    2.05180       15.5994           0 -0.699000       2.39900    
     13341 FORA     279      FORA     DO2      DRUD     -2.05180      0.400000           0   0.00000       0.00000    
     13342 FORA     279      FORA     O1       OD2C2A    2.05180       15.5994           0 -0.699000       2.39900    
     13343 FORA     279      FORA     DO1      DRUD     -2.05180      0.400000           0   0.00000       0.00000    
     13344 FORA     279      FORA     HO1      DUMH      0.00000       1.00800           0   0.00000       0.00000    
     13345 FORA     279      FORA     LPO21    LPDO1   -0.380000       0.00000          -1   0.00000       0.00000    
     13346 FORA     279      FORA     LPO22    LPDO1   -0.380000       0.00000          -1   0.00000       0.00000    
     13347 FORA     279      FORA     LPO11    LPDO1   -0.380000       0.00000          -1   0.00000       0.00000    
     13348 FORA     279      FORA     LPO12    LPDO1   -0.380000       0.00000          -1   0.00000       0.00000    
     13349 FORA     280      FORA     C        CD2O2A    2.99370       11.6110           0  -1.01600      0.899000    
     13350 FORA     280      FORA     DC       DRUD     -2.47370      0.400000           0   0.00000       0.00000    
     13351 FORA     280      FORA     H        HDP1C     0.00000       1.00800           0   0.00000       0.00000    
     13352 FORA     280      FORA     O2       OD2C2A    2.05180       15.5994           0 -0.699000       2.39900    
     13353 FORA     280      FORA     DO2      DRUD     -2.05180      0.400000           0   0.00000       0.00000    
     13354 FORA     280      FORA     O1       OD2C2A    2.05180       15.5994           0 -0.699000       2.39900    
     13355 FORA     280      FORA     DO1      DRUD     -2.05180      0.400000           0   0.00000       0.00000    
     13356 FORA     280      FORA     HO1      DUMH      0.00000       1.00800           0   0.00000       0.00000    
     13357 FORA     280      FORA     LPO21    LPDO1   -0.380000       0.00000          -1   0.00000       0.00000    
     13358 FORA     280      FORA     LPO22    LPDO1   -0.380000       0.00000          -1   0.00000       0.00000    
     13359 FORA     280      FORA     LPO11    LPDO1   -0.380000       0.00000          -1   0.00000       0.00000    
     13360 FORA     280      FORA     LPO12    LPDO1   -0.380000       0.00000          -1   0.00000       0.00000    
     13361 FORA     281      FORA     C        CD2O2A    2.99370       11.6110           0  -1.01600      0.899000    
     13362 FORA     281      FORA     DC       DRUD     -2.47370      0.400000           0   0.00000       0.00000    
     13363 FORA     281      FORA     H        HDP1C     0.00000       1.00800           0   0.00000       0.00000    
     13364 FORA     281      FORA     O2       OD2C2A    2.05180       15.5994           0 -0.699000       2.39900    
     13365 FORA     281      FORA     DO2      DRUD     -2.05180      0.400000           0   0.00000       0.00000    
     13366 FORA     281      FORA     O1       OD2C2A    2.05180       15.5994           0 -0.699000       2.39900    
     13367 FORA     281      FORA     DO1      DRUD     -2.05180      0.400000           0   0.00000       0.00000    
     13368 FORA     281      FORA     HO1      DUMH      0.00000       1.00800           0   0.00000       0.00000    
     13369 FORA     281      FORA     LPO21    LPDO1   -0.380000       0.00000          -1   0.00000       0.00000    
     13370 FORA     281      FORA     LPO22    LPDO1   -0.380000       0.00000          -1   0.00000       0.00000    
     13371 FORA     281      FORA     LPO11    LPDO1   -0.380000       0.00000          -1   0.00000       0.00000    
     13372 FORA     281      FORA     LPO12    LPDO1   -0.380000       0.00000          -1   0.00000       0.00000    
     13373 FORA     282      FORA     C        CD2O2A    2.99370       11.6110           0  -1.01600      0.899000    
     13374 FORA     282      FORA     DC       DRUD     -2.47370      0.400000           0   0.00000       0.00000    
     13375 FORA     282      FORA     H        HDP1C     0.00000       1.00800           0   0.00000       0.00000    
     13376 FORA     282      FORA     O2       OD2C2A    2.05180       15.5994           0 -0.699000       2.39900    
     13377 FORA     282      FORA     DO2      DRUD     -2.05180      0.400000           0   0.00000       0.00000    
     13378 FORA     282      FORA     O1       OD2C2A    2.05180       15.5994           0 -0.699000       2.39900    
     13379 FORA     282      FORA     DO1      DRUD     -2.05180      0.400000           0   0.00000       0.00000    
     13380 FORA     282      FORA     HO1      DUMH      0.00000       1.00800           0   0.00000       0.00000    
     13381 FORA     282      FORA     LPO21    LPDO1   -0.380000       0.00000          -1   0.00000       0.00000    
     13382 FORA     282      FORA     LPO22    LPDO1   -0.380000       0.00000          -1   0.00000       0.00000    
     13383 FORA     282      FORA     LPO11    LPDO1   -0.380000       0.00000          -1   0.00000       0.00000    
     13384 FORA     282      FORA     LPO12    LPDO1   -0.380000       0.00000          -1   0.00000       0.00000    
     13385 FORA     283      FORA     C        CD2O2A    2.99370       11.6110           0  -1.01600      0.899000    
     13386 FORA     283      FORA     DC       DRUD     -2.47370      0.400000           0   0.00000       0.00000    
     13387 FORA     283      FORA     H        HDP1C     0.00000       1.00800           0   0.00000       0.00000    
     13388 FORA     283      FORA     O2       OD2C2A    2.05180       15.5994           0 -0.699000       2.39900    
     13389 FORA     283      FORA     DO2      DRUD     -2.05180      0.400000           0   0.00000       0.00000    
     13390 FORA     283      FORA     O1       OD2C2A    2.05180       15.5994           0 -0.699000       2.39900    
     13391 FORA     283      FORA     DO1      DRUD     -2.05180      0.400000           0   0.00000       0.00000    
     13392 FORA     283      FORA     HO1      DUMH      0.00000       1.00800           0   0.00000       0.00000    
     13393 FORA     283      FORA     LPO21    LPDO1   -0.380000       0.00000          -1   0.00000       0.00000    
     13394 FORA     283      FORA     LPO22    LPDO1   -0.380000       0.00000          -1   0.00000       0.00000    
     13395 FORA     283      FORA     LPO11    LPDO1   -0.380000       0.00000          -1   0.00000       0.00000    
     13396 FORA     283      FORA     LPO12    LPDO1   -0.380000       0.00000          -1   0.00000       0.00000    
     13397 FORA     284      FORA     C        CD2O2A    2.99370       11.6110           0  -1.01600      0.899000    
     13398 FORA     284      FORA     DC       DRUD     -2.47370      0.400000           0   0.00000       0.00000    
     13399 FORA     284      FORA     H        HDP1C     0.00000       1.00800           0   0.00000       0.00000    
     13400 FORA     284      FORA     O2       OD2C2A    2.05180       15.5994           0 -0.699000       2.39900    
     13401 FORA     284      FORA     DO2      DRUD     -2.05180      0.400000           0   0.00000       0.00000    
     13402 FORA     284      FORA     O1       OD2C2A    2.05180       15.5994           0 -0.699000       2.39900    
     13403 FORA     284      FORA     DO1      DRUD     -2.05180      0.400000           0   0.00000       0.00000    
     13404 FORA     284      FORA     HO1      DUMH      0.00000       1.00800           0   0.00000       0.00000    
     13405 FORA     284      FORA     LPO21    LPDO1   -0.380000       0.00000          -1   0.00000       0.00000    
     13406 FORA     284      FORA     LPO22    LPDO1   -0.380000       0.00000          -1   0.00000       0.00000    
     13407 FORA     284      FORA     LPO11    LPDO1   -0.380000       0.00000          -1   0.00000       0.00000    
     13408 FORA     284      FORA     LPO12    LPDO1   -0.380000       0.00000          -1   0.00000       0.00000    
     13409 FORA     285      FORA     C        CD2O2A    2.99370       11.6110           0  -1.01600      0.899000    
     13410 FORA     285      FORA     DC       DRUD     -2.47370      0.400000           0   0.00000       0.00000    
     13411 FORA     285      FORA     H        HDP1C     0.00000       1.00800           0   0.00000       0.00000    
     13412 FORA     285      FORA     O2       OD2C2A    2.05180       15.5994           0 -0.699000       2.39900    
     13413 FORA     285      FORA     DO2      DRUD     -2.05180      0.400000           0   0.00000       0.00000    
     13414 FORA     285      FORA     O1       OD2C2A    2.05180       15.5994           0 -0.699000       2.39900    
     13415 FORA     285      FORA     DO1      DRUD     -2.05180      0.400000           0   0.00000       0.00000    
     13416 FORA     285      FORA     HO1      DUMH      0.00000       1.00800           0   0.00000       0.00000    
     13417 FORA     285      FORA     LPO21    LPDO1   -0.380000       0.00000          -1   0.00000       0.00000    
     13418 FORA     285      FORA     LPO22    LPDO1   -0.380000       0.00000          -1   0.00000       0.00000    
     13419 FORA     285      FORA     LPO11    LPDO1   -0.380000       0.00000          -1   0.00000       0.00000    
     13420 FORA     285      FORA     LPO12    LPDO1   -0.380000       0.00000          -1   0.00000       0.00000    
     13421 FORA     286      FORA     C        CD2O2A    2.99370       11.6110           0  -1.01600      0.899000    
     13422 FORA     286      FORA     DC       DRUD     -2.47370      0.400000           0   0.00000       0.00000    
     13423 FORA     286      FORA     H        HDP1C     0.00000       1.00800           0   0.00000       0.00000    
     13424 FORA     286      FORA     O2       OD2C2A    2.05180       15.5994           0 -0.699000       2.39900    
     13425 FORA     286      FORA     DO2      DRUD     -2.05180      0.400000           0   0.00000       0.00000    
     13426 FORA     286      FORA     O1       OD2C2A    2.05180       15.5994           0 -0.699000       2.39900    
     13427 FORA     286      FORA     DO1      DRUD     -2.05180      0.400000           0   0.00000       0.00000    
     13428 FORA     286      FORA     HO1      DUMH      0.00000       1.00800           0   0.00000       0.00000    
     13429 FORA     286      FORA     LPO21    LPDO1   -0.380000       0.00000          -1   0.00000       0.00000    
     13430 FORA     286      FORA     LPO22    LPDO1   -0.380000       0.00000          -1   0.00000       0.00000    
     13431 FORA     286      FORA     LPO11    LPDO1   -0.380000       0.00000          -1   0.00000       0.00000    
     13432 FORA     286      FORA     LPO12    LPDO1   -0.380000       0.00000          -1   0.00000       0.00000    
     13433 FORA     287      FORA     C        CD2O2A    2.99370       11.6110           0  -1.01600      0.899000    
     13434 FORA     287      FORA     DC       DRUD     -2.47370      0.400000           0   0.00000       0.00000    
     13435 FORA     287      FORA     H        HDP1C     0.00000       1.00800           0   0.00000       0.00000    
     13436 FORA     287      FORA     O2       OD2C2A    2.05180       15.5994           0 -0.699000       2.39900    
     13437 FORA     287      FORA     DO2      DRUD     -2.05180      0.400000           0   0.00000       0.00000    
     13438 FORA     287      FORA     O1       OD2C2A    2.05180       15.5994           0 -0.699000       2.39900    
     13439 FORA     287      FORA     DO1      DRUD     -2.05180      0.400000           0   0.00000       0.00000    
     13440 FORA     287      FORA     HO1      DUMH      0.00000       1.00800           0   0.00000       0.00000    
     13441 FORA     287      FORA     LPO21    LPDO1   -0.380000       0.00000          -1   0.00000       0.00000    
     13442 FORA     287      FORA     LPO22    LPDO1   -0.380000       0.00000          -1   0.00000       0.00000    
     13443 FORA     287      FORA     LPO11    LPDO1   -0.380000       0.00000          -1   0.00000       0.00000    
     13444 FORA     287      FORA     LPO12    LPDO1   -0.380000       0.00000          -1   0.00000       0.00000    
     13445 FORA     288      FORA     C        CD2O2A    2.99370       11.6110           0  -1.01600      0.899000    
     13446 FORA     288      FORA     DC       DRUD     -2.47370      0.400000           0   0.00000       0.00000    
     13447 FORA     288      FORA     H        HDP1C     0.00000       1.00800           0   0.00000       0.00000    
     13448 FORA     288      FORA     O2       OD2C2A    2.05180       15.5994           0 -0.699000       2.39900    
     13449 FORA     288      FORA     DO2      DRUD     -2.05180      0.400000           0   0.00000       0.00000    
     13450 FORA     288      FORA     O1       OD2C2A    2.05180       15.5994           0 -0.699000       2.39900    
     13451 FORA     288      FORA     DO1      DRUD     -2.05180      0.400000           0   0.00000       0.00000    
     13452 FORA     288      FORA     HO1      DUMH      0.00000       1.00800           0   0.00000       0.00000    
     13453 FORA     288      FORA     LPO21    LPDO1   -0.380000       0.00000          -1   0.00000       0.00000    
     13454 FORA     288      FORA     LPO22    LPDO1   -0.380000       0.00000          -1   0.00000       0.00000    
     13455 FORA     288      FORA     LPO11    LPDO1   -0.380000       0.00000          -1   0.00000       0.00000    
     13456 FORA     288      FORA     LPO12    LPDO1   -0.380000       0.00000          -1   0.00000       0.00000    
     13457 FORA     289      FORA     C        CD2O2A    2.99370       11.6110           0  -1.01600      0.899000    
     13458 FORA     289      FORA     DC       DRUD     -2.47370      0.400000           0   0.00000       0.00000    
     13459 FORA     289      FORA     H        HDP1C     0.00000       1.00800           0   0.00000       0.00000    
     13460 FORA     289      FORA     O2       OD2C2A    2.05180       15.5994           0 -0.699000       2.39900    
     13461 FORA     289      FORA     DO2      DRUD     -2.05180      0.400000           0   0.00000       0.00000    
     13462 FORA     289      FORA     O1       OD2C2A    2.05180       15.5994           0 -0.699000       2.39900    
     13463 FORA     289      FORA     DO1      DRUD     -2.05180      0.400000           0   0.00000       0.00000    
     13464 FORA     289      FORA     HO1      DUMH      0.00000       1.00800           0   0.00000       0.00000    
     13465 FORA     289      FORA     LPO21    LPDO1   -0.380000       0.00000          -1   0.00000       0.00000    
     13466 FORA     289      FORA     LPO22    LPDO1   -0.380000       0.00000          -1   0.00000       0.00000    
     13467 FORA     289      FORA     LPO11    LPDO1   -0.380000       0.00000          -1   0.00000       0.00000    
     13468 FORA     289      FORA     LPO12    LPDO1   -0.380000       0.00000          -1   0.00000       0.00000    
     13469 FORA     290      FORA     C        CD2O2A    2.99370       11.6110           0  -1.01600      0.899000    
     13470 FORA     290      FORA     DC       DRUD     -2.47370      0.400000           0   0.00000       0.00000    
     13471 FORA     290      FORA     H        HDP1C     0.00000       1.00800           0   0.00000       0.00000    
     13472 FORA     290      FORA     O2       OD2C2A    2.05180       15.5994           0 -0.699000       2.39900    
     13473 FORA     290      FORA     DO2      DRUD     -2.05180      0.400000           0   0.00000       0.00000    
     13474 FORA     290      FORA     O1       OD2C2A    2.05180       15.5994           0 -0.699000       2.39900    
     13475 FORA     290      FORA     DO1      DRUD     -2.05180      0.400000           0   0.00000       0.00000    
     13476 FORA     290      FORA     HO1      DUMH      0.00000       1.00800           0   0.00000       0.00000    
     13477 FORA     290      FORA     LPO21    LPDO1   -0.380000       0.00000          -1   0.00000       0.00000    
     13478 FORA     290      FORA     LPO22    LPDO1   -0.380000       0.00000          -1   0.00000       0.00000    
     13479 FORA     290      FORA     LPO11    LPDO1   -0.380000       0.00000          -1   0.00000       0.00000    
     13480 FORA     290      FORA     LPO12    LPDO1   -0.380000       0.00000          -1   0.00000       0.00000    
     13481 FORA     291      FORA     C        CD2O2A    2.99370       11.6110           0  -1.01600      0.899000    
     13482 FORA     291      FORA     DC       DRUD     -2.47370      0.400000           0   0.00000       0.00000    
     13483 FORA     291      FORA     H        HDP1C     0.00000       1.00800           0   0.00000       0.00000    
     13484 FORA     291      FORA     O2       OD2C2A    2.05180       15.5994           0 -0.699000       2.39900    
     13485 FORA     291      FORA     DO2      DRUD     -2.05180      0.400000           0   0.00000       0.00000    
     13486 FORA     291      FORA     O1       OD2C2A    2.05180       15.5994           0 -0.699000       2.39900    
     13487 FORA     291      FORA     DO1      DRUD     -2.05180      0.400000           0   0.00000       0.00000    
     13488 FORA     291      FORA     HO1      DUMH      0.00000       1.00800           0   0.00000       0.00000    
     13489 FORA     291      FORA     LPO21    LPDO1   -0.380000       0.00000          -1   0.00000       0.00000    
     13490 FORA     291      FORA     LPO22    LPDO1   -0.380000       0.00000          -1   0.00000       0.00000    
     13491 FORA     291      FORA     LPO11    LPDO1   -0.380000       0.00000          -1   0.00000       0.00000    
     13492 FORA     291      FORA     LPO12    LPDO1   -0.380000       0.00000          -1   0.00000       0.00000    
     13493 FORA     292      FORA     C        CD2O2A    2.99370       11.6110           0  -1.01600      0.899000    
     13494 FORA     292      FORA     DC       DRUD     -2.47370      0.400000           0   0.00000       0.00000    
     13495 FORA     292      FORA     H        HDP1C     0.00000       1.00800           0   0.00000       0.00000    
     13496 FORA     292      FORA     O2       OD2C2A    2.05180       15.5994           0 -0.699000       2.39900    
     13497 FORA     292      FORA     DO2      DRUD     -2.05180      0.400000           0   0.00000       0.00000    
     13498 FORA     292      FORA     O1       OD2C2A    2.05180       15.5994           0 -0.699000       2.39900    
     13499 FORA     292      FORA     DO1      DRUD     -2.05180      0.400000           0   0.00000       0.00000    
     13500 FORA     292      FORA     HO1      DUMH      0.00000       1.00800           0   0.00000       0.00000    
     13501 FORA     292      FORA     LPO21    LPDO1   -0.380000       0.00000          -1   0.00000       0.00000    
     13502 FORA     292      FORA     LPO22    LPDO1   -0.380000       0.00000          -1   0.00000       0.00000    
     13503 FORA     292      FORA     LPO11    LPDO1   -0.380000       0.00000          -1   0.00000       0.00000    
     13504 FORA     292      FORA     LPO12    LPDO1   -0.380000       0.00000          -1   0.00000       0.00000    
     13505 FORA     293      FORA     C        CD2O2A    2.99370       11.6110           0  -1.01600      0.899000    
     13506 FORA     293      FORA     DC       DRUD     -2.47370      0.400000           0   0.00000       0.00000    
     13507 FORA     293      FORA     H        HDP1C     0.00000       1.00800           0   0.00000       0.00000    
     13508 FORA     293      FORA     O2       OD2C2A    2.05180       15.5994           0 -0.699000       2.39900    
     13509 FORA     293      FORA     DO2      DRUD     -2.05180      0.400000           0   0.00000       0.00000    
     13510 FORA     293      FORA     O1       OD2C2A    2.05180       15.5994           0 -0.699000       2.39900    
     13511 FORA     293      FORA     DO1      DRUD     -2.05180      0.400000           0   0.00000       0.00000    
     13512 FORA     293      FORA     HO1      DUMH      0.00000       1.00800           0   0.00000       0.00000    
     13513 FORA     293      FORA     LPO21    LPDO1   -0.380000       0.00000          -1   0.00000       0.00000    
     13514 FORA     293      FORA     LPO22    LPDO1   -0.380000       0.00000          -1   0.00000       0.00000    
     13515 FORA     293      FORA     LPO11    LPDO1   -0.380000       0.00000          -1   0.00000       0.00000    
     13516 FORA     293      FORA     LPO12    LPDO1   -0.380000       0.00000          -1   0.00000       0.00000    
     13517 FORA     294      FORA     C        CD2O2A    2.99370       11.6110           0  -1.01600      0.899000    
     13518 FORA     294      FORA     DC       DRUD     -2.47370      0.400000           0   0.00000       0.00000    
     13519 FORA     294      FORA     H        HDP1C     0.00000       1.00800           0   0.00000       0.00000    
     13520 FORA     294      FORA     O2       OD2C2A    2.05180       15.5994           0 -0.699000       2.39900    
     13521 FORA     294      FORA     DO2      DRUD     -2.05180      0.400000           0   0.00000       0.00000    
     13522 FORA     294      FORA     O1       OD2C2A    2.05180       15.5994           0 -0.699000       2.39900    
     13523 FORA     294      FORA     DO1      DRUD     -2.05180      0.400000           0   0.00000       0.00000    
     13524 FORA     294      FORA     HO1      DUMH      0.00000       1.00800           0   0.00000       0.00000    
     13525 FORA     294      FORA     LPO21    LPDO1   -0.380000       0.00000          -1   0.00000       0.00000    
     13526 FORA     294      FORA     LPO22    LPDO1   -0.380000       0.00000          -1   0.00000       0.00000    
     13527 FORA     294      FORA     LPO11    LPDO1   -0.380000       0.00000          -1   0.00000       0.00000    
     13528 FORA     294      FORA     LPO12    LPDO1   -0.380000       0.00000          -1   0.00000       0.00000    
     13529 FORA     295      FORA     C        CD2O2A    2.99370       11.6110           0  -1.01600      0.899000    
     13530 FORA     295      FORA     DC       DRUD     -2.47370      0.400000           0   0.00000       0.00000    
     13531 FORA     295      FORA     H        HDP1C     0.00000       1.00800           0   0.00000       0.00000    
     13532 FORA     295      FORA     O2       OD2C2A    2.05180       15.5994           0 -0.699000       2.39900    
     13533 FORA     295      FORA     DO2      DRUD     -2.05180      0.400000           0   0.00000       0.00000    
     13534 FORA     295      FORA     O1       OD2C2A    2.05180       15.5994           0 -0.699000       2.39900    
     13535 FORA     295      FORA     DO1      DRUD     -2.05180      0.400000           0   0.00000       0.00000    
     13536 FORA     295      FORA     HO1      DUMH      0.00000       1.00800           0   0.00000       0.00000    
     13537 FORA     295      FORA     LPO21    LPDO1   -0.380000       0.00000          -1   0.00000       0.00000    
     13538 FORA     295      FORA     LPO22    LPDO1   -0.380000       0.00000          -1   0.00000       0.00000    
     13539 FORA     295      FORA     LPO11    LPDO1   -0.380000       0.00000          -1   0.00000       0.00000    
     13540 FORA     295      FORA     LPO12    LPDO1   -0.380000       0.00000          -1   0.00000       0.00000    
     13541 FORA     296      FORA     C        CD2O2A    2.99370       11.6110           0  -1.01600      0.899000    
     13542 FORA     296      FORA     DC       DRUD     -2.47370      0.400000           0   0.00000       0.00000    
     13543 FORA     296      FORA     H        HDP1C     0.00000       1.00800           0   0.00000       0.00000    
     13544 FORA     296      FORA     O2       OD2C2A    2.05180       15.5994           0 -0.699000       2.39900    
     13545 FORA     296      FORA     DO2      DRUD     -2.05180      0.400000           0   0.00000       0.00000    
     13546 FORA     296      FORA     O1       OD2C2A    2.05180       15.5994           0 -0.699000       2.39900    
     13547 FORA     296      FORA     DO1      DRUD     -2.05180      0.400000           0   0.00000       0.00000    
     13548 FORA     296      FORA     HO1      DUMH      0.00000       1.00800           0   0.00000       0.00000    
     13549 FORA     296      FORA     LPO21    LPDO1   -0.380000       0.00000          -1   0.00000       0.00000    
     13550 FORA     296      FORA     LPO22    LPDO1   -0.380000       0.00000          -1   0.00000       0.00000    
     13551 FORA     296      FORA     LPO11    LPDO1   -0.380000       0.00000          -1   0.00000       0.00000    
     13552 FORA     296      FORA     LPO12    LPDO1   -0.380000       0.00000          -1   0.00000       0.00000    
     13553 FORA     297      FORA     C        CD2O2A    2.99370       11.6110           0  -1.01600      0.899000    
     13554 FORA     297      FORA     DC       DRUD     -2.47370      0.400000           0   0.00000       0.00000    
     13555 FORA     297      FORA     H        HDP1C     0.00000       1.00800           0   0.00000       0.00000    
     13556 FORA     297      FORA     O2       OD2C2A    2.05180       15.5994           0 -0.699000       2.39900    
     13557 FORA     297      FORA     DO2      DRUD     -2.05180      0.400000           0   0.00000       0.00000    
     13558 FORA     297      FORA     O1       OD2C2A    2.05180       15.5994           0 -0.699000       2.39900    
     13559 FORA     297      FORA     DO1      DRUD     -2.05180      0.400000           0   0.00000       0.00000    
     13560 FORA     297      FORA     HO1      DUMH      0.00000       1.00800           0   0.00000       0.00000    
     13561 FORA     297      FORA     LPO21    LPDO1   -0.380000       0.00000          -1   0.00000       0.00000    
     13562 FORA     297      FORA     LPO22    LPDO1   -0.380000       0.00000          -1   0.00000       0.00000    
     13563 FORA     297      FORA     LPO11    LPDO1   -0.380000       0.00000          -1   0.00000       0.00000    
     13564 FORA     297      FORA     LPO12    LPDO1   -0.380000       0.00000          -1   0.00000       0.00000    
     13565 FORA     298      FORA     C        CD2O2A    2.99370       11.6110           0  -1.01600      0.899000    
     13566 FORA     298      FORA     DC       DRUD     -2.47370      0.400000           0   0.00000       0.00000    
     13567 FORA     298      FORA     H        HDP1C     0.00000       1.00800           0   0.00000       0.00000    
     13568 FORA     298      FORA     O2       OD2C2A    2.05180       15.5994           0 -0.699000       2.39900    
     13569 FORA     298      FORA     DO2      DRUD     -2.05180      0.400000           0   0.00000       0.00000    
     13570 FORA     298      FORA     O1       OD2C2A    2.05180       15.5994           0 -0.699000       2.39900    
     13571 FORA     298      FORA     DO1      DRUD     -2.05180      0.400000           0   0.00000       0.00000    
     13572 FORA     298      FORA     HO1      DUMH      0.00000       1.00800           0   0.00000       0.00000    
     13573 FORA     298      FORA     LPO21    LPDO1   -0.380000       0.00000          -1   0.00000       0.00000    
     13574 FORA     298      FORA     LPO22    LPDO1   -0.380000       0.00000          -1   0.00000       0.00000    
     13575 FORA     298      FORA     LPO11    LPDO1   -0.380000       0.00000          -1   0.00000       0.00000    
     13576 FORA     298      FORA     LPO12    LPDO1   -0.380000       0.00000          -1   0.00000       0.00000    
     13577 FORA     299      FORA     C        CD2O2A    2.99370       11.6110           0  -1.01600      0.899000    
     13578 FORA     299      FORA     DC       DRUD     -2.47370      0.400000           0   0.00000       0.00000    
     13579 FORA     299      FORA     H        HDP1C     0.00000       1.00800           0   0.00000       0.00000    
     13580 FORA     299      FORA     O2       OD2C2A    2.05180       15.5994           0 -0.699000       2.39900    
     13581 FORA     299      FORA     DO2      DRUD     -2.05180      0.400000           0   0.00000       0.00000    
     13582 FORA     299      FORA     O1       OD2C2A    2.05180       15.5994           0 -0.699000       2.39900    
     13583 FORA     299      FORA     DO1      DRUD     -2.05180      0.400000           0   0.00000       0.00000    
     13584 FORA     299      FORA     HO1      DUMH      0.00000       1.00800           0   0.00000       0.00000    
     13585 FORA     299      FORA     LPO21    LPDO1   -0.380000       0.00000          -1   0.00000       0.00000    
     13586 FORA     299      FORA     LPO22    LPDO1   -0.380000       0.00000          -1   0.00000       0.00000    
     13587 FORA     299      FORA     LPO11    LPDO1   -0.380000       0.00000          -1   0.00000       0.00000    
     13588 FORA     299      FORA     LPO12    LPDO1   -0.380000       0.00000          -1   0.00000       0.00000    
     13589 FORA     300      FORA     C        CD2O2A    2.99370       11.6110           0  -1.01600      0.899000    
     13590 FORA     300      FORA     DC       DRUD     -2.47370      0.400000           0   0.00000       0.00000    
     13591 FORA     300      FORA     H        HDP1C     0.00000       1.00800           0   0.00000       0.00000    
     13592 FORA     300      FORA     O2       OD2C2A    2.05180       15.5994           0 -0.699000       2.39900    
     13593 FORA     300      FORA     DO2      DRUD     -2.05180      0.400000           0   0.00000       0.00000    
     13594 FORA     300      FORA     O1       OD2C2A    2.05180       15.5994           0 -0.699000       2.39900    
     13595 FORA     300      FORA     DO1      DRUD     -2.05180      0.400000           0   0.00000       0.00000    
     13596 FORA     300      FORA     HO1      DUMH      0.00000       1.00800           0   0.00000       0.00000    
     13597 FORA     300      FORA     LPO21    LPDO1   -0.380000       0.00000          -1   0.00000       0.00000    
     13598 FORA     300      FORA     LPO22    LPDO1   -0.380000       0.00000          -1   0.00000       0.00000    
     13599 FORA     300      FORA     LPO11    LPDO1   -0.380000       0.00000          -1   0.00000       0.00000    
     13600 FORA     300      FORA     LPO12    LPDO1   -0.380000       0.00000          -1   0.00000       0.00000    
     13601 FORA     301      FORA     C        CD2O2A    2.99370       11.6110           0  -1.01600      0.899000    
     13602 FORA     301      FORA     DC       DRUD     -2.47370      0.400000           0   0.00000       0.00000    
     13603 FORA     301      FORA     H        HDP1C     0.00000       1.00800           0   0.00000       0.00000    
     13604 FORA     301      FORA     O2       OD2C2A    2.05180       15.5994           0 -0.699000       2.39900    
     13605 FORA     301      FORA     DO2      DRUD     -2.05180      0.400000           0   0.00000       0.00000    
     13606 FORA     301      FORA     O1       OD2C2A    2.05180       15.5994           0 -0.699000       2.39900    
     13607 FORA     301      FORA     DO1      DRUD     -2.05180      0.400000           0   0.00000       0.00000    
     13608 FORA     301      FORA     HO1      DUMH      0.00000       1.00800           0   0.00000       0.00000    
     13609 FORA     301      FORA     LPO21    LPDO1   -0.380000       0.00000          -1   0.00000       0.00000    
     13610 FORA     301      FORA     LPO22    LPDO1   -0.380000       0.00000          -1   0.00000       0.00000    
     13611 FORA     301      FORA     LPO11    LPDO1   -0.380000       0.00000          -1   0.00000       0.00000    
     13612 FORA     301      FORA     LPO12    LPDO1   -0.380000       0.00000          -1   0.00000       0.00000    
     13613 FORA     302      FORA     C        CD2O2A    2.99370       11.6110           0  -1.01600      0.899000    
     13614 FORA     302      FORA     DC       DRUD     -2.47370      0.400000           0   0.00000       0.00000    
     13615 FORA     302      FORA     H        HDP1C     0.00000       1.00800           0   0.00000       0.00000    
     13616 FORA     302      FORA     O2       OD2C2A    2.05180       15.5994           0 -0.699000       2.39900    
     13617 FORA     302      FORA     DO2      DRUD     -2.05180      0.400000           0   0.00000       0.00000    
     13618 FORA     302      FORA     O1       OD2C2A    2.05180       15.5994           0 -0.699000       2.39900    
     13619 FORA     302      FORA     DO1      DRUD     -2.05180      0.400000           0   0.00000       0.00000    
     13620 FORA     302      FORA     HO1      DUMH      0.00000       1.00800           0   0.00000       0.00000    
     13621 FORA     302      FORA     LPO21    LPDO1   -0.380000       0.00000          -1   0.00000       0.00000    
     13622 FORA     302      FORA     LPO22    LPDO1   -0.380000       0.00000          -1   0.00000       0.00000    
     13623 FORA     302      FORA     LPO11    LPDO1   -0.380000       0.00000          -1   0.00000       0.00000    
     13624 FORA     302      FORA     LPO12    LPDO1   -0.380000       0.00000          -1   0.00000       0.00000    
     13625 FORA     303      FORA     C        CD2O2A    2.99370       11.6110           0  -1.01600      0.899000    
     13626 FORA     303      FORA     DC       DRUD     -2.47370      0.400000           0   0.00000       0.00000    
     13627 FORA     303      FORA     H        HDP1C     0.00000       1.00800           0   0.00000       0.00000    
     13628 FORA     303      FORA     O2       OD2C2A    2.05180       15.5994           0 -0.699000       2.39900    
     13629 FORA     303      FORA     DO2      DRUD     -2.05180      0.400000           0   0.00000       0.00000    
     13630 FORA     303      FORA     O1       OD2C2A    2.05180       15.5994           0 -0.699000       2.39900    
     13631 FORA     303      FORA     DO1      DRUD     -2.05180      0.400000           0   0.00000       0.00000    
     13632 FORA     303      FORA     HO1      DUMH      0.00000       1.00800           0   0.00000       0.00000    
     13633 FORA     303      FORA     LPO21    LPDO1   -0.380000       0.00000          -1   0.00000       0.00000    
     13634 FORA     303      FORA     LPO22    LPDO1   -0.380000       0.00000          -1   0.00000       0.00000    
     13635 FORA     303      FORA     LPO11    LPDO1   -0.380000       0.00000          -1   0.00000       0.00000    
     13636 FORA     303      FORA     LPO12    LPDO1   -0.380000       0.00000          -1   0.00000       0.00000    
     13637 FORA     304      FORA     C        CD2O2A    2.99370       11.6110           0  -1.01600      0.899000    
     13638 FORA     304      FORA     DC       DRUD     -2.47370      0.400000           0   0.00000       0.00000    
     13639 FORA     304      FORA     H        HDP1C     0.00000       1.00800           0   0.00000       0.00000    
     13640 FORA     304      FORA     O2       OD2C2A    2.05180       15.5994           0 -0.699000       2.39900    
     13641 FORA     304      FORA     DO2      DRUD     -2.05180      0.400000           0   0.00000       0.00000    
     13642 FORA     304      FORA     O1       OD2C2A    2.05180       15.5994           0 -0.699000       2.39900    
     13643 FORA     304      FORA     DO1      DRUD     -2.05180      0.400000           0   0.00000       0.00000    
     13644 FORA     304      FORA     HO1      DUMH      0.00000       1.00800           0   0.00000       0.00000    
     13645 FORA     304      FORA     LPO21    LPDO1   -0.380000       0.00000          -1   0.00000       0.00000    
     13646 FORA     304      FORA     LPO22    LPDO1   -0.380000       0.00000          -1   0.00000       0.00000    
     13647 FORA     304      FORA     LPO11    LPDO1   -0.380000       0.00000          -1   0.00000       0.00000    
     13648 FORA     304      FORA     LPO12    LPDO1   -0.380000       0.00000          -1   0.00000       0.00000    
     13649 FORA     305      FORA     C        CD2O2A    2.99370       11.6110           0  -1.01600      0.899000    
     13650 FORA     305      FORA     DC       DRUD     -2.47370      0.400000           0   0.00000       0.00000    
     13651 FORA     305      FORA     H        HDP1C     0.00000       1.00800           0   0.00000       0.00000    
     13652 FORA     305      FORA     O2       OD2C2A    2.05180       15.5994           0 -0.699000       2.39900    
     13653 FORA     305      FORA     DO2      DRUD     -2.05180      0.400000           0   0.00000       0.00000    
     13654 FORA     305      FORA     O1       OD2C2A    2.05180       15.5994           0 -0.699000       2.39900    
     13655 FORA     305      FORA     DO1      DRUD     -2.05180      0.400000           0   0.00000       0.00000    
     13656 FORA     305      FORA     HO1      DUMH      0.00000       1.00800           0   0.00000       0.00000    
     13657 FORA     305      FORA     LPO21    LPDO1   -0.380000       0.00000          -1   0.00000       0.00000    
     13658 FORA     305      FORA     LPO22    LPDO1   -0.380000       0.00000          -1   0.00000       0.00000    
     13659 FORA     305      FORA     LPO11    LPDO1   -0.380000       0.00000          -1   0.00000       0.00000    
     13660 FORA     305      FORA     LPO12    LPDO1   -0.380000       0.00000          -1   0.00000       0.00000    
     13661 FORA     306      FORA     C        CD2O2A    2.99370       11.6110           0  -1.01600      0.899000    
     13662 FORA     306      FORA     DC       DRUD     -2.47370      0.400000           0   0.00000       0.00000    
     13663 FORA     306      FORA     H        HDP1C     0.00000       1.00800           0   0.00000       0.00000    
     13664 FORA     306      FORA     O2       OD2C2A    2.05180       15.5994           0 -0.699000       2.39900    
     13665 FORA     306      FORA     DO2      DRUD     -2.05180      0.400000           0   0.00000       0.00000    
     13666 FORA     306      FORA     O1       OD2C2A    2.05180       15.5994           0 -0.699000       2.39900    
     13667 FORA     306      FORA     DO1      DRUD     -2.05180      0.400000           0   0.00000       0.00000    
     13668 FORA     306      FORA     HO1      DUMH      0.00000       1.00800           0   0.00000       0.00000    
     13669 FORA     306      FORA     LPO21    LPDO1   -0.380000       0.00000          -1   0.00000       0.00000    
     13670 FORA     306      FORA     LPO22    LPDO1   -0.380000       0.00000          -1   0.00000       0.00000    
     13671 FORA     306      FORA     LPO11    LPDO1   -0.380000       0.00000          -1   0.00000       0.00000    
     13672 FORA     306      FORA     LPO12    LPDO1   -0.380000       0.00000          -1   0.00000       0.00000    
     13673 FORA     307      FORA     C        CD2O2A    2.99370       11.6110           0  -1.01600      0.899000    
     13674 FORA     307      FORA     DC       DRUD     -2.47370      0.400000           0   0.00000       0.00000    
     13675 FORA     307      FORA     H        HDP1C     0.00000       1.00800           0   0.00000       0.00000    
     13676 FORA     307      FORA     O2       OD2C2A    2.05180       15.5994           0 -0.699000       2.39900    
     13677 FORA     307      FORA     DO2      DRUD     -2.05180      0.400000           0   0.00000       0.00000    
     13678 FORA     307      FORA     O1       OD2C2A    2.05180       15.5994           0 -0.699000       2.39900    
     13679 FORA     307      FORA     DO1      DRUD     -2.05180      0.400000           0   0.00000       0.00000    
     13680 FORA     307      FORA     HO1      DUMH      0.00000       1.00800           0   0.00000       0.00000    
     13681 FORA     307      FORA     LPO21    LPDO1   -0.380000       0.00000          -1   0.00000       0.00000    
     13682 FORA     307      FORA     LPO22    LPDO1   -0.380000       0.00000          -1   0.00000       0.00000    
     13683 FORA     307      FORA     LPO11    LPDO1   -0.380000       0.00000          -1   0.00000       0.00000    
     13684 FORA     307      FORA     LPO12    LPDO1   -0.380000       0.00000          -1   0.00000       0.00000    
     13685 FORA     308      FORA     C        CD2O2A    2.99370       11.6110           0  -1.01600      0.899000    
     13686 FORA     308      FORA     DC       DRUD     -2.47370      0.400000           0   0.00000       0.00000    
     13687 FORA     308      FORA     H        HDP1C     0.00000       1.00800           0   0.00000       0.00000    
     13688 FORA     308      FORA     O2       OD2C2A    2.05180       15.5994           0 -0.699000       2.39900    
     13689 FORA     308      FORA     DO2      DRUD     -2.05180      0.400000           0   0.00000       0.00000    
     13690 FORA     308      FORA     O1       OD2C2A    2.05180       15.5994           0 -0.699000       2.39900    
     13691 FORA     308      FORA     DO1      DRUD     -2.05180      0.400000           0   0.00000       0.00000    
     13692 FORA     308      FORA     HO1      DUMH      0.00000       1.00800           0   0.00000       0.00000    
     13693 FORA     308      FORA     LPO21    LPDO1   -0.380000       0.00000          -1   0.00000       0.00000    
     13694 FORA     308      FORA     LPO22    LPDO1   -0.380000       0.00000          -1   0.00000       0.00000    
     13695 FORA     308      FORA     LPO11    LPDO1   -0.380000       0.00000          -1   0.00000       0.00000    
     13696 FORA     308      FORA     LPO12    LPDO1   -0.380000       0.00000          -1   0.00000       0.00000    
     13697 FORA     309      FORA     C        CD2O2A    2.99370       11.6110           0  -1.01600      0.899000    
     13698 FORA     309      FORA     DC       DRUD     -2.47370      0.400000           0   0.00000       0.00000    
     13699 FORA     309      FORA     H        HDP1C     0.00000       1.00800           0   0.00000       0.00000    
     13700 FORA     309      FORA     O2       OD2C2A    2.05180       15.5994           0 -0.699000       2.39900    
     13701 FORA     309      FORA     DO2      DRUD     -2.05180      0.400000           0   0.00000       0.00000    
     13702 FORA     309      FORA     O1       OD2C2A    2.05180       15.5994           0 -0.699000       2.39900    
     13703 FORA     309      FORA     DO1      DRUD     -2.05180      0.400000           0   0.00000       0.00000    
     13704 FORA     309      FORA     HO1      DUMH      0.00000       1.00800           0   0.00000       0.00000    
     13705 FORA     309      FORA     LPO21    LPDO1   -0.380000       0.00000          -1   0.00000       0.00000    
     13706 FORA     309      FORA     LPO22    LPDO1   -0.380000       0.00000          -1   0.00000       0.00000    
     13707 FORA     309      FORA     LPO11    LPDO1   -0.380000       0.00000          -1   0.00000       0.00000    
     13708 FORA     309      FORA     LPO12    LPDO1   -0.380000       0.00000          -1   0.00000       0.00000    
     13709 FORA     310      FORA     C        CD2O2A    2.99370       11.6110           0  -1.01600      0.899000    
     13710 FORA     310      FORA     DC       DRUD     -2.47370      0.400000           0   0.00000       0.00000    
     13711 FORA     310      FORA     H        HDP1C     0.00000       1.00800           0   0.00000       0.00000    
     13712 FORA     310      FORA     O2       OD2C2A    2.05180       15.5994           0 -0.699000       2.39900    
     13713 FORA     310      FORA     DO2      DRUD     -2.05180      0.400000           0   0.00000       0.00000    
     13714 FORA     310      FORA     O1       OD2C2A    2.05180       15.5994           0 -0.699000       2.39900    
     13715 FORA     310      FORA     DO1      DRUD     -2.05180      0.400000           0   0.00000       0.00000    
     13716 FORA     310      FORA     HO1      DUMH      0.00000       1.00800           0   0.00000       0.00000    
     13717 FORA     310      FORA     LPO21    LPDO1   -0.380000       0.00000          -1   0.00000       0.00000    
     13718 FORA     310      FORA     LPO22    LPDO1   -0.380000       0.00000          -1   0.00000       0.00000    
     13719 FORA     310      FORA     LPO11    LPDO1   -0.380000       0.00000          -1   0.00000       0.00000    
     13720 FORA     310      FORA     LPO12    LPDO1   -0.380000       0.00000          -1   0.00000       0.00000    
     13721 FORA     311      FORA     C        CD2O2A    2.99370       11.6110           0  -1.01600      0.899000    
     13722 FORA     311      FORA     DC       DRUD     -2.47370      0.400000           0   0.00000       0.00000    
     13723 FORA     311      FORA     H        HDP1C     0.00000       1.00800           0   0.00000       0.00000    
     13724 FORA     311      FORA     O2       OD2C2A    2.05180       15.5994           0 -0.699000       2.39900    
     13725 FORA     311      FORA     DO2      DRUD     -2.05180      0.400000           0   0.00000       0.00000    
     13726 FORA     311      FORA     O1       OD2C2A    2.05180       15.5994           0 -0.699000       2.39900    
     13727 FORA     311      FORA     DO1      DRUD     -2.05180      0.400000           0   0.00000       0.00000    
     13728 FORA     311      FORA     HO1      DUMH      0.00000       1.00800           0   0.00000       0.00000    
     13729 FORA     311      FORA     LPO21    LPDO1   -0.380000       0.00000          -1   0.00000       0.00000    
     13730 FORA     311      FORA     LPO22    LPDO1   -0.380000       0.00000          -1   0.00000       0.00000    
     13731 FORA     311      FORA     LPO11    LPDO1   -0.380000       0.00000          -1   0.00000       0.00000    
     13732 FORA     311      FORA     LPO12    LPDO1   -0.380000       0.00000          -1   0.00000       0.00000    
     13733 FORA     312      FORA     C        CD2O2A    2.99370       11.6110           0  -1.01600      0.899000    
     13734 FORA     312      FORA     DC       DRUD     -2.47370      0.400000           0   0.00000       0.00000    
     13735 FORA     312      FORA     H        HDP1C     0.00000       1.00800           0   0.00000       0.00000    
     13736 FORA     312      FORA     O2       OD2C2A    2.05180       15.5994           0 -0.699000       2.39900    
     13737 FORA     312      FORA     DO2      DRUD     -2.05180      0.400000           0   0.00000       0.00000    
     13738 FORA     312      FORA     O1       OD2C2A    2.05180       15.5994           0 -0.699000       2.39900    
     13739 FORA     312      FORA     DO1      DRUD     -2.05180      0.400000           0   0.00000       0.00000    
     13740 FORA     312      FORA     HO1      DUMH      0.00000       1.00800           0   0.00000       0.00000    
     13741 FORA     312      FORA     LPO21    LPDO1   -0.380000       0.00000          -1   0.00000       0.00000    
     13742 FORA     312      FORA     LPO22    LPDO1   -0.380000       0.00000          -1   0.00000       0.00000    
     13743 FORA     312      FORA     LPO11    LPDO1   -0.380000       0.00000          -1   0.00000       0.00000    
     13744 FORA     312      FORA     LPO12    LPDO1   -0.380000       0.00000          -1   0.00000       0.00000    
     13745 FORA     313      FORA     C        CD2O2A    2.99370       11.6110           0  -1.01600      0.899000    
     13746 FORA     313      FORA     DC       DRUD     -2.47370      0.400000           0   0.00000       0.00000    
     13747 FORA     313      FORA     H        HDP1C     0.00000       1.00800           0   0.00000       0.00000    
     13748 FORA     313      FORA     O2       OD2C2A    2.05180       15.5994           0 -0.699000       2.39900    
     13749 FORA     313      FORA     DO2      DRUD     -2.05180      0.400000           0   0.00000       0.00000    
     13750 FORA     313      FORA     O1       OD2C2A    2.05180       15.5994           0 -0.699000       2.39900    
     13751 FORA     313      FORA     DO1      DRUD     -2.05180      0.400000           0   0.00000       0.00000    
     13752 FORA     313      FORA     HO1      DUMH      0.00000       1.00800           0   0.00000       0.00000    
     13753 FORA     313      FORA     LPO21    LPDO1   -0.380000       0.00000          -1   0.00000       0.00000    
     13754 FORA     313      FORA     LPO22    LPDO1   -0.380000       0.00000          -1   0.00000       0.00000    
     13755 FORA     313      FORA     LPO11    LPDO1   -0.380000       0.00000          -1   0.00000       0.00000    
     13756 FORA     313      FORA     LPO12    LPDO1   -0.380000       0.00000          -1   0.00000       0.00000    
     13757 FORA     314      FORA     C        CD2O2A    2.99370       11.6110           0  -1.01600      0.899000    
     13758 FORA     314      FORA     DC       DRUD     -2.47370      0.400000           0   0.00000       0.00000    
     13759 FORA     314      FORA     H        HDP1C     0.00000       1.00800           0   0.00000       0.00000    
     13760 FORA     314      FORA     O2       OD2C2A    2.05180       15.5994           0 -0.699000       2.39900    
     13761 FORA     314      FORA     DO2      DRUD     -2.05180      0.400000           0   0.00000       0.00000    
     13762 FORA     314      FORA     O1       OD2C2A    2.05180       15.5994           0 -0.699000       2.39900    
     13763 FORA     314      FORA     DO1      DRUD     -2.05180      0.400000           0   0.00000       0.00000    
     13764 FORA     314      FORA     HO1      DUMH      0.00000       1.00800           0   0.00000       0.00000    
     13765 FORA     314      FORA     LPO21    LPDO1   -0.380000       0.00000          -1   0.00000       0.00000    
     13766 FORA     314      FORA     LPO22    LPDO1   -0.380000       0.00000          -1   0.00000       0.00000    
     13767 FORA     314      FORA     LPO11    LPDO1   -0.380000       0.00000          -1   0.00000       0.00000    
     13768 FORA     314      FORA     LPO12    LPDO1   -0.380000       0.00000          -1   0.00000       0.00000    
     13769 FORA     315      FORA     C        CD2O2A    2.99370       11.6110           0  -1.01600      0.899000    
     13770 FORA     315      FORA     DC       DRUD     -2.47370      0.400000           0   0.00000       0.00000    
     13771 FORA     315      FORA     H        HDP1C     0.00000       1.00800           0   0.00000       0.00000    
     13772 FORA     315      FORA     O2       OD2C2A    2.05180       15.5994           0 -0.699000       2.39900    
     13773 FORA     315      FORA     DO2      DRUD     -2.05180      0.400000           0   0.00000       0.00000    
     13774 FORA     315      FORA     O1       OD2C2A    2.05180       15.5994           0 -0.699000       2.39900    
     13775 FORA     315      FORA     DO1      DRUD     -2.05180      0.400000           0   0.00000       0.00000    
     13776 FORA     315      FORA     HO1      DUMH      0.00000       1.00800           0   0.00000       0.00000    
     13777 FORA     315      FORA     LPO21    LPDO1   -0.380000       0.00000          -1   0.00000       0.00000    
     13778 FORA     315      FORA     LPO22    LPDO1   -0.380000       0.00000          -1   0.00000       0.00000    
     13779 FORA     315      FORA     LPO11    LPDO1   -0.380000       0.00000          -1   0.00000       0.00000    
     13780 FORA     315      FORA     LPO12    LPDO1   -0.380000       0.00000          -1   0.00000       0.00000    
     13781 FORA     316      FORA     C        CD2O2A    2.99370       11.6110           0  -1.01600      0.899000    
     13782 FORA     316      FORA     DC       DRUD     -2.47370      0.400000           0   0.00000       0.00000    
     13783 FORA     316      FORA     H        HDP1C     0.00000       1.00800           0   0.00000       0.00000    
     13784 FORA     316      FORA     O2       OD2C2A    2.05180       15.5994           0 -0.699000       2.39900    
     13785 FORA     316      FORA     DO2      DRUD     -2.05180      0.400000           0   0.00000       0.00000    
     13786 FORA     316      FORA     O1       OD2C2A    2.05180       15.5994           0 -0.699000       2.39900    
     13787 FORA     316      FORA     DO1      DRUD     -2.05180      0.400000           0   0.00000       0.00000    
     13788 FORA     316      FORA     HO1      DUMH      0.00000       1.00800           0   0.00000       0.00000    
     13789 FORA     316      FORA     LPO21    LPDO1   -0.380000       0.00000          -1   0.00000       0.00000    
     13790 FORA     316      FORA     LPO22    LPDO1   -0.380000       0.00000          -1   0.00000       0.00000    
     13791 FORA     316      FORA     LPO11    LPDO1   -0.380000       0.00000          -1   0.00000       0.00000    
     13792 FORA     316      FORA     LPO12    LPDO1   -0.380000       0.00000          -1   0.00000       0.00000    
     13793 FORA     317      FORA     C        CD2O2A    2.99370       11.6110           0  -1.01600      0.899000    
     13794 FORA     317      FORA     DC       DRUD     -2.47370      0.400000           0   0.00000       0.00000    
     13795 FORA     317      FORA     H        HDP1C     0.00000       1.00800           0   0.00000       0.00000    
     13796 FORA     317      FORA     O2       OD2C2A    2.05180       15.5994           0 -0.699000       2.39900    
     13797 FORA     317      FORA     DO2      DRUD     -2.05180      0.400000           0   0.00000       0.00000    
     13798 FORA     317      FORA     O1       OD2C2A    2.05180       15.5994           0 -0.699000       2.39900    
     13799 FORA     317      FORA     DO1      DRUD     -2.05180      0.400000           0   0.00000       0.00000    
     13800 FORA     317      FORA     HO1      DUMH      0.00000       1.00800           0   0.00000       0.00000    
     13801 FORA     317      FORA     LPO21    LPDO1   -0.380000       0.00000          -1   0.00000       0.00000    
     13802 FORA     317      FORA     LPO22    LPDO1   -0.380000       0.00000          -1   0.00000       0.00000    
     13803 FORA     317      FORA     LPO11    LPDO1   -0.380000       0.00000          -1   0.00000       0.00000    
     13804 FORA     317      FORA     LPO12    LPDO1   -0.380000       0.00000          -1   0.00000       0.00000    
     13805 FORA     318      FORA     C        CD2O2A    2.99370       11.6110           0  -1.01600      0.899000    
     13806 FORA     318      FORA     DC       DRUD     -2.47370      0.400000           0   0.00000       0.00000    
     13807 FORA     318      FORA     H        HDP1C     0.00000       1.00800           0   0.00000       0.00000    
     13808 FORA     318      FORA     O2       OD2C2A    2.05180       15.5994           0 -0.699000       2.39900    
     13809 FORA     318      FORA     DO2      DRUD     -2.05180      0.400000           0   0.00000       0.00000    
     13810 FORA     318      FORA     O1       OD2C2A    2.05180       15.5994           0 -0.699000       2.39900    
     13811 FORA     318      FORA     DO1      DRUD     -2.05180      0.400000           0   0.00000       0.00000    
     13812 FORA     318      FORA     HO1      DUMH      0.00000       1.00800           0   0.00000       0.00000    
     13813 FORA     318      FORA     LPO21    LPDO1   -0.380000       0.00000          -1   0.00000       0.00000    
     13814 FORA     318      FORA     LPO22    LPDO1   -0.380000       0.00000          -1   0.00000       0.00000    
     13815 FORA     318      FORA     LPO11    LPDO1   -0.380000       0.00000          -1   0.00000       0.00000    
     13816 FORA     318      FORA     LPO12    LPDO1   -0.380000       0.00000          -1   0.00000       0.00000    
     13817 FORA     319      FORA     C        CD2O2A    2.99370       11.6110           0  -1.01600      0.899000    
     13818 FORA     319      FORA     DC       DRUD     -2.47370      0.400000           0   0.00000       0.00000    
     13819 FORA     319      FORA     H        HDP1C     0.00000       1.00800           0   0.00000       0.00000    
     13820 FORA     319      FORA     O2       OD2C2A    2.05180       15.5994           0 -0.699000       2.39900    
     13821 FORA     319      FORA     DO2      DRUD     -2.05180      0.400000           0   0.00000       0.00000    
     13822 FORA     319      FORA     O1       OD2C2A    2.05180       15.5994           0 -0.699000       2.39900    
     13823 FORA     319      FORA     DO1      DRUD     -2.05180      0.400000           0   0.00000       0.00000    
     13824 FORA     319      FORA     HO1      DUMH      0.00000       1.00800           0   0.00000       0.00000    
     13825 FORA     319      FORA     LPO21    LPDO1   -0.380000       0.00000          -1   0.00000       0.00000    
     13826 FORA     319      FORA     LPO22    LPDO1   -0.380000       0.00000          -1   0.00000       0.00000    
     13827 FORA     319      FORA     LPO11    LPDO1   -0.380000       0.00000          -1   0.00000       0.00000    
     13828 FORA     319      FORA     LPO12    LPDO1   -0.380000       0.00000          -1   0.00000       0.00000    
     13829 FORA     320      FORA     C        CD2O2A    2.99370       11.6110           0  -1.01600      0.899000    
     13830 FORA     320      FORA     DC       DRUD     -2.47370      0.400000           0   0.00000       0.00000    
     13831 FORA     320      FORA     H        HDP1C     0.00000       1.00800           0   0.00000       0.00000    
     13832 FORA     320      FORA     O2       OD2C2A    2.05180       15.5994           0 -0.699000       2.39900    
     13833 FORA     320      FORA     DO2      DRUD     -2.05180      0.400000           0   0.00000       0.00000    
     13834 FORA     320      FORA     O1       OD2C2A    2.05180       15.5994           0 -0.699000       2.39900    
     13835 FORA     320      FORA     DO1      DRUD     -2.05180      0.400000           0   0.00000       0.00000    
     13836 FORA     320      FORA     HO1      DUMH      0.00000       1.00800           0   0.00000       0.00000    
     13837 FORA     320      FORA     LPO21    LPDO1   -0.380000       0.00000          -1   0.00000       0.00000    
     13838 FORA     320      FORA     LPO22    LPDO1   -0.380000       0.00000          -1   0.00000       0.00000    
     13839 FORA     320      FORA     LPO11    LPDO1   -0.380000       0.00000          -1   0.00000       0.00000    
     13840 FORA     320      FORA     LPO12    LPDO1   -0.380000       0.00000          -1   0.00000       0.00000    
     13841 FORA     321      FORA     C        CD2O2A    2.99370       11.6110           0  -1.01600      0.899000    
     13842 FORA     321      FORA     DC       DRUD     -2.47370      0.400000           0   0.00000       0.00000    
     13843 FORA     321      FORA     H        HDP1C     0.00000       1.00800           0   0.00000       0.00000    
     13844 FORA     321      FORA     O2       OD2C2A    2.05180       15.5994           0 -0.699000       2.39900    
     13845 FORA     321      FORA     DO2      DRUD     -2.05180      0.400000           0   0.00000       0.00000    
     13846 FORA     321      FORA     O1       OD2C2A    2.05180       15.5994           0 -0.699000       2.39900    
     13847 FORA     321      FORA     DO1      DRUD     -2.05180      0.400000           0   0.00000       0.00000    
     13848 FORA     321      FORA     HO1      DUMH      0.00000       1.00800           0   0.00000       0.00000    
     13849 FORA     321      FORA     LPO21    LPDO1   -0.380000       0.00000          -1   0.00000       0.00000    
     13850 FORA     321      FORA     LPO22    LPDO1   -0.380000       0.00000          -1   0.00000       0.00000    
     13851 FORA     321      FORA     LPO11    LPDO1   -0.380000       0.00000          -1   0.00000       0.00000    
     13852 FORA     321      FORA     LPO12    LPDO1   -0.380000       0.00000          -1   0.00000       0.00000    
     13853 FORA     322      FORA     C        CD2O2A    2.99370       11.6110           0  -1.01600      0.899000    
     13854 FORA     322      FORA     DC       DRUD     -2.47370      0.400000           0   0.00000       0.00000    
     13855 FORA     322      FORA     H        HDP1C     0.00000       1.00800           0   0.00000       0.00000    
     13856 FORA     322      FORA     O2       OD2C2A    2.05180       15.5994           0 -0.699000       2.39900    
     13857 FORA     322      FORA     DO2      DRUD     -2.05180      0.400000           0   0.00000       0.00000    
     13858 FORA     322      FORA     O1       OD2C2A    2.05180       15.5994           0 -0.699000       2.39900    
     13859 FORA     322      FORA     DO1      DRUD     -2.05180      0.400000           0   0.00000       0.00000    
     13860 FORA     322      FORA     HO1      DUMH      0.00000       1.00800           0   0.00000       0.00000    
     13861 FORA     322      FORA     LPO21    LPDO1   -0.380000       0.00000          -1   0.00000       0.00000    
     13862 FORA     322      FORA     LPO22    LPDO1   -0.380000       0.00000          -1   0.00000       0.00000    
     13863 FORA     322      FORA     LPO11    LPDO1   -0.380000       0.00000          -1   0.00000       0.00000    
     13864 FORA     322      FORA     LPO12    LPDO1   -0.380000       0.00000          -1   0.00000       0.00000    
     13865 FORA     323      FORA     C        CD2O2A    2.99370       11.6110           0  -1.01600      0.899000    
     13866 FORA     323      FORA     DC       DRUD     -2.47370      0.400000           0   0.00000       0.00000    
     13867 FORA     323      FORA     H        HDP1C     0.00000       1.00800           0   0.00000       0.00000    
     13868 FORA     323      FORA     O2       OD2C2A    2.05180       15.5994           0 -0.699000       2.39900    
     13869 FORA     323      FORA     DO2      DRUD     -2.05180      0.400000           0   0.00000       0.00000    
     13870 FORA     323      FORA     O1       OD2C2A    2.05180       15.5994           0 -0.699000       2.39900    
     13871 FORA     323      FORA     DO1      DRUD     -2.05180      0.400000           0   0.00000       0.00000    
     13872 FORA     323      FORA     HO1      DUMH      0.00000       1.00800           0   0.00000       0.00000    
     13873 FORA     323      FORA     LPO21    LPDO1   -0.380000       0.00000          -1   0.00000       0.00000    
     13874 FORA     323      FORA     LPO22    LPDO1   -0.380000       0.00000          -1   0.00000       0.00000    
     13875 FORA     323      FORA     LPO11    LPDO1   -0.380000       0.00000          -1   0.00000       0.00000    
     13876 FORA     323      FORA     LPO12    LPDO1   -0.380000       0.00000          -1   0.00000       0.00000    
     13877 FORA     324      FORA     C        CD2O2A    2.99370       11.6110           0  -1.01600      0.899000    
     13878 FORA     324      FORA     DC       DRUD     -2.47370      0.400000           0   0.00000       0.00000    
     13879 FORA     324      FORA     H        HDP1C     0.00000       1.00800           0   0.00000       0.00000    
     13880 FORA     324      FORA     O2       OD2C2A    2.05180       15.5994           0 -0.699000       2.39900    
     13881 FORA     324      FORA     DO2      DRUD     -2.05180      0.400000           0   0.00000       0.00000    
     13882 FORA     324      FORA     O1       OD2C2A    2.05180       15.5994           0 -0.699000       2.39900    
     13883 FORA     324      FORA     DO1      DRUD     -2.05180      0.400000           0   0.00000       0.00000    
     13884 FORA     324      FORA     HO1      DUMH      0.00000       1.00800           0   0.00000       0.00000    
     13885 FORA     324      FORA     LPO21    LPDO1   -0.380000       0.00000          -1   0.00000       0.00000    
     13886 FORA     324      FORA     LPO22    LPDO1   -0.380000       0.00000          -1   0.00000       0.00000    
     13887 FORA     324      FORA     LPO11    LPDO1   -0.380000       0.00000          -1   0.00000       0.00000    
     13888 FORA     324      FORA     LPO12    LPDO1   -0.380000       0.00000          -1   0.00000       0.00000    
     13889 FORA     325      FORA     C        CD2O2A    2.99370       11.6110           0  -1.01600      0.899000    
     13890 FORA     325      FORA     DC       DRUD     -2.47370      0.400000           0   0.00000       0.00000    
     13891 FORA     325      FORA     H        HDP1C     0.00000       1.00800           0   0.00000       0.00000    
     13892 FORA     325      FORA     O2       OD2C2A    2.05180       15.5994           0 -0.699000       2.39900    
     13893 FORA     325      FORA     DO2      DRUD     -2.05180      0.400000           0   0.00000       0.00000    
     13894 FORA     325      FORA     O1       OD2C2A    2.05180       15.5994           0 -0.699000       2.39900    
     13895 FORA     325      FORA     DO1      DRUD     -2.05180      0.400000           0   0.00000       0.00000    
     13896 FORA     325      FORA     HO1      DUMH      0.00000       1.00800           0   0.00000       0.00000    
     13897 FORA     325      FORA     LPO21    LPDO1   -0.380000       0.00000          -1   0.00000       0.00000    
     13898 FORA     325      FORA     LPO22    LPDO1   -0.380000       0.00000          -1   0.00000       0.00000    
     13899 FORA     325      FORA     LPO11    LPDO1   -0.380000       0.00000          -1   0.00000       0.00000    
     13900 FORA     325      FORA     LPO12    LPDO1   -0.380000       0.00000          -1   0.00000       0.00000    
     13901 FORA     326      FORA     C        CD2O2A    2.99370       11.6110           0  -1.01600      0.899000    
     13902 FORA     326      FORA     DC       DRUD     -2.47370      0.400000           0   0.00000       0.00000    
     13903 FORA     326      FORA     H        HDP1C     0.00000       1.00800           0   0.00000       0.00000    
     13904 FORA     326      FORA     O2       OD2C2A    2.05180       15.5994           0 -0.699000       2.39900    
     13905 FORA     326      FORA     DO2      DRUD     -2.05180      0.400000           0   0.00000       0.00000    
     13906 FORA     326      FORA     O1       OD2C2A    2.05180       15.5994           0 -0.699000       2.39900    
     13907 FORA     326      FORA     DO1      DRUD     -2.05180      0.400000           0   0.00000       0.00000    
     13908 FORA     326      FORA     HO1      DUMH      0.00000       1.00800           0   0.00000       0.00000    
     13909 FORA     326      FORA     LPO21    LPDO1   -0.380000       0.00000          -1   0.00000       0.00000    
     13910 FORA     326      FORA     LPO22    LPDO1   -0.380000       0.00000          -1   0.00000       0.00000    
     13911 FORA     326      FORA     LPO11    LPDO1   -0.380000       0.00000          -1   0.00000       0.00000    
     13912 FORA     326      FORA     LPO12    LPDO1   -0.380000       0.00000          -1   0.00000       0.00000    
     13913 FORA     327      FORA     C        CD2O2A    2.99370       11.6110           0  -1.01600      0.899000    
     13914 FORA     327      FORA     DC       DRUD     -2.47370      0.400000           0   0.00000       0.00000    
     13915 FORA     327      FORA     H        HDP1C     0.00000       1.00800           0   0.00000       0.00000    
     13916 FORA     327      FORA     O2       OD2C2A    2.05180       15.5994           0 -0.699000       2.39900    
     13917 FORA     327      FORA     DO2      DRUD     -2.05180      0.400000           0   0.00000       0.00000    
     13918 FORA     327      FORA     O1       OD2C2A    2.05180       15.5994           0 -0.699000       2.39900    
     13919 FORA     327      FORA     DO1      DRUD     -2.05180      0.400000           0   0.00000       0.00000    
     13920 FORA     327      FORA     HO1      DUMH      0.00000       1.00800           0   0.00000       0.00000    
     13921 FORA     327      FORA     LPO21    LPDO1   -0.380000       0.00000          -1   0.00000       0.00000    
     13922 FORA     327      FORA     LPO22    LPDO1   -0.380000       0.00000          -1   0.00000       0.00000    
     13923 FORA     327      FORA     LPO11    LPDO1   -0.380000       0.00000          -1   0.00000       0.00000    
     13924 FORA     327      FORA     LPO12    LPDO1   -0.380000       0.00000          -1   0.00000       0.00000    
     13925 FORA     328      FORA     C        CD2O2A    2.99370       11.6110           0  -1.01600      0.899000    
     13926 FORA     328      FORA     DC       DRUD     -2.47370      0.400000           0   0.00000       0.00000    
     13927 FORA     328      FORA     H        HDP1C     0.00000       1.00800           0   0.00000       0.00000    
     13928 FORA     328      FORA     O2       OD2C2A    2.05180       15.5994           0 -0.699000       2.39900    
     13929 FORA     328      FORA     DO2      DRUD     -2.05180      0.400000           0   0.00000       0.00000    
     13930 FORA     328      FORA     O1       OD2C2A    2.05180       15.5994           0 -0.699000       2.39900    
     13931 FORA     328      FORA     DO1      DRUD     -2.05180      0.400000           0   0.00000       0.00000    
     13932 FORA     328      FORA     HO1      DUMH      0.00000       1.00800           0   0.00000       0.00000    
     13933 FORA     328      FORA     LPO21    LPDO1   -0.380000       0.00000          -1   0.00000       0.00000    
     13934 FORA     328      FORA     LPO22    LPDO1   -0.380000       0.00000          -1   0.00000       0.00000    
     13935 FORA     328      FORA     LPO11    LPDO1   -0.380000       0.00000          -1   0.00000       0.00000    
     13936 FORA     328      FORA     LPO12    LPDO1   -0.380000       0.00000          -1   0.00000       0.00000    
     13937 FORA     329      FORA     C        CD2O2A    2.99370       11.6110           0  -1.01600      0.899000    
     13938 FORA     329      FORA     DC       DRUD     -2.47370      0.400000           0   0.00000       0.00000    
     13939 FORA     329      FORA     H        HDP1C     0.00000       1.00800           0   0.00000       0.00000    
     13940 FORA     329      FORA     O2       OD2C2A    2.05180       15.5994           0 -0.699000       2.39900    
     13941 FORA     329      FORA     DO2      DRUD     -2.05180      0.400000           0   0.00000       0.00000    
     13942 FORA     329      FORA     O1       OD2C2A    2.05180       15.5994           0 -0.699000       2.39900    
     13943 FORA     329      FORA     DO1      DRUD     -2.05180      0.400000           0   0.00000       0.00000    
     13944 FORA     329      FORA     HO1      DUMH      0.00000       1.00800           0   0.00000       0.00000    
     13945 FORA     329      FORA     LPO21    LPDO1   -0.380000       0.00000          -1   0.00000       0.00000    
     13946 FORA     329      FORA     LPO22    LPDO1   -0.380000       0.00000          -1   0.00000       0.00000    
     13947 FORA     329      FORA     LPO11    LPDO1   -0.380000       0.00000          -1   0.00000       0.00000    
     13948 FORA     329      FORA     LPO12    LPDO1   -0.380000       0.00000          -1   0.00000       0.00000    
     13949 FORA     330      FORA     C        CD2O2A    2.99370       11.6110           0  -1.01600      0.899000    
     13950 FORA     330      FORA     DC       DRUD     -2.47370      0.400000           0   0.00000       0.00000    
     13951 FORA     330      FORA     H        HDP1C     0.00000       1.00800           0   0.00000       0.00000    
     13952 FORA     330      FORA     O2       OD2C2A    2.05180       15.5994           0 -0.699000       2.39900    
     13953 FORA     330      FORA     DO2      DRUD     -2.05180      0.400000           0   0.00000       0.00000    
     13954 FORA     330      FORA     O1       OD2C2A    2.05180       15.5994           0 -0.699000       2.39900    
     13955 FORA     330      FORA     DO1      DRUD     -2.05180      0.400000           0   0.00000       0.00000    
     13956 FORA     330      FORA     HO1      DUMH      0.00000       1.00800           0   0.00000       0.00000    
     13957 FORA     330      FORA     LPO21    LPDO1   -0.380000       0.00000          -1   0.00000       0.00000    
     13958 FORA     330      FORA     LPO22    LPDO1   -0.380000       0.00000          -1   0.00000       0.00000    
     13959 FORA     330      FORA     LPO11    LPDO1   -0.380000       0.00000          -1   0.00000       0.00000    
     13960 FORA     330      FORA     LPO12    LPDO1   -0.380000       0.00000          -1   0.00000       0.00000    
     13961 FORA     331      FORA     C        CD2O2A    2.99370       11.6110           0  -1.01600      0.899000    
     13962 FORA     331      FORA     DC       DRUD     -2.47370      0.400000           0   0.00000       0.00000    
     13963 FORA     331      FORA     H        HDP1C     0.00000       1.00800           0   0.00000       0.00000    
     13964 FORA     331      FORA     O2       OD2C2A    2.05180       15.5994           0 -0.699000       2.39900    
     13965 FORA     331      FORA     DO2      DRUD     -2.05180      0.400000           0   0.00000       0.00000    
     13966 FORA     331      FORA     O1       OD2C2A    2.05180       15.5994           0 -0.699000       2.39900    
     13967 FORA     331      FORA     DO1      DRUD     -2.05180      0.400000           0   0.00000       0.00000    
     13968 FORA     331      FORA     HO1      DUMH      0.00000       1.00800           0   0.00000       0.00000    
     13969 FORA     331      FORA     LPO21    LPDO1   -0.380000       0.00000          -1   0.00000       0.00000    
     13970 FORA     331      FORA     LPO22    LPDO1   -0.380000       0.00000          -1   0.00000       0.00000    
     13971 FORA     331      FORA     LPO11    LPDO1   -0.380000       0.00000          -1   0.00000       0.00000    
     13972 FORA     331      FORA     LPO12    LPDO1   -0.380000       0.00000          -1   0.00000       0.00000    
     13973 FORA     332      FORA     C        CD2O2A    2.99370       11.6110           0  -1.01600      0.899000    
     13974 FORA     332      FORA     DC       DRUD     -2.47370      0.400000           0   0.00000       0.00000    
     13975 FORA     332      FORA     H        HDP1C     0.00000       1.00800           0   0.00000       0.00000    
     13976 FORA     332      FORA     O2       OD2C2A    2.05180       15.5994           0 -0.699000       2.39900    
     13977 FORA     332      FORA     DO2      DRUD     -2.05180      0.400000           0   0.00000       0.00000    
     13978 FORA     332      FORA     O1       OD2C2A    2.05180       15.5994           0 -0.699000       2.39900    
     13979 FORA     332      FORA     DO1      DRUD     -2.05180      0.400000           0   0.00000       0.00000    
     13980 FORA     332      FORA     HO1      DUMH      0.00000       1.00800           0   0.00000       0.00000    
     13981 FORA     332      FORA     LPO21    LPDO1   -0.380000       0.00000          -1   0.00000       0.00000    
     13982 FORA     332      FORA     LPO22    LPDO1   -0.380000       0.00000          -1   0.00000       0.00000    
     13983 FORA     332      FORA     LPO11    LPDO1   -0.380000       0.00000          -1   0.00000       0.00000    
     13984 FORA     332      FORA     LPO12    LPDO1   -0.380000       0.00000          -1   0.00000       0.00000    
     13985 FORA     333      FORA     C        CD2O2A    2.99370       11.6110           0  -1.01600      0.899000    
     13986 FORA     333      FORA     DC       DRUD     -2.47370      0.400000           0   0.00000       0.00000    
     13987 FORA     333      FORA     H        HDP1C     0.00000       1.00800           0   0.00000       0.00000    
     13988 FORA     333      FORA     O2       OD2C2A    2.05180       15.5994           0 -0.699000       2.39900    
     13989 FORA     333      FORA     DO2      DRUD     -2.05180      0.400000           0   0.00000       0.00000    
     13990 FORA     333      FORA     O1       OD2C2A    2.05180       15.5994           0 -0.699000       2.39900    
     13991 FORA     333      FORA     DO1      DRUD     -2.05180      0.400000           0   0.00000       0.00000    
     13992 FORA     333      FORA     HO1      DUMH      0.00000       1.00800           0   0.00000       0.00000    
     13993 FORA     333      FORA     LPO21    LPDO1   -0.380000       0.00000          -1   0.00000       0.00000    
     13994 FORA     333      FORA     LPO22    LPDO1   -0.380000       0.00000          -1   0.00000       0.00000    
     13995 FORA     333      FORA     LPO11    LPDO1   -0.380000       0.00000          -1   0.00000       0.00000    
     13996 FORA     333      FORA     LPO12    LPDO1   -0.380000       0.00000          -1   0.00000       0.00000    
     13997 FORA     334      FORA     C        CD2O2A    2.99370       11.6110           0  -1.01600      0.899000    
     13998 FORA     334      FORA     DC       DRUD     -2.47370      0.400000           0   0.00000       0.00000    
     13999 FORA     334      FORA     H        HDP1C     0.00000       1.00800           0   0.00000       0.00000    
     14000 FORA     334      FORA     O2       OD2C2A    2.05180       15.5994           0 -0.699000       2.39900    
     14001 FORA     334      FORA     DO2      DRUD     -2.05180      0.400000           0   0.00000       0.00000    
     14002 FORA     334      FORA     O1       OD2C2A    2.05180       15.5994           0 -0.699000       2.39900    
     14003 FORA     334      FORA     DO1      DRUD     -2.05180      0.400000           0   0.00000       0.00000    
     14004 FORA     334      FORA     HO1      DUMH      0.00000       1.00800           0   0.00000       0.00000    
     14005 FORA     334      FORA     LPO21    LPDO1   -0.380000       0.00000          -1   0.00000       0.00000    
     14006 FORA     334      FORA     LPO22    LPDO1   -0.380000       0.00000          -1   0.00000       0.00000    
     14007 FORA     334      FORA     LPO11    LPDO1   -0.380000       0.00000          -1   0.00000       0.00000    
     14008 FORA     334      FORA     LPO12    LPDO1   -0.380000       0.00000          -1   0.00000       0.00000    
     14009 FORA     335      FORA     C        CD2O2A    2.99370       11.6110           0  -1.01600      0.899000    
     14010 FORA     335      FORA     DC       DRUD     -2.47370      0.400000           0   0.00000       0.00000    
     14011 FORA     335      FORA     H        HDP1C     0.00000       1.00800           0   0.00000       0.00000    
     14012 FORA     335      FORA     O2       OD2C2A    2.05180       15.5994           0 -0.699000       2.39900    
     14013 FORA     335      FORA     DO2      DRUD     -2.05180      0.400000           0   0.00000       0.00000    
     14014 FORA     335      FORA     O1       OD2C2A    2.05180       15.5994           0 -0.699000       2.39900    
     14015 FORA     335      FORA     DO1      DRUD     -2.05180      0.400000           0   0.00000       0.00000    
     14016 FORA     335      FORA     HO1      DUMH      0.00000       1.00800           0   0.00000       0.00000    
     14017 FORA     335      FORA     LPO21    LPDO1   -0.380000       0.00000          -1   0.00000       0.00000    
     14018 FORA     335      FORA     LPO22    LPDO1   -0.380000       0.00000          -1   0.00000       0.00000    
     14019 FORA     335      FORA     LPO11    LPDO1   -0.380000       0.00000          -1   0.00000       0.00000    
     14020 FORA     335      FORA     LPO12    LPDO1   -0.380000       0.00000          -1   0.00000       0.00000    
     14021 FORA     336      FORA     C        CD2O2A    2.99370       11.6110           0  -1.01600      0.899000    
     14022 FORA     336      FORA     DC       DRUD     -2.47370      0.400000           0   0.00000       0.00000    
     14023 FORA     336      FORA     H        HDP1C     0.00000       1.00800           0   0.00000       0.00000    
     14024 FORA     336      FORA     O2       OD2C2A    2.05180       15.5994           0 -0.699000       2.39900    
     14025 FORA     336      FORA     DO2      DRUD     -2.05180      0.400000           0   0.00000       0.00000    
     14026 FORA     336      FORA     O1       OD2C2A    2.05180       15.5994           0 -0.699000       2.39900    
     14027 FORA     336      FORA     DO1      DRUD     -2.05180      0.400000           0   0.00000       0.00000    
     14028 FORA     336      FORA     HO1      DUMH      0.00000       1.00800           0   0.00000       0.00000    
     14029 FORA     336      FORA     LPO21    LPDO1   -0.380000       0.00000          -1   0.00000       0.00000    
     14030 FORA     336      FORA     LPO22    LPDO1   -0.380000       0.00000          -1   0.00000       0.00000    
     14031 FORA     336      FORA     LPO11    LPDO1   -0.380000       0.00000          -1   0.00000       0.00000    
     14032 FORA     336      FORA     LPO12    LPDO1   -0.380000       0.00000          -1   0.00000       0.00000    
     14033 FORA     337      FORA     C        CD2O2A    2.99370       11.6110           0  -1.01600      0.899000    
     14034 FORA     337      FORA     DC       DRUD     -2.47370      0.400000           0   0.00000       0.00000    
     14035 FORA     337      FORA     H        HDP1C     0.00000       1.00800           0   0.00000       0.00000    
     14036 FORA     337      FORA     O2       OD2C2A    2.05180       15.5994           0 -0.699000       2.39900    
     14037 FORA     337      FORA     DO2      DRUD     -2.05180      0.400000           0   0.00000       0.00000    
     14038 FORA     337      FORA     O1       OD2C2A    2.05180       15.5994           0 -0.699000       2.39900    
     14039 FORA     337      FORA     DO1      DRUD     -2.05180      0.400000           0   0.00000       0.00000    
     14040 FORA     337      FORA     HO1      DUMH      0.00000       1.00800           0   0.00000       0.00000    
     14041 FORA     337      FORA     LPO21    LPDO1   -0.380000       0.00000          -1   0.00000       0.00000    
     14042 FORA     337      FORA     LPO22    LPDO1   -0.380000       0.00000          -1   0.00000       0.00000    
     14043 FORA     337      FORA     LPO11    LPDO1   -0.380000       0.00000          -1   0.00000       0.00000    
     14044 FORA     337      FORA     LPO12    LPDO1   -0.380000       0.00000          -1   0.00000       0.00000    
     14045 FORA     338      FORA     C        CD2O2A    2.99370       11.6110           0  -1.01600      0.899000    
     14046 FORA     338      FORA     DC       DRUD     -2.47370      0.400000           0   0.00000       0.00000    
     14047 FORA     338      FORA     H        HDP1C     0.00000       1.00800           0   0.00000       0.00000    
     14048 FORA     338      FORA     O2       OD2C2A    2.05180       15.5994           0 -0.699000       2.39900    
     14049 FORA     338      FORA     DO2      DRUD     -2.05180      0.400000           0   0.00000       0.00000    
     14050 FORA     338      FORA     O1       OD2C2A    2.05180       15.5994           0 -0.699000       2.39900    
     14051 FORA     338      FORA     DO1      DRUD     -2.05180      0.400000           0   0.00000       0.00000    
     14052 FORA     338      FORA     HO1      DUMH      0.00000       1.00800           0   0.00000       0.00000    
     14053 FORA     338      FORA     LPO21    LPDO1   -0.380000       0.00000          -1   0.00000       0.00000    
     14054 FORA     338      FORA     LPO22    LPDO1   -0.380000       0.00000          -1   0.00000       0.00000    
     14055 FORA     338      FORA     LPO11    LPDO1   -0.380000       0.00000          -1   0.00000       0.00000    
     14056 FORA     338      FORA     LPO12    LPDO1   -0.380000       0.00000          -1   0.00000       0.00000    
     14057 FORA     339      FORA     C        CD2O2A    2.99370       11.6110           0  -1.01600      0.899000    
     14058 FORA     339      FORA     DC       DRUD     -2.47370      0.400000           0   0.00000       0.00000    
     14059 FORA     339      FORA     H        HDP1C     0.00000       1.00800           0   0.00000       0.00000    
     14060 FORA     339      FORA     O2       OD2C2A    2.05180       15.5994           0 -0.699000       2.39900    
     14061 FORA     339      FORA     DO2      DRUD     -2.05180      0.400000           0   0.00000       0.00000    
     14062 FORA     339      FORA     O1       OD2C2A    2.05180       15.5994           0 -0.699000       2.39900    
     14063 FORA     339      FORA     DO1      DRUD     -2.05180      0.400000           0   0.00000       0.00000    
     14064 FORA     339      FORA     HO1      DUMH      0.00000       1.00800           0   0.00000       0.00000    
     14065 FORA     339      FORA     LPO21    LPDO1   -0.380000       0.00000          -1   0.00000       0.00000    
     14066 FORA     339      FORA     LPO22    LPDO1   -0.380000       0.00000          -1   0.00000       0.00000    
     14067 FORA     339      FORA     LPO11    LPDO1   -0.380000       0.00000          -1   0.00000       0.00000    
     14068 FORA     339      FORA     LPO12    LPDO1   -0.380000       0.00000          -1   0.00000       0.00000    
     14069 FORA     340      FORA     C        CD2O2A    2.99370       11.6110           0  -1.01600      0.899000    
     14070 FORA     340      FORA     DC       DRUD     -2.47370      0.400000           0   0.00000       0.00000    
     14071 FORA     340      FORA     H        HDP1C     0.00000       1.00800           0   0.00000       0.00000    
     14072 FORA     340      FORA     O2       OD2C2A    2.05180       15.5994           0 -0.699000       2.39900    
     14073 FORA     340      FORA     DO2      DRUD     -2.05180      0.400000           0   0.00000       0.00000    
     14074 FORA     340      FORA     O1       OD2C2A    2.05180       15.5994           0 -0.699000       2.39900    
     14075 FORA     340      FORA     DO1      DRUD     -2.05180      0.400000           0   0.00000       0.00000    
     14076 FORA     340      FORA     HO1      DUMH      0.00000       1.00800           0   0.00000       0.00000    
     14077 FORA     340      FORA     LPO21    LPDO1   -0.380000       0.00000          -1   0.00000       0.00000    
     14078 FORA     340      FORA     LPO22    LPDO1   -0.380000       0.00000          -1   0.00000       0.00000    
     14079 FORA     340      FORA     LPO11    LPDO1   -0.380000       0.00000          -1   0.00000       0.00000    
     14080 FORA     340      FORA     LPO12    LPDO1   -0.380000       0.00000          -1   0.00000       0.00000    
     14081 FORA     341      FORA     C        CD2O2A    2.99370       11.6110           0  -1.01600      0.899000    
     14082 FORA     341      FORA     DC       DRUD     -2.47370      0.400000           0   0.00000       0.00000    
     14083 FORA     341      FORA     H        HDP1C     0.00000       1.00800           0   0.00000       0.00000    
     14084 FORA     341      FORA     O2       OD2C2A    2.05180       15.5994           0 -0.699000       2.39900    
     14085 FORA     341      FORA     DO2      DRUD     -2.05180      0.400000           0   0.00000       0.00000    
     14086 FORA     341      FORA     O1       OD2C2A    2.05180       15.5994           0 -0.699000       2.39900    
     14087 FORA     341      FORA     DO1      DRUD     -2.05180      0.400000           0   0.00000       0.00000    
     14088 FORA     341      FORA     HO1      DUMH      0.00000       1.00800           0   0.00000       0.00000    
     14089 FORA     341      FORA     LPO21    LPDO1   -0.380000       0.00000          -1   0.00000       0.00000    
     14090 FORA     341      FORA     LPO22    LPDO1   -0.380000       0.00000          -1   0.00000       0.00000    
     14091 FORA     341      FORA     LPO11    LPDO1   -0.380000       0.00000          -1   0.00000       0.00000    
     14092 FORA     341      FORA     LPO12    LPDO1   -0.380000       0.00000          -1   0.00000       0.00000    
     14093 FORA     342      FORA     C        CD2O2A    2.99370       11.6110           0  -1.01600      0.899000    
     14094 FORA     342      FORA     DC       DRUD     -2.47370      0.400000           0   0.00000       0.00000    
     14095 FORA     342      FORA     H        HDP1C     0.00000       1.00800           0   0.00000       0.00000    
     14096 FORA     342      FORA     O2       OD2C2A    2.05180       15.5994           0 -0.699000       2.39900    
     14097 FORA     342      FORA     DO2      DRUD     -2.05180      0.400000           0   0.00000       0.00000    
     14098 FORA     342      FORA     O1       OD2C2A    2.05180       15.5994           0 -0.699000       2.39900    
     14099 FORA     342      FORA     DO1      DRUD     -2.05180      0.400000           0   0.00000       0.00000    
     14100 FORA     342      FORA     HO1      DUMH      0.00000       1.00800           0   0.00000       0.00000    
     14101 FORA     342      FORA     LPO21    LPDO1   -0.380000       0.00000          -1   0.00000       0.00000    
     14102 FORA     342      FORA     LPO22    LPDO1   -0.380000       0.00000          -1   0.00000       0.00000    
     14103 FORA     342      FORA     LPO11    LPDO1   -0.380000       0.00000          -1   0.00000       0.00000    
     14104 FORA     342      FORA     LPO12    LPDO1   -0.380000       0.00000          -1   0.00000       0.00000    
     14105 FORA     343      FORA     C        CD2O2A    2.99370       11.6110           0  -1.01600      0.899000    
     14106 FORA     343      FORA     DC       DRUD     -2.47370      0.400000           0   0.00000       0.00000    
     14107 FORA     343      FORA     H        HDP1C     0.00000       1.00800           0   0.00000       0.00000    
     14108 FORA     343      FORA     O2       OD2C2A    2.05180       15.5994           0 -0.699000       2.39900    
     14109 FORA     343      FORA     DO2      DRUD     -2.05180      0.400000           0   0.00000       0.00000    
     14110 FORA     343      FORA     O1       OD2C2A    2.05180       15.5994           0 -0.699000       2.39900    
     14111 FORA     343      FORA     DO1      DRUD     -2.05180      0.400000           0   0.00000       0.00000    
     14112 FORA     343      FORA     HO1      DUMH      0.00000       1.00800           0   0.00000       0.00000    
     14113 FORA     343      FORA     LPO21    LPDO1   -0.380000       0.00000          -1   0.00000       0.00000    
     14114 FORA     343      FORA     LPO22    LPDO1   -0.380000       0.00000          -1   0.00000       0.00000    
     14115 FORA     343      FORA     LPO11    LPDO1   -0.380000       0.00000          -1   0.00000       0.00000    
     14116 FORA     343      FORA     LPO12    LPDO1   -0.380000       0.00000          -1   0.00000       0.00000    
     14117 FORA     344      FORA     C        CD2O2A    2.99370       11.6110           0  -1.01600      0.899000    
     14118 FORA     344      FORA     DC       DRUD     -2.47370      0.400000           0   0.00000       0.00000    
     14119 FORA     344      FORA     H        HDP1C     0.00000       1.00800           0   0.00000       0.00000    
     14120 FORA     344      FORA     O2       OD2C2A    2.05180       15.5994           0 -0.699000       2.39900    
     14121 FORA     344      FORA     DO2      DRUD     -2.05180      0.400000           0   0.00000       0.00000    
     14122 FORA     344      FORA     O1       OD2C2A    2.05180       15.5994           0 -0.699000       2.39900    
     14123 FORA     344      FORA     DO1      DRUD     -2.05180      0.400000           0   0.00000       0.00000    
     14124 FORA     344      FORA     HO1      DUMH      0.00000       1.00800           0   0.00000       0.00000    
     14125 FORA     344      FORA     LPO21    LPDO1   -0.380000       0.00000          -1   0.00000       0.00000    
     14126 FORA     344      FORA     LPO22    LPDO1   -0.380000       0.00000          -1   0.00000       0.00000    
     14127 FORA     344      FORA     LPO11    LPDO1   -0.380000       0.00000          -1   0.00000       0.00000    
     14128 FORA     344      FORA     LPO12    LPDO1   -0.380000       0.00000          -1   0.00000       0.00000    
     14129 FORA     345      FORA     C        CD2O2A    2.99370       11.6110           0  -1.01600      0.899000    
     14130 FORA     345      FORA     DC       DRUD     -2.47370      0.400000           0   0.00000       0.00000    
     14131 FORA     345      FORA     H        HDP1C     0.00000       1.00800           0   0.00000       0.00000    
     14132 FORA     345      FORA     O2       OD2C2A    2.05180       15.5994           0 -0.699000       2.39900    
     14133 FORA     345      FORA     DO2      DRUD     -2.05180      0.400000           0   0.00000       0.00000    
     14134 FORA     345      FORA     O1       OD2C2A    2.05180       15.5994           0 -0.699000       2.39900    
     14135 FORA     345      FORA     DO1      DRUD     -2.05180      0.400000           0   0.00000       0.00000    
     14136 FORA     345      FORA     HO1      DUMH      0.00000       1.00800           0   0.00000       0.00000    
     14137 FORA     345      FORA     LPO21    LPDO1   -0.380000       0.00000          -1   0.00000       0.00000    
     14138 FORA     345      FORA     LPO22    LPDO1   -0.380000       0.00000          -1   0.00000       0.00000    
     14139 FORA     345      FORA     LPO11    LPDO1   -0.380000       0.00000          -1   0.00000       0.00000    
     14140 FORA     345      FORA     LPO12    LPDO1   -0.380000       0.00000          -1   0.00000       0.00000    
     14141 FORA     346      FORA     C        CD2O2A    2.99370       11.6110           0  -1.01600      0.899000    
     14142 FORA     346      FORA     DC       DRUD     -2.47370      0.400000           0   0.00000       0.00000    
     14143 FORA     346      FORA     H        HDP1C     0.00000       1.00800           0   0.00000       0.00000    
     14144 FORA     346      FORA     O2       OD2C2A    2.05180       15.5994           0 -0.699000       2.39900    
     14145 FORA     346      FORA     DO2      DRUD     -2.05180      0.400000           0   0.00000       0.00000    
     14146 FORA     346      FORA     O1       OD2C2A    2.05180       15.5994           0 -0.699000       2.39900    
     14147 FORA     346      FORA     DO1      DRUD     -2.05180      0.400000           0   0.00000       0.00000    
     14148 FORA     346      FORA     HO1      DUMH      0.00000       1.00800           0   0.00000       0.00000    
     14149 FORA     346      FORA     LPO21    LPDO1   -0.380000       0.00000          -1   0.00000       0.00000    
     14150 FORA     346      FORA     LPO22    LPDO1   -0.380000       0.00000          -1   0.00000       0.00000    
     14151 FORA     346      FORA     LPO11    LPDO1   -0.380000       0.00000          -1   0.00000       0.00000    
     14152 FORA     346      FORA     LPO12    LPDO1   -0.380000       0.00000          -1   0.00000       0.00000    
     14153 FORA     347      FORA     C        CD2O2A    2.99370       11.6110           0  -1.01600      0.899000    
     14154 FORA     347      FORA     DC       DRUD     -2.47370      0.400000           0   0.00000       0.00000    
     14155 FORA     347      FORA     H        HDP1C     0.00000       1.00800           0   0.00000       0.00000    
     14156 FORA     347      FORA     O2       OD2C2A    2.05180       15.5994           0 -0.699000       2.39900    
     14157 FORA     347      FORA     DO2      DRUD     -2.05180      0.400000           0   0.00000       0.00000    
     14158 FORA     347      FORA     O1       OD2C2A    2.05180       15.5994           0 -0.699000       2.39900    
     14159 FORA     347      FORA     DO1      DRUD     -2.05180      0.400000           0   0.00000       0.00000    
     14160 FORA     347      FORA     HO1      DUMH      0.00000       1.00800           0   0.00000       0.00000    
     14161 FORA     347      FORA     LPO21    LPDO1   -0.380000       0.00000          -1   0.00000       0.00000    
     14162 FORA     347      FORA     LPO22    LPDO1   -0.380000       0.00000          -1   0.00000       0.00000    
     14163 FORA     347      FORA     LPO11    LPDO1   -0.380000       0.00000          -1   0.00000       0.00000    
     14164 FORA     347      FORA     LPO12    LPDO1   -0.380000       0.00000          -1   0.00000       0.00000    
     14165 FORA     348      FORA     C        CD2O2A    2.99370       11.6110           0  -1.01600      0.899000    
     14166 FORA     348      FORA     DC       DRUD     -2.47370      0.400000           0   0.00000       0.00000    
     14167 FORA     348      FORA     H        HDP1C     0.00000       1.00800           0   0.00000       0.00000    
     14168 FORA     348      FORA     O2       OD2C2A    2.05180       15.5994           0 -0.699000       2.39900    
     14169 FORA     348      FORA     DO2      DRUD     -2.05180      0.400000           0   0.00000       0.00000    
     14170 FORA     348      FORA     O1       OD2C2A    2.05180       15.5994           0 -0.699000       2.39900    
     14171 FORA     348      FORA     DO1      DRUD     -2.05180      0.400000           0   0.00000       0.00000    
     14172 FORA     348      FORA     HO1      DUMH      0.00000       1.00800           0   0.00000       0.00000    
     14173 FORA     348      FORA     LPO21    LPDO1   -0.380000       0.00000          -1   0.00000       0.00000    
     14174 FORA     348      FORA     LPO22    LPDO1   -0.380000       0.00000          -1   0.00000       0.00000    
     14175 FORA     348      FORA     LPO11    LPDO1   -0.380000       0.00000          -1   0.00000       0.00000    
     14176 FORA     348      FORA     LPO12    LPDO1   -0.380000       0.00000          -1   0.00000       0.00000    
     14177 FORA     349      FORA     C        CD2O2A    2.99370       11.6110           0  -1.01600      0.899000    
     14178 FORA     349      FORA     DC       DRUD     -2.47370      0.400000           0   0.00000       0.00000    
     14179 FORA     349      FORA     H        HDP1C     0.00000       1.00800           0   0.00000       0.00000    
     14180 FORA     349      FORA     O2       OD2C2A    2.05180       15.5994           0 -0.699000       2.39900    
     14181 FORA     349      FORA     DO2      DRUD     -2.05180      0.400000           0   0.00000       0.00000    
     14182 FORA     349      FORA     O1       OD2C2A    2.05180       15.5994           0 -0.699000       2.39900    
     14183 FORA     349      FORA     DO1      DRUD     -2.05180      0.400000           0   0.00000       0.00000    
     14184 FORA     349      FORA     HO1      DUMH      0.00000       1.00800           0   0.00000       0.00000    
     14185 FORA     349      FORA     LPO21    LPDO1   -0.380000       0.00000          -1   0.00000       0.00000    
     14186 FORA     349      FORA     LPO22    LPDO1   -0.380000       0.00000          -1   0.00000       0.00000    
     14187 FORA     349      FORA     LPO11    LPDO1   -0.380000       0.00000          -1   0.00000       0.00000    
     14188 FORA     349      FORA     LPO12    LPDO1   -0.380000       0.00000          -1   0.00000       0.00000    
     14189 FORA     350      FORA     C        CD2O2A    2.99370       11.6110           0  -1.01600      0.899000    
     14190 FORA     350      FORA     DC       DRUD     -2.47370      0.400000           0   0.00000       0.00000    
     14191 FORA     350      FORA     H        HDP1C     0.00000       1.00800           0   0.00000       0.00000    
     14192 FORA     350      FORA     O2       OD2C2A    2.05180       15.5994           0 -0.699000       2.39900    
     14193 FORA     350      FORA     DO2      DRUD     -2.05180      0.400000           0   0.00000       0.00000    
     14194 FORA     350      FORA     O1       OD2C2A    2.05180       15.5994           0 -0.699000       2.39900    
     14195 FORA     350      FORA     DO1      DRUD     -2.05180      0.400000           0   0.00000       0.00000    
     14196 FORA     350      FORA     HO1      DUMH      0.00000       1.00800           0   0.00000       0.00000    
     14197 FORA     350      FORA     LPO21    LPDO1   -0.380000       0.00000          -1   0.00000       0.00000    
     14198 FORA     350      FORA     LPO22    LPDO1   -0.380000       0.00000          -1   0.00000       0.00000    
     14199 FORA     350      FORA     LPO11    LPDO1   -0.380000       0.00000          -1   0.00000       0.00000    
     14200 FORA     350      FORA     LPO12    LPDO1   -0.380000       0.00000          -1   0.00000       0.00000    
     14201 FORA     351      FORA     C        CD2O2A    2.99370       11.6110           0  -1.01600      0.899000    
     14202 FORA     351      FORA     DC       DRUD     -2.47370      0.400000           0   0.00000       0.00000    
     14203 FORA     351      FORA     H        HDP1C     0.00000       1.00800           0   0.00000       0.00000    
     14204 FORA     351      FORA     O2       OD2C2A    2.05180       15.5994           0 -0.699000       2.39900    
     14205 FORA     351      FORA     DO2      DRUD     -2.05180      0.400000           0   0.00000       0.00000    
     14206 FORA     351      FORA     O1       OD2C2A    2.05180       15.5994           0 -0.699000       2.39900    
     14207 FORA     351      FORA     DO1      DRUD     -2.05180      0.400000           0   0.00000       0.00000    
     14208 FORA     351      FORA     HO1      DUMH      0.00000       1.00800           0   0.00000       0.00000    
     14209 FORA     351      FORA     LPO21    LPDO1   -0.380000       0.00000          -1   0.00000       0.00000    
     14210 FORA     351      FORA     LPO22    LPDO1   -0.380000       0.00000          -1   0.00000       0.00000    
     14211 FORA     351      FORA     LPO11    LPDO1   -0.380000       0.00000          -1   0.00000       0.00000    
     14212 FORA     351      FORA     LPO12    LPDO1   -0.380000       0.00000          -1   0.00000       0.00000    
     14213 FORA     352      FORA     C        CD2O2A    2.99370       11.6110           0  -1.01600      0.899000    
     14214 FORA     352      FORA     DC       DRUD     -2.47370      0.400000           0   0.00000       0.00000    
     14215 FORA     352      FORA     H        HDP1C     0.00000       1.00800           0   0.00000       0.00000    
     14216 FORA     352      FORA     O2       OD2C2A    2.05180       15.5994           0 -0.699000       2.39900    
     14217 FORA     352      FORA     DO2      DRUD     -2.05180      0.400000           0   0.00000       0.00000    
     14218 FORA     352      FORA     O1       OD2C2A    2.05180       15.5994           0 -0.699000       2.39900    
     14219 FORA     352      FORA     DO1      DRUD     -2.05180      0.400000           0   0.00000       0.00000    
     14220 FORA     352      FORA     HO1      DUMH      0.00000       1.00800           0   0.00000       0.00000    
     14221 FORA     352      FORA     LPO21    LPDO1   -0.380000       0.00000          -1   0.00000       0.00000    
     14222 FORA     352      FORA     LPO22    LPDO1   -0.380000       0.00000          -1   0.00000       0.00000    
     14223 FORA     352      FORA     LPO11    LPDO1   -0.380000       0.00000          -1   0.00000       0.00000    
     14224 FORA     352      FORA     LPO12    LPDO1   -0.380000       0.00000          -1   0.00000       0.00000    
     14225 FORA     353      FORA     C        CD2O2A    2.99370       11.6110           0  -1.01600      0.899000    
     14226 FORA     353      FORA     DC       DRUD     -2.47370      0.400000           0   0.00000       0.00000    
     14227 FORA     353      FORA     H        HDP1C     0.00000       1.00800           0   0.00000       0.00000    
     14228 FORA     353      FORA     O2       OD2C2A    2.05180       15.5994           0 -0.699000       2.39900    
     14229 FORA     353      FORA     DO2      DRUD     -2.05180      0.400000           0   0.00000       0.00000    
     14230 FORA     353      FORA     O1       OD2C2A    2.05180       15.5994           0 -0.699000       2.39900    
     14231 FORA     353      FORA     DO1      DRUD     -2.05180      0.400000           0   0.00000       0.00000    
     14232 FORA     353      FORA     HO1      DUMH      0.00000       1.00800           0   0.00000       0.00000    
     14233 FORA     353      FORA     LPO21    LPDO1   -0.380000       0.00000          -1   0.00000       0.00000    
     14234 FORA     353      FORA     LPO22    LPDO1   -0.380000       0.00000          -1   0.00000       0.00000    
     14235 FORA     353      FORA     LPO11    LPDO1   -0.380000       0.00000          -1   0.00000       0.00000    
     14236 FORA     353      FORA     LPO12    LPDO1   -0.380000       0.00000          -1   0.00000       0.00000    
     14237 FORA     354      FORA     C        CD2O2A    2.99370       11.6110           0  -1.01600      0.899000    
     14238 FORA     354      FORA     DC       DRUD     -2.47370      0.400000           0   0.00000       0.00000    
     14239 FORA     354      FORA     H        HDP1C     0.00000       1.00800           0   0.00000       0.00000    
     14240 FORA     354      FORA     O2       OD2C2A    2.05180       15.5994           0 -0.699000       2.39900    
     14241 FORA     354      FORA     DO2      DRUD     -2.05180      0.400000           0   0.00000       0.00000    
     14242 FORA     354      FORA     O1       OD2C2A    2.05180       15.5994           0 -0.699000       2.39900    
     14243 FORA     354      FORA     DO1      DRUD     -2.05180      0.400000           0   0.00000       0.00000    
     14244 FORA     354      FORA     HO1      DUMH      0.00000       1.00800           0   0.00000       0.00000    
     14245 FORA     354      FORA     LPO21    LPDO1   -0.380000       0.00000          -1   0.00000       0.00000    
     14246 FORA     354      FORA     LPO22    LPDO1   -0.380000       0.00000          -1   0.00000       0.00000    
     14247 FORA     354      FORA     LPO11    LPDO1   -0.380000       0.00000          -1   0.00000       0.00000    
     14248 FORA     354      FORA     LPO12    LPDO1   -0.380000       0.00000          -1   0.00000       0.00000    
     14249 FORA     355      FORA     C        CD2O2A    2.99370       11.6110           0  -1.01600      0.899000    
     14250 FORA     355      FORA     DC       DRUD     -2.47370      0.400000           0   0.00000       0.00000    
     14251 FORA     355      FORA     H        HDP1C     0.00000       1.00800           0   0.00000       0.00000    
     14252 FORA     355      FORA     O2       OD2C2A    2.05180       15.5994           0 -0.699000       2.39900    
     14253 FORA     355      FORA     DO2      DRUD     -2.05180      0.400000           0   0.00000       0.00000    
     14254 FORA     355      FORA     O1       OD2C2A    2.05180       15.5994           0 -0.699000       2.39900    
     14255 FORA     355      FORA     DO1      DRUD     -2.05180      0.400000           0   0.00000       0.00000    
     14256 FORA     355      FORA     HO1      DUMH      0.00000       1.00800           0   0.00000       0.00000    
     14257 FORA     355      FORA     LPO21    LPDO1   -0.380000       0.00000          -1   0.00000       0.00000    
     14258 FORA     355      FORA     LPO22    LPDO1   -0.380000       0.00000          -1   0.00000       0.00000    
     14259 FORA     355      FORA     LPO11    LPDO1   -0.380000       0.00000          -1   0.00000       0.00000    
     14260 FORA     355      FORA     LPO12    LPDO1   -0.380000       0.00000          -1   0.00000       0.00000    
     14261 FORA     356      FORA     C        CD2O2A    2.99370       11.6110           0  -1.01600      0.899000    
     14262 FORA     356      FORA     DC       DRUD     -2.47370      0.400000           0   0.00000       0.00000    
     14263 FORA     356      FORA     H        HDP1C     0.00000       1.00800           0   0.00000       0.00000    
     14264 FORA     356      FORA     O2       OD2C2A    2.05180       15.5994           0 -0.699000       2.39900    
     14265 FORA     356      FORA     DO2      DRUD     -2.05180      0.400000           0   0.00000       0.00000    
     14266 FORA     356      FORA     O1       OD2C2A    2.05180       15.5994           0 -0.699000       2.39900    
     14267 FORA     356      FORA     DO1      DRUD     -2.05180      0.400000           0   0.00000       0.00000    
     14268 FORA     356      FORA     HO1      DUMH      0.00000       1.00800           0   0.00000       0.00000    
     14269 FORA     356      FORA     LPO21    LPDO1   -0.380000       0.00000          -1   0.00000       0.00000    
     14270 FORA     356      FORA     LPO22    LPDO1   -0.380000       0.00000          -1   0.00000       0.00000    
     14271 FORA     356      FORA     LPO11    LPDO1   -0.380000       0.00000          -1   0.00000       0.00000    
     14272 FORA     356      FORA     LPO12    LPDO1   -0.380000       0.00000          -1   0.00000       0.00000    
     14273 FORA     357      FORA     C        CD2O2A    2.99370       11.6110           0  -1.01600      0.899000    
     14274 FORA     357      FORA     DC       DRUD     -2.47370      0.400000           0   0.00000       0.00000    
     14275 FORA     357      FORA     H        HDP1C     0.00000       1.00800           0   0.00000       0.00000    
     14276 FORA     357      FORA     O2       OD2C2A    2.05180       15.5994           0 -0.699000       2.39900    
     14277 FORA     357      FORA     DO2      DRUD     -2.05180      0.400000           0   0.00000       0.00000    
     14278 FORA     357      FORA     O1       OD2C2A    2.05180       15.5994           0 -0.699000       2.39900    
     14279 FORA     357      FORA     DO1      DRUD     -2.05180      0.400000           0   0.00000       0.00000    
     14280 FORA     357      FORA     HO1      DUMH      0.00000       1.00800           0   0.00000       0.00000    
     14281 FORA     357      FORA     LPO21    LPDO1   -0.380000       0.00000          -1   0.00000       0.00000    
     14282 FORA     357      FORA     LPO22    LPDO1   -0.380000       0.00000          -1   0.00000       0.00000    
     14283 FORA     357      FORA     LPO11    LPDO1   -0.380000       0.00000          -1   0.00000       0.00000    
     14284 FORA     357      FORA     LPO12    LPDO1   -0.380000       0.00000          -1   0.00000       0.00000    
     14285 FORA     358      FORA     C        CD2O2A    2.99370       11.6110           0  -1.01600      0.899000    
     14286 FORA     358      FORA     DC       DRUD     -2.47370      0.400000           0   0.00000       0.00000    
     14287 FORA     358      FORA     H        HDP1C     0.00000       1.00800           0   0.00000       0.00000    
     14288 FORA     358      FORA     O2       OD2C2A    2.05180       15.5994           0 -0.699000       2.39900    
     14289 FORA     358      FORA     DO2      DRUD     -2.05180      0.400000           0   0.00000       0.00000    
     14290 FORA     358      FORA     O1       OD2C2A    2.05180       15.5994           0 -0.699000       2.39900    
     14291 FORA     358      FORA     DO1      DRUD     -2.05180      0.400000           0   0.00000       0.00000    
     14292 FORA     358      FORA     HO1      DUMH      0.00000       1.00800           0   0.00000       0.00000    
     14293 FORA     358      FORA     LPO21    LPDO1   -0.380000       0.00000          -1   0.00000       0.00000    
     14294 FORA     358      FORA     LPO22    LPDO1   -0.380000       0.00000          -1   0.00000       0.00000    
     14295 FORA     358      FORA     LPO11    LPDO1   -0.380000       0.00000          -1   0.00000       0.00000    
     14296 FORA     358      FORA     LPO12    LPDO1   -0.380000       0.00000          -1   0.00000       0.00000    
     14297 FORA     359      FORA     C        CD2O2A    2.99370       11.6110           0  -1.01600      0.899000    
     14298 FORA     359      FORA     DC       DRUD     -2.47370      0.400000           0   0.00000       0.00000    
     14299 FORA     359      FORA     H        HDP1C     0.00000       1.00800           0   0.00000       0.00000    
     14300 FORA     359      FORA     O2       OD2C2A    2.05180       15.5994           0 -0.699000       2.39900    
     14301 FORA     359      FORA     DO2      DRUD     -2.05180      0.400000           0   0.00000       0.00000    
     14302 FORA     359      FORA     O1       OD2C2A    2.05180       15.5994           0 -0.699000       2.39900    
     14303 FORA     359      FORA     DO1      DRUD     -2.05180      0.400000           0   0.00000       0.00000    
     14304 FORA     359      FORA     HO1      DUMH      0.00000       1.00800           0   0.00000       0.00000    
     14305 FORA     359      FORA     LPO21    LPDO1   -0.380000       0.00000          -1   0.00000       0.00000    
     14306 FORA     359      FORA     LPO22    LPDO1   -0.380000       0.00000          -1   0.00000       0.00000    
     14307 FORA     359      FORA     LPO11    LPDO1   -0.380000       0.00000          -1   0.00000       0.00000    
     14308 FORA     359      FORA     LPO12    LPDO1   -0.380000       0.00000          -1   0.00000       0.00000    
     14309 FORA     360      FORA     C        CD2O2A    2.99370       11.6110           0  -1.01600      0.899000    
     14310 FORA     360      FORA     DC       DRUD     -2.47370      0.400000           0   0.00000       0.00000    
     14311 FORA     360      FORA     H        HDP1C     0.00000       1.00800           0   0.00000       0.00000    
     14312 FORA     360      FORA     O2       OD2C2A    2.05180       15.5994           0 -0.699000       2.39900    
     14313 FORA     360      FORA     DO2      DRUD     -2.05180      0.400000           0   0.00000       0.00000    
     14314 FORA     360      FORA     O1       OD2C2A    2.05180       15.5994           0 -0.699000       2.39900    
     14315 FORA     360      FORA     DO1      DRUD     -2.05180      0.400000           0   0.00000       0.00000    
     14316 FORA     360      FORA     HO1      DUMH      0.00000       1.00800           0   0.00000       0.00000    
     14317 FORA     360      FORA     LPO21    LPDO1   -0.380000       0.00000          -1   0.00000       0.00000    
     14318 FORA     360      FORA     LPO22    LPDO1   -0.380000       0.00000          -1   0.00000       0.00000    
     14319 FORA     360      FORA     LPO11    LPDO1   -0.380000       0.00000          -1   0.00000       0.00000    
     14320 FORA     360      FORA     LPO12    LPDO1   -0.380000       0.00000          -1   0.00000       0.00000    
     14321 FORA     361      FORA     C        CD2O2A    2.99370       11.6110           0  -1.01600      0.899000    
     14322 FORA     361      FORA     DC       DRUD     -2.47370      0.400000           0   0.00000       0.00000    
     14323 FORA     361      FORA     H        HDP1C     0.00000       1.00800           0   0.00000       0.00000    
     14324 FORA     361      FORA     O2       OD2C2A    2.05180       15.5994           0 -0.699000       2.39900    
     14325 FORA     361      FORA     DO2      DRUD     -2.05180      0.400000           0   0.00000       0.00000    
     14326 FORA     361      FORA     O1       OD2C2A    2.05180       15.5994           0 -0.699000       2.39900    
     14327 FORA     361      FORA     DO1      DRUD     -2.05180      0.400000           0   0.00000       0.00000    
     14328 FORA     361      FORA     HO1      DUMH      0.00000       1.00800           0   0.00000       0.00000    
     14329 FORA     361      FORA     LPO21    LPDO1   -0.380000       0.00000          -1   0.00000       0.00000    
     14330 FORA     361      FORA     LPO22    LPDO1   -0.380000       0.00000          -1   0.00000       0.00000    
     14331 FORA     361      FORA     LPO11    LPDO1   -0.380000       0.00000          -1   0.00000       0.00000    
     14332 FORA     361      FORA     LPO12    LPDO1   -0.380000       0.00000          -1   0.00000       0.00000    
     14333 FORA     362      FORA     C        CD2O2A    2.99370       11.6110           0  -1.01600      0.899000    
     14334 FORA     362      FORA     DC       DRUD     -2.47370      0.400000           0   0.00000       0.00000    
     14335 FORA     362      FORA     H        HDP1C     0.00000       1.00800           0   0.00000       0.00000    
     14336 FORA     362      FORA     O2       OD2C2A    2.05180       15.5994           0 -0.699000       2.39900    
     14337 FORA     362      FORA     DO2      DRUD     -2.05180      0.400000           0   0.00000       0.00000    
     14338 FORA     362      FORA     O1       OD2C2A    2.05180       15.5994           0 -0.699000       2.39900    
     14339 FORA     362      FORA     DO1      DRUD     -2.05180      0.400000           0   0.00000       0.00000    
     14340 FORA     362      FORA     HO1      DUMH      0.00000       1.00800           0   0.00000       0.00000    
     14341 FORA     362      FORA     LPO21    LPDO1   -0.380000       0.00000          -1   0.00000       0.00000    
     14342 FORA     362      FORA     LPO22    LPDO1   -0.380000       0.00000          -1   0.00000       0.00000    
     14343 FORA     362      FORA     LPO11    LPDO1   -0.380000       0.00000          -1   0.00000       0.00000    
     14344 FORA     362      FORA     LPO12    LPDO1   -0.380000       0.00000          -1   0.00000       0.00000    
     14345 FORA     363      FORA     C        CD2O2A    2.99370       11.6110           0  -1.01600      0.899000    
     14346 FORA     363      FORA     DC       DRUD     -2.47370      0.400000           0   0.00000       0.00000    
     14347 FORA     363      FORA     H        HDP1C     0.00000       1.00800           0   0.00000       0.00000    
     14348 FORA     363      FORA     O2       OD2C2A    2.05180       15.5994           0 -0.699000       2.39900    
     14349 FORA     363      FORA     DO2      DRUD     -2.05180      0.400000           0   0.00000       0.00000    
     14350 FORA     363      FORA     O1       OD2C2A    2.05180       15.5994           0 -0.699000       2.39900    
     14351 FORA     363      FORA     DO1      DRUD     -2.05180      0.400000           0   0.00000       0.00000    
     14352 FORA     363      FORA     HO1      DUMH      0.00000       1.00800           0   0.00000       0.00000    
     14353 FORA     363      FORA     LPO21    LPDO1   -0.380000       0.00000          -1   0.00000       0.00000    
     14354 FORA     363      FORA     LPO22    LPDO1   -0.380000       0.00000          -1   0.00000       0.00000    
     14355 FORA     363      FORA     LPO11    LPDO1   -0.380000       0.00000          -1   0.00000       0.00000    
     14356 FORA     363      FORA     LPO12    LPDO1   -0.380000       0.00000          -1   0.00000       0.00000    
     14357 FORA     364      FORA     C        CD2O2A    2.99370       11.6110           0  -1.01600      0.899000    
     14358 FORA     364      FORA     DC       DRUD     -2.47370      0.400000           0   0.00000       0.00000    
     14359 FORA     364      FORA     H        HDP1C     0.00000       1.00800           0   0.00000       0.00000    
     14360 FORA     364      FORA     O2       OD2C2A    2.05180       15.5994           0 -0.699000       2.39900    
     14361 FORA     364      FORA     DO2      DRUD     -2.05180      0.400000           0   0.00000       0.00000    
     14362 FORA     364      FORA     O1       OD2C2A    2.05180       15.5994           0 -0.699000       2.39900    
     14363 FORA     364      FORA     DO1      DRUD     -2.05180      0.400000           0   0.00000       0.00000    
     14364 FORA     364      FORA     HO1      DUMH      0.00000       1.00800           0   0.00000       0.00000    
     14365 FORA     364      FORA     LPO21    LPDO1   -0.380000       0.00000          -1   0.00000       0.00000    
     14366 FORA     364      FORA     LPO22    LPDO1   -0.380000       0.00000          -1   0.00000       0.00000    
     14367 FORA     364      FORA     LPO11    LPDO1   -0.380000       0.00000          -1   0.00000       0.00000    
     14368 FORA     364      FORA     LPO12    LPDO1   -0.380000       0.00000          -1   0.00000       0.00000    
     14369 FORA     365      FORA     C        CD2O2A    2.99370       11.6110           0  -1.01600      0.899000    
     14370 FORA     365      FORA     DC       DRUD     -2.47370      0.400000           0   0.00000       0.00000    
     14371 FORA     365      FORA     H        HDP1C     0.00000       1.00800           0   0.00000       0.00000    
     14372 FORA     365      FORA     O2       OD2C2A    2.05180       15.5994           0 -0.699000       2.39900    
     14373 FORA     365      FORA     DO2      DRUD     -2.05180      0.400000           0   0.00000       0.00000    
     14374 FORA     365      FORA     O1       OD2C2A    2.05180       15.5994           0 -0.699000       2.39900    
     14375 FORA     365      FORA     DO1      DRUD     -2.05180      0.400000           0   0.00000       0.00000    
     14376 FORA     365      FORA     HO1      DUMH      0.00000       1.00800           0   0.00000       0.00000    
     14377 FORA     365      FORA     LPO21    LPDO1   -0.380000       0.00000          -1   0.00000       0.00000    
     14378 FORA     365      FORA     LPO22    LPDO1   -0.380000       0.00000          -1   0.00000       0.00000    
     14379 FORA     365      FORA     LPO11    LPDO1   -0.380000       0.00000          -1   0.00000       0.00000    
     14380 FORA     365      FORA     LPO12    LPDO1   -0.380000       0.00000          -1   0.00000       0.00000    
     14381 FORA     366      FORA     C        CD2O2A    2.99370       11.6110           0  -1.01600      0.899000    
     14382 FORA     366      FORA     DC       DRUD     -2.47370      0.400000           0   0.00000       0.00000    
     14383 FORA     366      FORA     H        HDP1C     0.00000       1.00800           0   0.00000       0.00000    
     14384 FORA     366      FORA     O2       OD2C2A    2.05180       15.5994           0 -0.699000       2.39900    
     14385 FORA     366      FORA     DO2      DRUD     -2.05180      0.400000           0   0.00000       0.00000    
     14386 FORA     366      FORA     O1       OD2C2A    2.05180       15.5994           0 -0.699000       2.39900    
     14387 FORA     366      FORA     DO1      DRUD     -2.05180      0.400000           0   0.00000       0.00000    
     14388 FORA     366      FORA     HO1      DUMH      0.00000       1.00800           0   0.00000       0.00000    
     14389 FORA     366      FORA     LPO21    LPDO1   -0.380000       0.00000          -1   0.00000       0.00000    
     14390 FORA     366      FORA     LPO22    LPDO1   -0.380000       0.00000          -1   0.00000       0.00000    
     14391 FORA     366      FORA     LPO11    LPDO1   -0.380000       0.00000          -1   0.00000       0.00000    
     14392 FORA     366      FORA     LPO12    LPDO1   -0.380000       0.00000          -1   0.00000       0.00000    
     14393 FORA     367      FORA     C        CD2O2A    2.99370       11.6110           0  -1.01600      0.899000    
     14394 FORA     367      FORA     DC       DRUD     -2.47370      0.400000           0   0.00000       0.00000    
     14395 FORA     367      FORA     H        HDP1C     0.00000       1.00800           0   0.00000       0.00000    
     14396 FORA     367      FORA     O2       OD2C2A    2.05180       15.5994           0 -0.699000       2.39900    
     14397 FORA     367      FORA     DO2      DRUD     -2.05180      0.400000           0   0.00000       0.00000    
     14398 FORA     367      FORA     O1       OD2C2A    2.05180       15.5994           0 -0.699000       2.39900    
     14399 FORA     367      FORA     DO1      DRUD     -2.05180      0.400000           0   0.00000       0.00000    
     14400 FORA     367      FORA     HO1      DUMH      0.00000       1.00800           0   0.00000       0.00000    
     14401 FORA     367      FORA     LPO21    LPDO1   -0.380000       0.00000          -1   0.00000       0.00000    
     14402 FORA     367      FORA     LPO22    LPDO1   -0.380000       0.00000          -1   0.00000       0.00000    
     14403 FORA     367      FORA     LPO11    LPDO1   -0.380000       0.00000          -1   0.00000       0.00000    
     14404 FORA     367      FORA     LPO12    LPDO1   -0.380000       0.00000          -1   0.00000       0.00000    
     14405 FORA     368      FORA     C        CD2O2A    2.99370       11.6110           0  -1.01600      0.899000    
     14406 FORA     368      FORA     DC       DRUD     -2.47370      0.400000           0   0.00000       0.00000    
     14407 FORA     368      FORA     H        HDP1C     0.00000       1.00800           0   0.00000       0.00000    
     14408 FORA     368      FORA     O2       OD2C2A    2.05180       15.5994           0 -0.699000       2.39900    
     14409 FORA     368      FORA     DO2      DRUD     -2.05180      0.400000           0   0.00000       0.00000    
     14410 FORA     368      FORA     O1       OD2C2A    2.05180       15.5994           0 -0.699000       2.39900    
     14411 FORA     368      FORA     DO1      DRUD     -2.05180      0.400000           0   0.00000       0.00000    
     14412 FORA     368      FORA     HO1      DUMH      0.00000       1.00800           0   0.00000       0.00000    
     14413 FORA     368      FORA     LPO21    LPDO1   -0.380000       0.00000          -1   0.00000       0.00000    
     14414 FORA     368      FORA     LPO22    LPDO1   -0.380000       0.00000          -1   0.00000       0.00000    
     14415 FORA     368      FORA     LPO11    LPDO1   -0.380000       0.00000          -1   0.00000       0.00000    
     14416 FORA     368      FORA     LPO12    LPDO1   -0.380000       0.00000          -1   0.00000       0.00000    
     14417 FORA     369      FORA     C        CD2O2A    2.99370       11.6110           0  -1.01600      0.899000    
     14418 FORA     369      FORA     DC       DRUD     -2.47370      0.400000           0   0.00000       0.00000    
     14419 FORA     369      FORA     H        HDP1C     0.00000       1.00800           0   0.00000       0.00000    
     14420 FORA     369      FORA     O2       OD2C2A    2.05180       15.5994           0 -0.699000       2.39900    
     14421 FORA     369      FORA     DO2      DRUD     -2.05180      0.400000           0   0.00000       0.00000    
     14422 FORA     369      FORA     O1       OD2C2A    2.05180       15.5994           0 -0.699000       2.39900    
     14423 FORA     369      FORA     DO1      DRUD     -2.05180      0.400000           0   0.00000       0.00000    
     14424 FORA     369      FORA     HO1      DUMH      0.00000       1.00800           0   0.00000       0.00000    
     14425 FORA     369      FORA     LPO21    LPDO1   -0.380000       0.00000          -1   0.00000       0.00000    
     14426 FORA     369      FORA     LPO22    LPDO1   -0.380000       0.00000          -1   0.00000       0.00000    
     14427 FORA     369      FORA     LPO11    LPDO1   -0.380000       0.00000          -1   0.00000       0.00000    
     14428 FORA     369      FORA     LPO12    LPDO1   -0.380000       0.00000          -1   0.00000       0.00000    
     14429 FORA     370      FORA     C        CD2O2A    2.99370       11.6110           0  -1.01600      0.899000    
     14430 FORA     370      FORA     DC       DRUD     -2.47370      0.400000           0   0.00000       0.00000    
     14431 FORA     370      FORA     H        HDP1C     0.00000       1.00800           0   0.00000       0.00000    
     14432 FORA     370      FORA     O2       OD2C2A    2.05180       15.5994           0 -0.699000       2.39900    
     14433 FORA     370      FORA     DO2      DRUD     -2.05180      0.400000           0   0.00000       0.00000    
     14434 FORA     370      FORA     O1       OD2C2A    2.05180       15.5994           0 -0.699000       2.39900    
     14435 FORA     370      FORA     DO1      DRUD     -2.05180      0.400000           0   0.00000       0.00000    
     14436 FORA     370      FORA     HO1      DUMH      0.00000       1.00800           0   0.00000       0.00000    
     14437 FORA     370      FORA     LPO21    LPDO1   -0.380000       0.00000          -1   0.00000       0.00000    
     14438 FORA     370      FORA     LPO22    LPDO1   -0.380000       0.00000          -1   0.00000       0.00000    
     14439 FORA     370      FORA     LPO11    LPDO1   -0.380000       0.00000          -1   0.00000       0.00000    
     14440 FORA     370      FORA     LPO12    LPDO1   -0.380000       0.00000          -1   0.00000       0.00000    
     14441 FORA     371      FORA     C        CD2O2A    2.99370       11.6110           0  -1.01600      0.899000    
     14442 FORA     371      FORA     DC       DRUD     -2.47370      0.400000           0   0.00000       0.00000    
     14443 FORA     371      FORA     H        HDP1C     0.00000       1.00800           0   0.00000       0.00000    
     14444 FORA     371      FORA     O2       OD2C2A    2.05180       15.5994           0 -0.699000       2.39900    
     14445 FORA     371      FORA     DO2      DRUD     -2.05180      0.400000           0   0.00000       0.00000    
     14446 FORA     371      FORA     O1       OD2C2A    2.05180       15.5994           0 -0.699000       2.39900    
     14447 FORA     371      FORA     DO1      DRUD     -2.05180      0.400000           0   0.00000       0.00000    
     14448 FORA     371      FORA     HO1      DUMH      0.00000       1.00800           0   0.00000       0.00000    
     14449 FORA     371      FORA     LPO21    LPDO1   -0.380000       0.00000          -1   0.00000       0.00000    
     14450 FORA     371      FORA     LPO22    LPDO1   -0.380000       0.00000          -1   0.00000       0.00000    
     14451 FORA     371      FORA     LPO11    LPDO1   -0.380000       0.00000          -1   0.00000       0.00000    
     14452 FORA     371      FORA     LPO12    LPDO1   -0.380000       0.00000          -1   0.00000       0.00000    
     14453 FORA     372      FORA     C        CD2O2A    2.99370       11.6110           0  -1.01600      0.899000    
     14454 FORA     372      FORA     DC       DRUD     -2.47370      0.400000           0   0.00000       0.00000    
     14455 FORA     372      FORA     H        HDP1C     0.00000       1.00800           0   0.00000       0.00000    
     14456 FORA     372      FORA     O2       OD2C2A    2.05180       15.5994           0 -0.699000       2.39900    
     14457 FORA     372      FORA     DO2      DRUD     -2.05180      0.400000           0   0.00000       0.00000    
     14458 FORA     372      FORA     O1       OD2C2A    2.05180       15.5994           0 -0.699000       2.39900    
     14459 FORA     372      FORA     DO1      DRUD     -2.05180      0.400000           0   0.00000       0.00000    
     14460 FORA     372      FORA     HO1      DUMH      0.00000       1.00800           0   0.00000       0.00000    
     14461 FORA     372      FORA     LPO21    LPDO1   -0.380000       0.00000          -1   0.00000       0.00000    
     14462 FORA     372      FORA     LPO22    LPDO1   -0.380000       0.00000          -1   0.00000       0.00000    
     14463 FORA     372      FORA     LPO11    LPDO1   -0.380000       0.00000          -1   0.00000       0.00000    
     14464 FORA     372      FORA     LPO12    LPDO1   -0.380000       0.00000          -1   0.00000       0.00000    
     14465 FORA     373      FORA     C        CD2O2A    2.99370       11.6110           0  -1.01600      0.899000    
     14466 FORA     373      FORA     DC       DRUD     -2.47370      0.400000           0   0.00000       0.00000    
     14467 FORA     373      FORA     H        HDP1C     0.00000       1.00800           0   0.00000       0.00000    
     14468 FORA     373      FORA     O2       OD2C2A    2.05180       15.5994           0 -0.699000       2.39900    
     14469 FORA     373      FORA     DO2      DRUD     -2.05180      0.400000           0   0.00000       0.00000    
     14470 FORA     373      FORA     O1       OD2C2A    2.05180       15.5994           0 -0.699000       2.39900    
     14471 FORA     373      FORA     DO1      DRUD     -2.05180      0.400000           0   0.00000       0.00000    
     14472 FORA     373      FORA     HO1      DUMH      0.00000       1.00800           0   0.00000       0.00000    
     14473 FORA     373      FORA     LPO21    LPDO1   -0.380000       0.00000          -1   0.00000       0.00000    
     14474 FORA     373      FORA     LPO22    LPDO1   -0.380000       0.00000          -1   0.00000       0.00000    
     14475 FORA     373      FORA     LPO11    LPDO1   -0.380000       0.00000          -1   0.00000       0.00000    
     14476 FORA     373      FORA     LPO12    LPDO1   -0.380000       0.00000          -1   0.00000       0.00000    
     14477 FORA     374      FORA     C        CD2O2A    2.99370       11.6110           0  -1.01600      0.899000    
     14478 FORA     374      FORA     DC       DRUD     -2.47370      0.400000           0   0.00000       0.00000    
     14479 FORA     374      FORA     H        HDP1C     0.00000       1.00800           0   0.00000       0.00000    
     14480 FORA     374      FORA     O2       OD2C2A    2.05180       15.5994           0 -0.699000       2.39900    
     14481 FORA     374      FORA     DO2      DRUD     -2.05180      0.400000           0   0.00000       0.00000    
     14482 FORA     374      FORA     O1       OD2C2A    2.05180       15.5994           0 -0.699000       2.39900    
     14483 FORA     374      FORA     DO1      DRUD     -2.05180      0.400000           0   0.00000       0.00000    
     14484 FORA     374      FORA     HO1      DUMH      0.00000       1.00800           0   0.00000       0.00000    
     14485 FORA     374      FORA     LPO21    LPDO1   -0.380000       0.00000          -1   0.00000       0.00000    
     14486 FORA     374      FORA     LPO22    LPDO1   -0.380000       0.00000          -1   0.00000       0.00000    
     14487 FORA     374      FORA     LPO11    LPDO1   -0.380000       0.00000          -1   0.00000       0.00000    
     14488 FORA     374      FORA     LPO12    LPDO1   -0.380000       0.00000          -1   0.00000       0.00000    
     14489 FORA     375      FORA     C        CD2O2A    2.99370       11.6110           0  -1.01600      0.899000    
     14490 FORA     375      FORA     DC       DRUD     -2.47370      0.400000           0   0.00000       0.00000    
     14491 FORA     375      FORA     H        HDP1C     0.00000       1.00800           0   0.00000       0.00000    
     14492 FORA     375      FORA     O2       OD2C2A    2.05180       15.5994           0 -0.699000       2.39900    
     14493 FORA     375      FORA     DO2      DRUD     -2.05180      0.400000           0   0.00000       0.00000    
     14494 FORA     375      FORA     O1       OD2C2A    2.05180       15.5994           0 -0.699000       2.39900    
     14495 FORA     375      FORA     DO1      DRUD     -2.05180      0.400000           0   0.00000       0.00000    
     14496 FORA     375      FORA     HO1      DUMH      0.00000       1.00800           0   0.00000       0.00000    
     14497 FORA     375      FORA     LPO21    LPDO1   -0.380000       0.00000          -1   0.00000       0.00000    
     14498 FORA     375      FORA     LPO22    LPDO1   -0.380000       0.00000          -1   0.00000       0.00000    
     14499 FORA     375      FORA     LPO11    LPDO1   -0.380000       0.00000          -1   0.00000       0.00000    
     14500 FORA     375      FORA     LPO12    LPDO1   -0.380000       0.00000          -1   0.00000       0.00000    
     14501 FORA     376      FORA     C        CD2O2A    2.99370       11.6110           0  -1.01600      0.899000    
     14502 FORA     376      FORA     DC       DRUD     -2.47370      0.400000           0   0.00000       0.00000    
     14503 FORA     376      FORA     H        HDP1C     0.00000       1.00800           0   0.00000       0.00000    
     14504 FORA     376      FORA     O2       OD2C2A    2.05180       15.5994           0 -0.699000       2.39900    
     14505 FORA     376      FORA     DO2      DRUD     -2.05180      0.400000           0   0.00000       0.00000    
     14506 FORA     376      FORA     O1       OD2C2A    2.05180       15.5994           0 -0.699000       2.39900    
     14507 FORA     376      FORA     DO1      DRUD     -2.05180      0.400000           0   0.00000       0.00000    
     14508 FORA     376      FORA     HO1      DUMH      0.00000       1.00800           0   0.00000       0.00000    
     14509 FORA     376      FORA     LPO21    LPDO1   -0.380000       0.00000          -1   0.00000       0.00000    
     14510 FORA     376      FORA     LPO22    LPDO1   -0.380000       0.00000          -1   0.00000       0.00000    
     14511 FORA     376      FORA     LPO11    LPDO1   -0.380000       0.00000          -1   0.00000       0.00000    
     14512 FORA     376      FORA     LPO12    LPDO1   -0.380000       0.00000          -1   0.00000       0.00000    
     14513 FORA     377      FORA     C        CD2O2A    2.99370       11.6110           0  -1.01600      0.899000    
     14514 FORA     377      FORA     DC       DRUD     -2.47370      0.400000           0   0.00000       0.00000    
     14515 FORA     377      FORA     H        HDP1C     0.00000       1.00800           0   0.00000       0.00000    
     14516 FORA     377      FORA     O2       OD2C2A    2.05180       15.5994           0 -0.699000       2.39900    
     14517 FORA     377      FORA     DO2      DRUD     -2.05180      0.400000           0   0.00000       0.00000    
     14518 FORA     377      FORA     O1       OD2C2A    2.05180       15.5994           0 -0.699000       2.39900    
     14519 FORA     377      FORA     DO1      DRUD     -2.05180      0.400000           0   0.00000       0.00000    
     14520 FORA     377      FORA     HO1      DUMH      0.00000       1.00800           0   0.00000       0.00000    
     14521 FORA     377      FORA     LPO21    LPDO1   -0.380000       0.00000          -1   0.00000       0.00000    
     14522 FORA     377      FORA     LPO22    LPDO1   -0.380000       0.00000          -1   0.00000       0.00000    
     14523 FORA     377      FORA     LPO11    LPDO1   -0.380000       0.00000          -1   0.00000       0.00000    
     14524 FORA     377      FORA     LPO12    LPDO1   -0.380000       0.00000          -1   0.00000       0.00000    
     14525 FORA     378      FORA     C        CD2O2A    2.99370       11.6110           0  -1.01600      0.899000    
     14526 FORA     378      FORA     DC       DRUD     -2.47370      0.400000           0   0.00000       0.00000    
     14527 FORA     378      FORA     H        HDP1C     0.00000       1.00800           0   0.00000       0.00000    
     14528 FORA     378      FORA     O2       OD2C2A    2.05180       15.5994           0 -0.699000       2.39900    
     14529 FORA     378      FORA     DO2      DRUD     -2.05180      0.400000           0   0.00000       0.00000    
     14530 FORA     378      FORA     O1       OD2C2A    2.05180       15.5994           0 -0.699000       2.39900    
     14531 FORA     378      FORA     DO1      DRUD     -2.05180      0.400000           0   0.00000       0.00000    
     14532 FORA     378      FORA     HO1      DUMH      0.00000       1.00800           0   0.00000       0.00000    
     14533 FORA     378      FORA     LPO21    LPDO1   -0.380000       0.00000          -1   0.00000       0.00000    
     14534 FORA     378      FORA     LPO22    LPDO1   -0.380000       0.00000          -1   0.00000       0.00000    
     14535 FORA     378      FORA     LPO11    LPDO1   -0.380000       0.00000          -1   0.00000       0.00000    
     14536 FORA     378      FORA     LPO12    LPDO1   -0.380000       0.00000          -1   0.00000       0.00000    
     14537 FORA     379      FORA     C        CD2O2A    2.99370       11.6110           0  -1.01600      0.899000    
     14538 FORA     379      FORA     DC       DRUD     -2.47370      0.400000           0   0.00000       0.00000    
     14539 FORA     379      FORA     H        HDP1C     0.00000       1.00800           0   0.00000       0.00000    
     14540 FORA     379      FORA     O2       OD2C2A    2.05180       15.5994           0 -0.699000       2.39900    
     14541 FORA     379      FORA     DO2      DRUD     -2.05180      0.400000           0   0.00000       0.00000    
     14542 FORA     379      FORA     O1       OD2C2A    2.05180       15.5994           0 -0.699000       2.39900    
     14543 FORA     379      FORA     DO1      DRUD     -2.05180      0.400000           0   0.00000       0.00000    
     14544 FORA     379      FORA     HO1      DUMH      0.00000       1.00800           0   0.00000       0.00000    
     14545 FORA     379      FORA     LPO21    LPDO1   -0.380000       0.00000          -1   0.00000       0.00000    
     14546 FORA     379      FORA     LPO22    LPDO1   -0.380000       0.00000          -1   0.00000       0.00000    
     14547 FORA     379      FORA     LPO11    LPDO1   -0.380000       0.00000          -1   0.00000       0.00000    
     14548 FORA     379      FORA     LPO12    LPDO1   -0.380000       0.00000          -1   0.00000       0.00000    
     14549 FORA     380      FORA     C        CD2O2A    2.99370       11.6110           0  -1.01600      0.899000    
     14550 FORA     380      FORA     DC       DRUD     -2.47370      0.400000           0   0.00000       0.00000    
     14551 FORA     380      FORA     H        HDP1C     0.00000       1.00800           0   0.00000       0.00000    
     14552 FORA     380      FORA     O2       OD2C2A    2.05180       15.5994           0 -0.699000       2.39900    
     14553 FORA     380      FORA     DO2      DRUD     -2.05180      0.400000           0   0.00000       0.00000    
     14554 FORA     380      FORA     O1       OD2C2A    2.05180       15.5994           0 -0.699000       2.39900    
     14555 FORA     380      FORA     DO1      DRUD     -2.05180      0.400000           0   0.00000       0.00000    
     14556 FORA     380      FORA     HO1      DUMH      0.00000       1.00800           0   0.00000       0.00000    
     14557 FORA     380      FORA     LPO21    LPDO1   -0.380000       0.00000          -1   0.00000       0.00000    
     14558 FORA     380      FORA     LPO22    LPDO1   -0.380000       0.00000          -1   0.00000       0.00000    
     14559 FORA     380      FORA     LPO11    LPDO1   -0.380000       0.00000          -1   0.00000       0.00000    
     14560 FORA     380      FORA     LPO12    LPDO1   -0.380000       0.00000          -1   0.00000       0.00000    
     14561 FORA     381      FORA     C        CD2O2A    2.99370       11.6110           0  -1.01600      0.899000    
     14562 FORA     381      FORA     DC       DRUD     -2.47370      0.400000           0   0.00000       0.00000    
     14563 FORA     381      FORA     H        HDP1C     0.00000       1.00800           0   0.00000       0.00000    
     14564 FORA     381      FORA     O2       OD2C2A    2.05180       15.5994           0 -0.699000       2.39900    
     14565 FORA     381      FORA     DO2      DRUD     -2.05180      0.400000           0   0.00000       0.00000    
     14566 FORA     381      FORA     O1       OD2C2A    2.05180       15.5994           0 -0.699000       2.39900    
     14567 FORA     381      FORA     DO1      DRUD     -2.05180      0.400000           0   0.00000       0.00000    
     14568 FORA     381      FORA     HO1      DUMH      0.00000       1.00800           0   0.00000       0.00000    
     14569 FORA     381      FORA     LPO21    LPDO1   -0.380000       0.00000          -1   0.00000       0.00000    
     14570 FORA     381      FORA     LPO22    LPDO1   -0.380000       0.00000          -1   0.00000       0.00000    
     14571 FORA     381      FORA     LPO11    LPDO1   -0.380000       0.00000          -1   0.00000       0.00000    
     14572 FORA     381      FORA     LPO12    LPDO1   -0.380000       0.00000          -1   0.00000       0.00000    
     14573 FORA     382      FORA     C        CD2O2A    2.99370       11.6110           0  -1.01600      0.899000    
     14574 FORA     382      FORA     DC       DRUD     -2.47370      0.400000           0   0.00000       0.00000    
     14575 FORA     382      FORA     H        HDP1C     0.00000       1.00800           0   0.00000       0.00000    
     14576 FORA     382      FORA     O2       OD2C2A    2.05180       15.5994           0 -0.699000       2.39900    
     14577 FORA     382      FORA     DO2      DRUD     -2.05180      0.400000           0   0.00000       0.00000    
     14578 FORA     382      FORA     O1       OD2C2A    2.05180       15.5994           0 -0.699000       2.39900    
     14579 FORA     382      FORA     DO1      DRUD     -2.05180      0.400000           0   0.00000       0.00000    
     14580 FORA     382      FORA     HO1      DUMH      0.00000       1.00800           0   0.00000       0.00000    
     14581 FORA     382      FORA     LPO21    LPDO1   -0.380000       0.00000          -1   0.00000       0.00000    
     14582 FORA     382      FORA     LPO22    LPDO1   -0.380000       0.00000          -1   0.00000       0.00000    
     14583 FORA     382      FORA     LPO11    LPDO1   -0.380000       0.00000          -1   0.00000       0.00000    
     14584 FORA     382      FORA     LPO12    LPDO1   -0.380000       0.00000          -1   0.00000       0.00000    
     14585 FORA     383      FORA     C        CD2O2A    2.99370       11.6110           0  -1.01600      0.899000    
     14586 FORA     383      FORA     DC       DRUD     -2.47370      0.400000           0   0.00000       0.00000    
     14587 FORA     383      FORA     H        HDP1C     0.00000       1.00800           0   0.00000       0.00000    
     14588 FORA     383      FORA     O2       OD2C2A    2.05180       15.5994           0 -0.699000       2.39900    
     14589 FORA     383      FORA     DO2      DRUD     -2.05180      0.400000           0   0.00000       0.00000    
     14590 FORA     383      FORA     O1       OD2C2A    2.05180       15.5994           0 -0.699000       2.39900    
     14591 FORA     383      FORA     DO1      DRUD     -2.05180      0.400000           0   0.00000       0.00000    
     14592 FORA     383      FORA     HO1      DUMH      0.00000       1.00800           0   0.00000       0.00000    
     14593 FORA     383      FORA     LPO21    LPDO1   -0.380000       0.00000          -1   0.00000       0.00000    
     14594 FORA     383      FORA     LPO22    LPDO1   -0.380000       0.00000          -1   0.00000       0.00000    
     14595 FORA     383      FORA     LPO11    LPDO1   -0.380000       0.00000          -1   0.00000       0.00000    
     14596 FORA     383      FORA     LPO12    LPDO1   -0.380000       0.00000          -1   0.00000       0.00000    
     14597 FORA     384      FORA     C        CD2O2A    2.99370       11.6110           0  -1.01600      0.899000    
     14598 FORA     384      FORA     DC       DRUD     -2.47370      0.400000           0   0.00000       0.00000    
     14599 FORA     384      FORA     H        HDP1C     0.00000       1.00800           0   0.00000       0.00000    
     14600 FORA     384      FORA     O2       OD2C2A    2.05180       15.5994           0 -0.699000       2.39900    
     14601 FORA     384      FORA     DO2      DRUD     -2.05180      0.400000           0   0.00000       0.00000    
     14602 FORA     384      FORA     O1       OD2C2A    2.05180       15.5994           0 -0.699000       2.39900    
     14603 FORA     384      FORA     DO1      DRUD     -2.05180      0.400000           0   0.00000       0.00000    
     14604 FORA     384      FORA     HO1      DUMH      0.00000       1.00800           0   0.00000       0.00000    
     14605 FORA     384      FORA     LPO21    LPDO1   -0.380000       0.00000          -1   0.00000       0.00000    
     14606 FORA     384      FORA     LPO22    LPDO1   -0.380000       0.00000          -1   0.00000       0.00000    
     14607 FORA     384      FORA     LPO11    LPDO1   -0.380000       0.00000          -1   0.00000       0.00000    
     14608 FORA     384      FORA     LPO12    LPDO1   -0.380000       0.00000          -1   0.00000       0.00000    
     14609 FORA     385      FORA     C        CD2O2A    2.99370       11.6110           0  -1.01600      0.899000    
     14610 FORA     385      FORA     DC       DRUD     -2.47370      0.400000           0   0.00000       0.00000    
     14611 FORA     385      FORA     H        HDP1C     0.00000       1.00800           0   0.00000       0.00000    
     14612 FORA     385      FORA     O2       OD2C2A    2.05180       15.5994           0 -0.699000       2.39900    
     14613 FORA     385      FORA     DO2      DRUD     -2.05180      0.400000           0   0.00000       0.00000    
     14614 FORA     385      FORA     O1       OD2C2A    2.05180       15.5994           0 -0.699000       2.39900    
     14615 FORA     385      FORA     DO1      DRUD     -2.05180      0.400000           0   0.00000       0.00000    
     14616 FORA     385      FORA     HO1      DUMH      0.00000       1.00800           0   0.00000       0.00000    
     14617 FORA     385      FORA     LPO21    LPDO1   -0.380000       0.00000          -1   0.00000       0.00000    
     14618 FORA     385      FORA     LPO22    LPDO1   -0.380000       0.00000          -1   0.00000       0.00000    
     14619 FORA     385      FORA     LPO11    LPDO1   -0.380000       0.00000          -1   0.00000       0.00000    
     14620 FORA     385      FORA     LPO12    LPDO1   -0.380000       0.00000          -1   0.00000       0.00000    
     14621 FORA     386      FORA     C        CD2O2A    2.99370       11.6110           0  -1.01600      0.899000    
     14622 FORA     386      FORA     DC       DRUD     -2.47370      0.400000           0   0.00000       0.00000    
     14623 FORA     386      FORA     H        HDP1C     0.00000       1.00800           0   0.00000       0.00000    
     14624 FORA     386      FORA     O2       OD2C2A    2.05180       15.5994           0 -0.699000       2.39900    
     14625 FORA     386      FORA     DO2      DRUD     -2.05180      0.400000           0   0.00000       0.00000    
     14626 FORA     386      FORA     O1       OD2C2A    2.05180       15.5994           0 -0.699000       2.39900    
     14627 FORA     386      FORA     DO1      DRUD     -2.05180      0.400000           0   0.00000       0.00000    
     14628 FORA     386      FORA     HO1      DUMH      0.00000       1.00800           0   0.00000       0.00000    
     14629 FORA     386      FORA     LPO21    LPDO1   -0.380000       0.00000          -1   0.00000       0.00000    
     14630 FORA     386      FORA     LPO22    LPDO1   -0.380000       0.00000          -1   0.00000       0.00000    
     14631 FORA     386      FORA     LPO11    LPDO1   -0.380000       0.00000          -1   0.00000       0.00000    
     14632 FORA     386      FORA     LPO12    LPDO1   -0.380000       0.00000          -1   0.00000       0.00000    
     14633 FORA     387      FORA     C        CD2O2A    2.99370       11.6110           0  -1.01600      0.899000    
     14634 FORA     387      FORA     DC       DRUD     -2.47370      0.400000           0   0.00000       0.00000    
     14635 FORA     387      FORA     H        HDP1C     0.00000       1.00800           0   0.00000       0.00000    
     14636 FORA     387      FORA     O2       OD2C2A    2.05180       15.5994           0 -0.699000       2.39900    
     14637 FORA     387      FORA     DO2      DRUD     -2.05180      0.400000           0   0.00000       0.00000    
     14638 FORA     387      FORA     O1       OD2C2A    2.05180       15.5994           0 -0.699000       2.39900    
     14639 FORA     387      FORA     DO1      DRUD     -2.05180      0.400000           0   0.00000       0.00000    
     14640 FORA     387      FORA     HO1      DUMH      0.00000       1.00800           0   0.00000       0.00000    
     14641 FORA     387      FORA     LPO21    LPDO1   -0.380000       0.00000          -1   0.00000       0.00000    
     14642 FORA     387      FORA     LPO22    LPDO1   -0.380000       0.00000          -1   0.00000       0.00000    
     14643 FORA     387      FORA     LPO11    LPDO1   -0.380000       0.00000          -1   0.00000       0.00000    
     14644 FORA     387      FORA     LPO12    LPDO1   -0.380000       0.00000          -1   0.00000       0.00000    
     14645 FORA     388      FORA     C        CD2O2A    2.99370       11.6110           0  -1.01600      0.899000    
     14646 FORA     388      FORA     DC       DRUD     -2.47370      0.400000           0   0.00000       0.00000    
     14647 FORA     388      FORA     H        HDP1C     0.00000       1.00800           0   0.00000       0.00000    
     14648 FORA     388      FORA     O2       OD2C2A    2.05180       15.5994           0 -0.699000       2.39900    
     14649 FORA     388      FORA     DO2      DRUD     -2.05180      0.400000           0   0.00000       0.00000    
     14650 FORA     388      FORA     O1       OD2C2A    2.05180       15.5994           0 -0.699000       2.39900    
     14651 FORA     388      FORA     DO1      DRUD     -2.05180      0.400000           0   0.00000       0.00000    
     14652 FORA     388      FORA     HO1      DUMH      0.00000       1.00800           0   0.00000       0.00000    
     14653 FORA     388      FORA     LPO21    LPDO1   -0.380000       0.00000          -1   0.00000       0.00000    
     14654 FORA     388      FORA     LPO22    LPDO1   -0.380000       0.00000          -1   0.00000       0.00000    
     14655 FORA     388      FORA     LPO11    LPDO1   -0.380000       0.00000          -1   0.00000       0.00000    
     14656 FORA     388      FORA     LPO12    LPDO1   -0.380000       0.00000          -1   0.00000       0.00000    
     14657 FORA     389      FORA     C        CD2O2A    2.99370       11.6110           0  -1.01600      0.899000    
     14658 FORA     389      FORA     DC       DRUD     -2.47370      0.400000           0   0.00000       0.00000    
     14659 FORA     389      FORA     H        HDP1C     0.00000       1.00800           0   0.00000       0.00000    
     14660 FORA     389      FORA     O2       OD2C2A    2.05180       15.5994           0 -0.699000       2.39900    
     14661 FORA     389      FORA     DO2      DRUD     -2.05180      0.400000           0   0.00000       0.00000    
     14662 FORA     389      FORA     O1       OD2C2A    2.05180       15.5994           0 -0.699000       2.39900    
     14663 FORA     389      FORA     DO1      DRUD     -2.05180      0.400000           0   0.00000       0.00000    
     14664 FORA     389      FORA     HO1      DUMH      0.00000       1.00800           0   0.00000       0.00000    
     14665 FORA     389      FORA     LPO21    LPDO1   -0.380000       0.00000          -1   0.00000       0.00000    
     14666 FORA     389      FORA     LPO22    LPDO1   -0.380000       0.00000          -1   0.00000       0.00000    
     14667 FORA     389      FORA     LPO11    LPDO1   -0.380000       0.00000          -1   0.00000       0.00000    
     14668 FORA     389      FORA     LPO12    LPDO1   -0.380000       0.00000          -1   0.00000       0.00000    
     14669 FORA     390      FORA     C        CD2O2A    2.99370       11.6110           0  -1.01600      0.899000    
     14670 FORA     390      FORA     DC       DRUD     -2.47370      0.400000           0   0.00000       0.00000    
     14671 FORA     390      FORA     H        HDP1C     0.00000       1.00800           0   0.00000       0.00000    
     14672 FORA     390      FORA     O2       OD2C2A    2.05180       15.5994           0 -0.699000       2.39900    
     14673 FORA     390      FORA     DO2      DRUD     -2.05180      0.400000           0   0.00000       0.00000    
     14674 FORA     390      FORA     O1       OD2C2A    2.05180       15.5994           0 -0.699000       2.39900    
     14675 FORA     390      FORA     DO1      DRUD     -2.05180      0.400000           0   0.00000       0.00000    
     14676 FORA     390      FORA     HO1      DUMH      0.00000       1.00800           0   0.00000       0.00000    
     14677 FORA     390      FORA     LPO21    LPDO1   -0.380000       0.00000          -1   0.00000       0.00000    
     14678 FORA     390      FORA     LPO22    LPDO1   -0.380000       0.00000          -1   0.00000       0.00000    
     14679 FORA     390      FORA     LPO11    LPDO1   -0.380000       0.00000          -1   0.00000       0.00000    
     14680 FORA     390      FORA     LPO12    LPDO1   -0.380000       0.00000          -1   0.00000       0.00000    
     14681 FORA     391      FORA     C        CD2O2A    2.99370       11.6110           0  -1.01600      0.899000    
     14682 FORA     391      FORA     DC       DRUD     -2.47370      0.400000           0   0.00000       0.00000    
     14683 FORA     391      FORA     H        HDP1C     0.00000       1.00800           0   0.00000       0.00000    
     14684 FORA     391      FORA     O2       OD2C2A    2.05180       15.5994           0 -0.699000       2.39900    
     14685 FORA     391      FORA     DO2      DRUD     -2.05180      0.400000           0   0.00000       0.00000    
     14686 FORA     391      FORA     O1       OD2C2A    2.05180       15.5994           0 -0.699000       2.39900    
     14687 FORA     391      FORA     DO1      DRUD     -2.05180      0.400000           0   0.00000       0.00000    
     14688 FORA     391      FORA     HO1      DUMH      0.00000       1.00800           0   0.00000       0.00000    
     14689 FORA     391      FORA     LPO21    LPDO1   -0.380000       0.00000          -1   0.00000       0.00000    
     14690 FORA     391      FORA     LPO22    LPDO1   -0.380000       0.00000          -1   0.00000       0.00000    
     14691 FORA     391      FORA     LPO11    LPDO1   -0.380000       0.00000          -1   0.00000       0.00000    
     14692 FORA     391      FORA     LPO12    LPDO1   -0.380000       0.00000          -1   0.00000       0.00000    
     14693 FORA     392      FORA     C        CD2O2A    2.99370       11.6110           0  -1.01600      0.899000    
     14694 FORA     392      FORA     DC       DRUD     -2.47370      0.400000           0   0.00000       0.00000    
     14695 FORA     392      FORA     H        HDP1C     0.00000       1.00800           0   0.00000       0.00000    
     14696 FORA     392      FORA     O2       OD2C2A    2.05180       15.5994           0 -0.699000       2.39900    
     14697 FORA     392      FORA     DO2      DRUD     -2.05180      0.400000           0   0.00000       0.00000    
     14698 FORA     392      FORA     O1       OD2C2A    2.05180       15.5994           0 -0.699000       2.39900    
     14699 FORA     392      FORA     DO1      DRUD     -2.05180      0.400000           0   0.00000       0.00000    
     14700 FORA     392      FORA     HO1      DUMH      0.00000       1.00800           0   0.00000       0.00000    
     14701 FORA     392      FORA     LPO21    LPDO1   -0.380000       0.00000          -1   0.00000       0.00000    
     14702 FORA     392      FORA     LPO22    LPDO1   -0.380000       0.00000          -1   0.00000       0.00000    
     14703 FORA     392      FORA     LPO11    LPDO1   -0.380000       0.00000          -1   0.00000       0.00000    
     14704 FORA     392      FORA     LPO12    LPDO1   -0.380000       0.00000          -1   0.00000       0.00000    
     14705 FORA     393      FORA     C        CD2O2A    2.99370       11.6110           0  -1.01600      0.899000    
     14706 FORA     393      FORA     DC       DRUD     -2.47370      0.400000           0   0.00000       0.00000    
     14707 FORA     393      FORA     H        HDP1C     0.00000       1.00800           0   0.00000       0.00000    
     14708 FORA     393      FORA     O2       OD2C2A    2.05180       15.5994           0 -0.699000       2.39900    
     14709 FORA     393      FORA     DO2      DRUD     -2.05180      0.400000           0   0.00000       0.00000    
     14710 FORA     393      FORA     O1       OD2C2A    2.05180       15.5994           0 -0.699000       2.39900    
     14711 FORA     393      FORA     DO1      DRUD     -2.05180      0.400000           0   0.00000       0.00000    
     14712 FORA     393      FORA     HO1      DUMH      0.00000       1.00800           0   0.00000       0.00000    
     14713 FORA     393      FORA     LPO21    LPDO1   -0.380000       0.00000          -1   0.00000       0.00000    
     14714 FORA     393      FORA     LPO22    LPDO1   -0.380000       0.00000          -1   0.00000       0.00000    
     14715 FORA     393      FORA     LPO11    LPDO1   -0.380000       0.00000          -1   0.00000       0.00000    
     14716 FORA     393      FORA     LPO12    LPDO1   -0.380000       0.00000          -1   0.00000       0.00000    
     14717 FORA     394      FORA     C        CD2O2A    2.99370       11.6110           0  -1.01600      0.899000    
     14718 FORA     394      FORA     DC       DRUD     -2.47370      0.400000           0   0.00000       0.00000    
     14719 FORA     394      FORA     H        HDP1C     0.00000       1.00800           0   0.00000       0.00000    
     14720 FORA     394      FORA     O2       OD2C2A    2.05180       15.5994           0 -0.699000       2.39900    
     14721 FORA     394      FORA     DO2      DRUD     -2.05180      0.400000           0   0.00000       0.00000    
     14722 FORA     394      FORA     O1       OD2C2A    2.05180       15.5994           0 -0.699000       2.39900    
     14723 FORA     394      FORA     DO1      DRUD     -2.05180      0.400000           0   0.00000       0.00000    
     14724 FORA     394      FORA     HO1      DUMH      0.00000       1.00800           0   0.00000       0.00000    
     14725 FORA     394      FORA     LPO21    LPDO1   -0.380000       0.00000          -1   0.00000       0.00000    
     14726 FORA     394      FORA     LPO22    LPDO1   -0.380000       0.00000          -1   0.00000       0.00000    
     14727 FORA     394      FORA     LPO11    LPDO1   -0.380000       0.00000          -1   0.00000       0.00000    
     14728 FORA     394      FORA     LPO12    LPDO1   -0.380000       0.00000          -1   0.00000       0.00000    
     14729 FORA     395      FORA     C        CD2O2A    2.99370       11.6110           0  -1.01600      0.899000    
     14730 FORA     395      FORA     DC       DRUD     -2.47370      0.400000           0   0.00000       0.00000    
     14731 FORA     395      FORA     H        HDP1C     0.00000       1.00800           0   0.00000       0.00000    
     14732 FORA     395      FORA     O2       OD2C2A    2.05180       15.5994           0 -0.699000       2.39900    
     14733 FORA     395      FORA     DO2      DRUD     -2.05180      0.400000           0   0.00000       0.00000    
     14734 FORA     395      FORA     O1       OD2C2A    2.05180       15.5994           0 -0.699000       2.39900    
     14735 FORA     395      FORA     DO1      DRUD     -2.05180      0.400000           0   0.00000       0.00000    
     14736 FORA     395      FORA     HO1      DUMH      0.00000       1.00800           0   0.00000       0.00000    
     14737 FORA     395      FORA     LPO21    LPDO1   -0.380000       0.00000          -1   0.00000       0.00000    
     14738 FORA     395      FORA     LPO22    LPDO1   -0.380000       0.00000          -1   0.00000       0.00000    
     14739 FORA     395      FORA     LPO11    LPDO1   -0.380000       0.00000          -1   0.00000       0.00000    
     14740 FORA     395      FORA     LPO12    LPDO1   -0.380000       0.00000          -1   0.00000       0.00000    
     14741 FORA     396      FORA     C        CD2O2A    2.99370       11.6110           0  -1.01600      0.899000    
     14742 FORA     396      FORA     DC       DRUD     -2.47370      0.400000           0   0.00000       0.00000    
     14743 FORA     396      FORA     H        HDP1C     0.00000       1.00800           0   0.00000       0.00000    
     14744 FORA     396      FORA     O2       OD2C2A    2.05180       15.5994           0 -0.699000       2.39900    
     14745 FORA     396      FORA     DO2      DRUD     -2.05180      0.400000           0   0.00000       0.00000    
     14746 FORA     396      FORA     O1       OD2C2A    2.05180       15.5994           0 -0.699000       2.39900    
     14747 FORA     396      FORA     DO1      DRUD     -2.05180      0.400000           0   0.00000       0.00000    
     14748 FORA     396      FORA     HO1      DUMH      0.00000       1.00800           0   0.00000       0.00000    
     14749 FORA     396      FORA     LPO21    LPDO1   -0.380000       0.00000          -1   0.00000       0.00000    
     14750 FORA     396      FORA     LPO22    LPDO1   -0.380000       0.00000          -1   0.00000       0.00000    
     14751 FORA     396      FORA     LPO11    LPDO1   -0.380000       0.00000          -1   0.00000       0.00000    
     14752 FORA     396      FORA     LPO12    LPDO1   -0.380000       0.00000          -1   0.00000       0.00000    
     14753 FORA     397      FORA     C        CD2O2A    2.99370       11.6110           0  -1.01600      0.899000    
     14754 FORA     397      FORA     DC       DRUD     -2.47370      0.400000           0   0.00000       0.00000    
     14755 FORA     397      FORA     H        HDP1C     0.00000       1.00800           0   0.00000       0.00000    
     14756 FORA     397      FORA     O2       OD2C2A    2.05180       15.5994           0 -0.699000       2.39900    
     14757 FORA     397      FORA     DO2      DRUD     -2.05180      0.400000           0   0.00000       0.00000    
     14758 FORA     397      FORA     O1       OD2C2A    2.05180       15.5994           0 -0.699000       2.39900    
     14759 FORA     397      FORA     DO1      DRUD     -2.05180      0.400000           0   0.00000       0.00000    
     14760 FORA     397      FORA     HO1      DUMH      0.00000       1.00800           0   0.00000       0.00000    
     14761 FORA     397      FORA     LPO21    LPDO1   -0.380000       0.00000          -1   0.00000       0.00000    
     14762 FORA     397      FORA     LPO22    LPDO1   -0.380000       0.00000          -1   0.00000       0.00000    
     14763 FORA     397      FORA     LPO11    LPDO1   -0.380000       0.00000          -1   0.00000       0.00000    
     14764 FORA     397      FORA     LPO12    LPDO1   -0.380000       0.00000          -1   0.00000       0.00000    
     14765 FORA     398      FORA     C        CD2O2A    2.99370       11.6110           0  -1.01600      0.899000    
     14766 FORA     398      FORA     DC       DRUD     -2.47370      0.400000           0   0.00000       0.00000    
     14767 FORA     398      FORA     H        HDP1C     0.00000       1.00800           0   0.00000       0.00000    
     14768 FORA     398      FORA     O2       OD2C2A    2.05180       15.5994           0 -0.699000       2.39900    
     14769 FORA     398      FORA     DO2      DRUD     -2.05180      0.400000           0   0.00000       0.00000    
     14770 FORA     398      FORA     O1       OD2C2A    2.05180       15.5994           0 -0.699000       2.39900    
     14771 FORA     398      FORA     DO1      DRUD     -2.05180      0.400000           0   0.00000       0.00000    
     14772 FORA     398      FORA     HO1      DUMH      0.00000       1.00800           0   0.00000       0.00000    
     14773 FORA     398      FORA     LPO21    LPDO1   -0.380000       0.00000          -1   0.00000       0.00000    
     14774 FORA     398      FORA     LPO22    LPDO1   -0.380000       0.00000          -1   0.00000       0.00000    
     14775 FORA     398      FORA     LPO11    LPDO1   -0.380000       0.00000          -1   0.00000       0.00000    
     14776 FORA     398      FORA     LPO12    LPDO1   -0.380000       0.00000          -1   0.00000       0.00000    
     14777 FORA     399      FORA     C        CD2O2A    2.99370       11.6110           0  -1.01600      0.899000    
     14778 FORA     399      FORA     DC       DRUD     -2.47370      0.400000           0   0.00000       0.00000    
     14779 FORA     399      FORA     H        HDP1C     0.00000       1.00800           0   0.00000       0.00000    
     14780 FORA     399      FORA     O2       OD2C2A    2.05180       15.5994           0 -0.699000       2.39900    
     14781 FORA     399      FORA     DO2      DRUD     -2.05180      0.400000           0   0.00000       0.00000    
     14782 FORA     399      FORA     O1       OD2C2A    2.05180       15.5994           0 -0.699000       2.39900    
     14783 FORA     399      FORA     DO1      DRUD     -2.05180      0.400000           0   0.00000       0.00000    
     14784 FORA     399      FORA     HO1      DUMH      0.00000       1.00800           0   0.00000       0.00000    
     14785 FORA     399      FORA     LPO21    LPDO1   -0.380000       0.00000          -1   0.00000       0.00000    
     14786 FORA     399      FORA     LPO22    LPDO1   -0.380000       0.00000          -1   0.00000       0.00000    
     14787 FORA     399      FORA     LPO11    LPDO1   -0.380000       0.00000          -1   0.00000       0.00000    
     14788 FORA     399      FORA     LPO12    LPDO1   -0.380000       0.00000          -1   0.00000       0.00000    
     14789 FORA     400      FORA     C        CD2O2A    2.99370       11.6110           0  -1.01600      0.899000    
     14790 FORA     400      FORA     DC       DRUD     -2.47370      0.400000           0   0.00000       0.00000    
     14791 FORA     400      FORA     H        HDP1C     0.00000       1.00800           0   0.00000       0.00000    
     14792 FORA     400      FORA     O2       OD2C2A    2.05180       15.5994           0 -0.699000       2.39900    
     14793 FORA     400      FORA     DO2      DRUD     -2.05180      0.400000           0   0.00000       0.00000    
     14794 FORA     400      FORA     O1       OD2C2A    2.05180       15.5994           0 -0.699000       2.39900    
     14795 FORA     400      FORA     DO1      DRUD     -2.05180      0.400000           0   0.00000       0.00000    
     14796 FORA     400      FORA     HO1      DUMH      0.00000       1.00800           0   0.00000       0.00000    
     14797 FORA     400      FORA     LPO21    LPDO1   -0.380000       0.00000          -1   0.00000       0.00000    
     14798 FORA     400      FORA     LPO22    LPDO1   -0.380000       0.00000          -1   0.00000       0.00000    
     14799 FORA     400      FORA     LPO11    LPDO1   -0.380000       0.00000          -1   0.00000       0.00000    
     14800 FORA     400      FORA     LPO12    LPDO1   -0.380000       0.00000          -1   0.00000       0.00000    
     14801 FORA     401      FORA     C        CD2O2A    2.99370       11.6110           0  -1.01600      0.899000    
     14802 FORA     401      FORA     DC       DRUD     -2.47370      0.400000           0   0.00000       0.00000    
     14803 FORA     401      FORA     H        HDP1C     0.00000       1.00800           0   0.00000       0.00000    
     14804 FORA     401      FORA     O2       OD2C2A    2.05180       15.5994           0 -0.699000       2.39900    
     14805 FORA     401      FORA     DO2      DRUD     -2.05180      0.400000           0   0.00000       0.00000    
     14806 FORA     401      FORA     O1       OD2C2A    2.05180       15.5994           0 -0.699000       2.39900    
     14807 FORA     401      FORA     DO1      DRUD     -2.05180      0.400000           0   0.00000       0.00000    
     14808 FORA     401      FORA     HO1      DUMH      0.00000       1.00800           0   0.00000       0.00000    
     14809 FORA     401      FORA     LPO21    LPDO1   -0.380000       0.00000          -1   0.00000       0.00000    
     14810 FORA     401      FORA     LPO22    LPDO1   -0.380000       0.00000          -1   0.00000       0.00000    
     14811 FORA     401      FORA     LPO11    LPDO1   -0.380000       0.00000          -1   0.00000       0.00000    
     14812 FORA     401      FORA     LPO12    LPDO1   -0.380000       0.00000          -1   0.00000       0.00000    
     14813 FORA     402      FORA     C        CD2O2A    2.99370       11.6110           0  -1.01600      0.899000    
     14814 FORA     402      FORA     DC       DRUD     -2.47370      0.400000           0   0.00000       0.00000    
     14815 FORA     402      FORA     H        HDP1C     0.00000       1.00800           0   0.00000       0.00000    
     14816 FORA     402      FORA     O2       OD2C2A    2.05180       15.5994           0 -0.699000       2.39900    
     14817 FORA     402      FORA     DO2      DRUD     -2.05180      0.400000           0   0.00000       0.00000    
     14818 FORA     402      FORA     O1       OD2C2A    2.05180       15.5994           0 -0.699000       2.39900    
     14819 FORA     402      FORA     DO1      DRUD     -2.05180      0.400000           0   0.00000       0.00000    
     14820 FORA     402      FORA     HO1      DUMH      0.00000       1.00800           0   0.00000       0.00000    
     14821 FORA     402      FORA     LPO21    LPDO1   -0.380000       0.00000          -1   0.00000       0.00000    
     14822 FORA     402      FORA     LPO22    LPDO1   -0.380000       0.00000          -1   0.00000       0.00000    
     14823 FORA     402      FORA     LPO11    LPDO1   -0.380000       0.00000          -1   0.00000       0.00000    
     14824 FORA     402      FORA     LPO12    LPDO1   -0.380000       0.00000          -1   0.00000       0.00000    
     14825 FORA     403      FORA     C        CD2O2A    2.99370       11.6110           0  -1.01600      0.899000    
     14826 FORA     403      FORA     DC       DRUD     -2.47370      0.400000           0   0.00000       0.00000    
     14827 FORA     403      FORA     H        HDP1C     0.00000       1.00800           0   0.00000       0.00000    
     14828 FORA     403      FORA     O2       OD2C2A    2.05180       15.5994           0 -0.699000       2.39900    
     14829 FORA     403      FORA     DO2      DRUD     -2.05180      0.400000           0   0.00000       0.00000    
     14830 FORA     403      FORA     O1       OD2C2A    2.05180       15.5994           0 -0.699000       2.39900    
     14831 FORA     403      FORA     DO1      DRUD     -2.05180      0.400000           0   0.00000       0.00000    
     14832 FORA     403      FORA     HO1      DUMH      0.00000       1.00800           0   0.00000       0.00000    
     14833 FORA     403      FORA     LPO21    LPDO1   -0.380000       0.00000          -1   0.00000       0.00000    
     14834 FORA     403      FORA     LPO22    LPDO1   -0.380000       0.00000          -1   0.00000       0.00000    
     14835 FORA     403      FORA     LPO11    LPDO1   -0.380000       0.00000          -1   0.00000       0.00000    
     14836 FORA     403      FORA     LPO12    LPDO1   -0.380000       0.00000          -1   0.00000       0.00000    
     14837 FORA     404      FORA     C        CD2O2A    2.99370       11.6110           0  -1.01600      0.899000    
     14838 FORA     404      FORA     DC       DRUD     -2.47370      0.400000           0   0.00000       0.00000    
     14839 FORA     404      FORA     H        HDP1C     0.00000       1.00800           0   0.00000       0.00000    
     14840 FORA     404      FORA     O2       OD2C2A    2.05180       15.5994           0 -0.699000       2.39900    
     14841 FORA     404      FORA     DO2      DRUD     -2.05180      0.400000           0   0.00000       0.00000    
     14842 FORA     404      FORA     O1       OD2C2A    2.05180       15.5994           0 -0.699000       2.39900    
     14843 FORA     404      FORA     DO1      DRUD     -2.05180      0.400000           0   0.00000       0.00000    
     14844 FORA     404      FORA     HO1      DUMH      0.00000       1.00800           0   0.00000       0.00000    
     14845 FORA     404      FORA     LPO21    LPDO1   -0.380000       0.00000          -1   0.00000       0.00000    
     14846 FORA     404      FORA     LPO22    LPDO1   -0.380000       0.00000          -1   0.00000       0.00000    
     14847 FORA     404      FORA     LPO11    LPDO1   -0.380000       0.00000          -1   0.00000       0.00000    
     14848 FORA     404      FORA     LPO12    LPDO1   -0.380000       0.00000          -1   0.00000       0.00000    
     14849 FORA     405      FORA     C        CD2O2A    2.99370       11.6110           0  -1.01600      0.899000    
     14850 FORA     405      FORA     DC       DRUD     -2.47370      0.400000           0   0.00000       0.00000    
     14851 FORA     405      FORA     H        HDP1C     0.00000       1.00800           0   0.00000       0.00000    
     14852 FORA     405      FORA     O2       OD2C2A    2.05180       15.5994           0 -0.699000       2.39900    
     14853 FORA     405      FORA     DO2      DRUD     -2.05180      0.400000           0   0.00000       0.00000    
     14854 FORA     405      FORA     O1       OD2C2A    2.05180       15.5994           0 -0.699000       2.39900    
     14855 FORA     405      FORA     DO1      DRUD     -2.05180      0.400000           0   0.00000       0.00000    
     14856 FORA     405      FORA     HO1      DUMH      0.00000       1.00800           0   0.00000       0.00000    
     14857 FORA     405      FORA     LPO21    LPDO1   -0.380000       0.00000          -1   0.00000       0.00000    
     14858 FORA     405      FORA     LPO22    LPDO1   -0.380000       0.00000          -1   0.00000       0.00000    
     14859 FORA     405      FORA     LPO11    LPDO1   -0.380000       0.00000          -1   0.00000       0.00000    
     14860 FORA     405      FORA     LPO12    LPDO1   -0.380000       0.00000          -1   0.00000       0.00000    
     14861 FORA     406      FORA     C        CD2O2A    2.99370       11.6110           0  -1.01600      0.899000    
     14862 FORA     406      FORA     DC       DRUD     -2.47370      0.400000           0   0.00000       0.00000    
     14863 FORA     406      FORA     H        HDP1C     0.00000       1.00800           0   0.00000       0.00000    
     14864 FORA     406      FORA     O2       OD2C2A    2.05180       15.5994           0 -0.699000       2.39900    
     14865 FORA     406      FORA     DO2      DRUD     -2.05180      0.400000           0   0.00000       0.00000    
     14866 FORA     406      FORA     O1       OD2C2A    2.05180       15.5994           0 -0.699000       2.39900    
     14867 FORA     406      FORA     DO1      DRUD     -2.05180      0.400000           0   0.00000       0.00000    
     14868 FORA     406      FORA     HO1      DUMH      0.00000       1.00800           0   0.00000       0.00000    
     14869 FORA     406      FORA     LPO21    LPDO1   -0.380000       0.00000          -1   0.00000       0.00000    
     14870 FORA     406      FORA     LPO22    LPDO1   -0.380000       0.00000          -1   0.00000       0.00000    
     14871 FORA     406      FORA     LPO11    LPDO1   -0.380000       0.00000          -1   0.00000       0.00000    
     14872 FORA     406      FORA     LPO12    LPDO1   -0.380000       0.00000          -1   0.00000       0.00000    
     14873 FORA     407      FORA     C        CD2O2A    2.99370       11.6110           0  -1.01600      0.899000    
     14874 FORA     407      FORA     DC       DRUD     -2.47370      0.400000           0   0.00000       0.00000    
     14875 FORA     407      FORA     H        HDP1C     0.00000       1.00800           0   0.00000       0.00000    
     14876 FORA     407      FORA     O2       OD2C2A    2.05180       15.5994           0 -0.699000       2.39900    
     14877 FORA     407      FORA     DO2      DRUD     -2.05180      0.400000           0   0.00000       0.00000    
     14878 FORA     407      FORA     O1       OD2C2A    2.05180       15.5994           0 -0.699000       2.39900    
     14879 FORA     407      FORA     DO1      DRUD     -2.05180      0.400000           0   0.00000       0.00000    
     14880 FORA     407      FORA     HO1      DUMH      0.00000       1.00800           0   0.00000       0.00000    
     14881 FORA     407      FORA     LPO21    LPDO1   -0.380000       0.00000          -1   0.00000       0.00000    
     14882 FORA     407      FORA     LPO22    LPDO1   -0.380000       0.00000          -1   0.00000       0.00000    
     14883 FORA     407      FORA     LPO11    LPDO1   -0.380000       0.00000          -1   0.00000       0.00000    
     14884 FORA     407      FORA     LPO12    LPDO1   -0.380000       0.00000          -1   0.00000       0.00000    
     14885 FORA     408      FORA     C        CD2O2A    2.99370       11.6110           0  -1.01600      0.899000    
     14886 FORA     408      FORA     DC       DRUD     -2.47370      0.400000           0   0.00000       0.00000    
     14887 FORA     408      FORA     H        HDP1C     0.00000       1.00800           0   0.00000       0.00000    
     14888 FORA     408      FORA     O2       OD2C2A    2.05180       15.5994           0 -0.699000       2.39900    
     14889 FORA     408      FORA     DO2      DRUD     -2.05180      0.400000           0   0.00000       0.00000    
     14890 FORA     408      FORA     O1       OD2C2A    2.05180       15.5994           0 -0.699000       2.39900    
     14891 FORA     408      FORA     DO1      DRUD     -2.05180      0.400000           0   0.00000       0.00000    
     14892 FORA     408      FORA     HO1      DUMH      0.00000       1.00800           0   0.00000       0.00000    
     14893 FORA     408      FORA     LPO21    LPDO1   -0.380000       0.00000          -1   0.00000       0.00000    
     14894 FORA     408      FORA     LPO22    LPDO1   -0.380000       0.00000          -1   0.00000       0.00000    
     14895 FORA     408      FORA     LPO11    LPDO1   -0.380000       0.00000          -1   0.00000       0.00000    
     14896 FORA     408      FORA     LPO12    LPDO1   -0.380000       0.00000          -1   0.00000       0.00000    
     14897 FORA     409      FORA     C        CD2O2A    2.99370       11.6110           0  -1.01600      0.899000    
     14898 FORA     409      FORA     DC       DRUD     -2.47370      0.400000           0   0.00000       0.00000    
     14899 FORA     409      FORA     H        HDP1C     0.00000       1.00800           0   0.00000       0.00000    
     14900 FORA     409      FORA     O2       OD2C2A    2.05180       15.5994           0 -0.699000       2.39900    
     14901 FORA     409      FORA     DO2      DRUD     -2.05180      0.400000           0   0.00000       0.00000    
     14902 FORA     409      FORA     O1       OD2C2A    2.05180       15.5994           0 -0.699000       2.39900    
     14903 FORA     409      FORA     DO1      DRUD     -2.05180      0.400000           0   0.00000       0.00000    
     14904 FORA     409      FORA     HO1      DUMH      0.00000       1.00800           0   0.00000       0.00000    
     14905 FORA     409      FORA     LPO21    LPDO1   -0.380000       0.00000          -1   0.00000       0.00000    
     14906 FORA     409      FORA     LPO22    LPDO1   -0.380000       0.00000          -1   0.00000       0.00000    
     14907 FORA     409      FORA     LPO11    LPDO1   -0.380000       0.00000          -1   0.00000       0.00000    
     14908 FORA     409      FORA     LPO12    LPDO1   -0.380000       0.00000          -1   0.00000       0.00000    
     14909 FORA     410      FORA     C        CD2O2A    2.99370       11.6110           0  -1.01600      0.899000    
     14910 FORA     410      FORA     DC       DRUD     -2.47370      0.400000           0   0.00000       0.00000    
     14911 FORA     410      FORA     H        HDP1C     0.00000       1.00800           0   0.00000       0.00000    
     14912 FORA     410      FORA     O2       OD2C2A    2.05180       15.5994           0 -0.699000       2.39900    
     14913 FORA     410      FORA     DO2      DRUD     -2.05180      0.400000           0   0.00000       0.00000    
     14914 FORA     410      FORA     O1       OD2C2A    2.05180       15.5994           0 -0.699000       2.39900    
     14915 FORA     410      FORA     DO1      DRUD     -2.05180      0.400000           0   0.00000       0.00000    
     14916 FORA     410      FORA     HO1      DUMH      0.00000       1.00800           0   0.00000       0.00000    
     14917 FORA     410      FORA     LPO21    LPDO1   -0.380000       0.00000          -1   0.00000       0.00000    
     14918 FORA     410      FORA     LPO22    LPDO1   -0.380000       0.00000          -1   0.00000       0.00000    
     14919 FORA     410      FORA     LPO11    LPDO1   -0.380000       0.00000          -1   0.00000       0.00000    
     14920 FORA     410      FORA     LPO12    LPDO1   -0.380000       0.00000          -1   0.00000       0.00000    
     14921 FORA     411      FORA     C        CD2O2A    2.99370       11.6110           0  -1.01600      0.899000    
     14922 FORA     411      FORA     DC       DRUD     -2.47370      0.400000           0   0.00000       0.00000    
     14923 FORA     411      FORA     H        HDP1C     0.00000       1.00800           0   0.00000       0.00000    
     14924 FORA     411      FORA     O2       OD2C2A    2.05180       15.5994           0 -0.699000       2.39900    
     14925 FORA     411      FORA     DO2      DRUD     -2.05180      0.400000           0   0.00000       0.00000    
     14926 FORA     411      FORA     O1       OD2C2A    2.05180       15.5994           0 -0.699000       2.39900    
     14927 FORA     411      FORA     DO1      DRUD     -2.05180      0.400000           0   0.00000       0.00000    
     14928 FORA     411      FORA     HO1      DUMH      0.00000       1.00800           0   0.00000       0.00000    
     14929 FORA     411      FORA     LPO21    LPDO1   -0.380000       0.00000          -1   0.00000       0.00000    
     14930 FORA     411      FORA     LPO22    LPDO1   -0.380000       0.00000          -1   0.00000       0.00000    
     14931 FORA     411      FORA     LPO11    LPDO1   -0.380000       0.00000          -1   0.00000       0.00000    
     14932 FORA     411      FORA     LPO12    LPDO1   -0.380000       0.00000          -1   0.00000       0.00000    
     14933 FORA     412      FORA     C        CD2O2A    2.99370       11.6110           0  -1.01600      0.899000    
     14934 FORA     412      FORA     DC       DRUD     -2.47370      0.400000           0   0.00000       0.00000    
     14935 FORA     412      FORA     H        HDP1C     0.00000       1.00800           0   0.00000       0.00000    
     14936 FORA     412      FORA     O2       OD2C2A    2.05180       15.5994           0 -0.699000       2.39900    
     14937 FORA     412      FORA     DO2      DRUD     -2.05180      0.400000           0   0.00000       0.00000    
     14938 FORA     412      FORA     O1       OD2C2A    2.05180       15.5994           0 -0.699000       2.39900    
     14939 FORA     412      FORA     DO1      DRUD     -2.05180      0.400000           0   0.00000       0.00000    
     14940 FORA     412      FORA     HO1      DUMH      0.00000       1.00800           0   0.00000       0.00000    
     14941 FORA     412      FORA     LPO21    LPDO1   -0.380000       0.00000          -1   0.00000       0.00000    
     14942 FORA     412      FORA     LPO22    LPDO1   -0.380000       0.00000          -1   0.00000       0.00000    
     14943 FORA     412      FORA     LPO11    LPDO1   -0.380000       0.00000          -1   0.00000       0.00000    
     14944 FORA     412      FORA     LPO12    LPDO1   -0.380000       0.00000          -1   0.00000       0.00000    
     14945 FORA     413      FORA     C        CD2O2A    2.99370       11.6110           0  -1.01600      0.899000    
     14946 FORA     413      FORA     DC       DRUD     -2.47370      0.400000           0   0.00000       0.00000    
     14947 FORA     413      FORA     H        HDP1C     0.00000       1.00800           0   0.00000       0.00000    
     14948 FORA     413      FORA     O2       OD2C2A    2.05180       15.5994           0 -0.699000       2.39900    
     14949 FORA     413      FORA     DO2      DRUD     -2.05180      0.400000           0   0.00000       0.00000    
     14950 FORA     413      FORA     O1       OD2C2A    2.05180       15.5994           0 -0.699000       2.39900    
     14951 FORA     413      FORA     DO1      DRUD     -2.05180      0.400000           0   0.00000       0.00000    
     14952 FORA     413      FORA     HO1      DUMH      0.00000       1.00800           0   0.00000       0.00000    
     14953 FORA     413      FORA     LPO21    LPDO1   -0.380000       0.00000          -1   0.00000       0.00000    
     14954 FORA     413      FORA     LPO22    LPDO1   -0.380000       0.00000          -1   0.00000       0.00000    
     14955 FORA     413      FORA     LPO11    LPDO1   -0.380000       0.00000          -1   0.00000       0.00000    
     14956 FORA     413      FORA     LPO12    LPDO1   -0.380000       0.00000          -1   0.00000       0.00000    
     14957 FORA     414      FORA     C        CD2O2A    2.99370       11.6110           0  -1.01600      0.899000    
     14958 FORA     414      FORA     DC       DRUD     -2.47370      0.400000           0   0.00000       0.00000    
     14959 FORA     414      FORA     H        HDP1C     0.00000       1.00800           0   0.00000       0.00000    
     14960 FORA     414      FORA     O2       OD2C2A    2.05180       15.5994           0 -0.699000       2.39900    
     14961 FORA     414      FORA     DO2      DRUD     -2.05180      0.400000           0   0.00000       0.00000    
     14962 FORA     414      FORA     O1       OD2C2A    2.05180       15.5994           0 -0.699000       2.39900    
     14963 FORA     414      FORA     DO1      DRUD     -2.05180      0.400000           0   0.00000       0.00000    
     14964 FORA     414      FORA     HO1      DUMH      0.00000       1.00800           0   0.00000       0.00000    
     14965 FORA     414      FORA     LPO21    LPDO1   -0.380000       0.00000          -1   0.00000       0.00000    
     14966 FORA     414      FORA     LPO22    LPDO1   -0.380000       0.00000          -1   0.00000       0.00000    
     14967 FORA     414      FORA     LPO11    LPDO1   -0.380000       0.00000          -1   0.00000       0.00000    
     14968 FORA     414      FORA     LPO12    LPDO1   -0.380000       0.00000          -1   0.00000       0.00000    
     14969 FORA     415      FORA     C        CD2O2A    2.99370       11.6110           0  -1.01600      0.899000    
     14970 FORA     415      FORA     DC       DRUD     -2.47370      0.400000           0   0.00000       0.00000    
     14971 FORA     415      FORA     H        HDP1C     0.00000       1.00800           0   0.00000       0.00000    
     14972 FORA     415      FORA     O2       OD2C2A    2.05180       15.5994           0 -0.699000       2.39900    
     14973 FORA     415      FORA     DO2      DRUD     -2.05180      0.400000           0   0.00000       0.00000    
     14974 FORA     415      FORA     O1       OD2C2A    2.05180       15.5994           0 -0.699000       2.39900    
     14975 FORA     415      FORA     DO1      DRUD     -2.05180      0.400000           0   0.00000       0.00000    
     14976 FORA     415      FORA     HO1      DUMH      0.00000       1.00800           0   0.00000       0.00000    
     14977 FORA     415      FORA     LPO21    LPDO1   -0.380000       0.00000          -1   0.00000       0.00000    
     14978 FORA     415      FORA     LPO22    LPDO1   -0.380000       0.00000          -1   0.00000       0.00000    
     14979 FORA     415      FORA     LPO11    LPDO1   -0.380000       0.00000          -1   0.00000       0.00000    
     14980 FORA     415      FORA     LPO12    LPDO1   -0.380000       0.00000          -1   0.00000       0.00000    
     14981 FORA     416      FORA     C        CD2O2A    2.99370       11.6110           0  -1.01600      0.899000    
     14982 FORA     416      FORA     DC       DRUD     -2.47370      0.400000           0   0.00000       0.00000    
     14983 FORA     416      FORA     H        HDP1C     0.00000       1.00800           0   0.00000       0.00000    
     14984 FORA     416      FORA     O2       OD2C2A    2.05180       15.5994           0 -0.699000       2.39900    
     14985 FORA     416      FORA     DO2      DRUD     -2.05180      0.400000           0   0.00000       0.00000    
     14986 FORA     416      FORA     O1       OD2C2A    2.05180       15.5994           0 -0.699000       2.39900    
     14987 FORA     416      FORA     DO1      DRUD     -2.05180      0.400000           0   0.00000       0.00000    
     14988 FORA     416      FORA     HO1      DUMH      0.00000       1.00800           0   0.00000       0.00000    
     14989 FORA     416      FORA     LPO21    LPDO1   -0.380000       0.00000          -1   0.00000       0.00000    
     14990 FORA     416      FORA     LPO22    LPDO1   -0.380000       0.00000          -1   0.00000       0.00000    
     14991 FORA     416      FORA     LPO11    LPDO1   -0.380000       0.00000          -1   0.00000       0.00000    
     14992 FORA     416      FORA     LPO12    LPDO1   -0.380000       0.00000          -1   0.00000       0.00000    
     14993 FORA     417      FORA     C        CD2O2A    2.99370       11.6110           0  -1.01600      0.899000    
     14994 FORA     417      FORA     DC       DRUD     -2.47370      0.400000           0   0.00000       0.00000    
     14995 FORA     417      FORA     H        HDP1C     0.00000       1.00800           0   0.00000       0.00000    
     14996 FORA     417      FORA     O2       OD2C2A    2.05180       15.5994           0 -0.699000       2.39900    
     14997 FORA     417      FORA     DO2      DRUD     -2.05180      0.400000           0   0.00000       0.00000    
     14998 FORA     417      FORA     O1       OD2C2A    2.05180       15.5994           0 -0.699000       2.39900    
     14999 FORA     417      FORA     DO1      DRUD     -2.05180      0.400000           0   0.00000       0.00000    
     15000 FORA     417      FORA     HO1      DUMH      0.00000       1.00800           0   0.00000       0.00000    
     15001 FORA     417      FORA     LPO21    LPDO1   -0.380000       0.00000          -1   0.00000       0.00000    
     15002 FORA     417      FORA     LPO22    LPDO1   -0.380000       0.00000          -1   0.00000       0.00000    
     15003 FORA     417      FORA     LPO11    LPDO1   -0.380000       0.00000          -1   0.00000       0.00000    
     15004 FORA     417      FORA     LPO12    LPDO1   -0.380000       0.00000          -1   0.00000       0.00000    
     15005 FORA     418      FORA     C        CD2O2A    2.99370       11.6110           0  -1.01600      0.899000    
     15006 FORA     418      FORA     DC       DRUD     -2.47370      0.400000           0   0.00000       0.00000    
     15007 FORA     418      FORA     H        HDP1C     0.00000       1.00800           0   0.00000       0.00000    
     15008 FORA     418      FORA     O2       OD2C2A    2.05180       15.5994           0 -0.699000       2.39900    
     15009 FORA     418      FORA     DO2      DRUD     -2.05180      0.400000           0   0.00000       0.00000    
     15010 FORA     418      FORA     O1       OD2C2A    2.05180       15.5994           0 -0.699000       2.39900    
     15011 FORA     418      FORA     DO1      DRUD     -2.05180      0.400000           0   0.00000       0.00000    
     15012 FORA     418      FORA     HO1      DUMH      0.00000       1.00800           0   0.00000       0.00000    
     15013 FORA     418      FORA     LPO21    LPDO1   -0.380000       0.00000          -1   0.00000       0.00000    
     15014 FORA     418      FORA     LPO22    LPDO1   -0.380000       0.00000          -1   0.00000       0.00000    
     15015 FORA     418      FORA     LPO11    LPDO1   -0.380000       0.00000          -1   0.00000       0.00000    
     15016 FORA     418      FORA     LPO12    LPDO1   -0.380000       0.00000          -1   0.00000       0.00000    
     15017 FORA     419      FORA     C        CD2O2A    2.99370       11.6110           0  -1.01600      0.899000    
     15018 FORA     419      FORA     DC       DRUD     -2.47370      0.400000           0   0.00000       0.00000    
     15019 FORA     419      FORA     H        HDP1C     0.00000       1.00800           0   0.00000       0.00000    
     15020 FORA     419      FORA     O2       OD2C2A    2.05180       15.5994           0 -0.699000       2.39900    
     15021 FORA     419      FORA     DO2      DRUD     -2.05180      0.400000           0   0.00000       0.00000    
     15022 FORA     419      FORA     O1       OD2C2A    2.05180       15.5994           0 -0.699000       2.39900    
     15023 FORA     419      FORA     DO1      DRUD     -2.05180      0.400000           0   0.00000       0.00000    
     15024 FORA     419      FORA     HO1      DUMH      0.00000       1.00800           0   0.00000       0.00000    
     15025 FORA     419      FORA     LPO21    LPDO1   -0.380000       0.00000          -1   0.00000       0.00000    
     15026 FORA     419      FORA     LPO22    LPDO1   -0.380000       0.00000          -1   0.00000       0.00000    
     15027 FORA     419      FORA     LPO11    LPDO1   -0.380000       0.00000          -1   0.00000       0.00000    
     15028 FORA     419      FORA     LPO12    LPDO1   -0.380000       0.00000          -1   0.00000       0.00000    
     15029 FORA     420      FORA     C        CD2O2A    2.99370       11.6110           0  -1.01600      0.899000    
     15030 FORA     420      FORA     DC       DRUD     -2.47370      0.400000           0   0.00000       0.00000    
     15031 FORA     420      FORA     H        HDP1C     0.00000       1.00800           0   0.00000       0.00000    
     15032 FORA     420      FORA     O2       OD2C2A    2.05180       15.5994           0 -0.699000       2.39900    
     15033 FORA     420      FORA     DO2      DRUD     -2.05180      0.400000           0   0.00000       0.00000    
     15034 FORA     420      FORA     O1       OD2C2A    2.05180       15.5994           0 -0.699000       2.39900    
     15035 FORA     420      FORA     DO1      DRUD     -2.05180      0.400000           0   0.00000       0.00000    
     15036 FORA     420      FORA     HO1      DUMH      0.00000       1.00800           0   0.00000       0.00000    
     15037 FORA     420      FORA     LPO21    LPDO1   -0.380000       0.00000          -1   0.00000       0.00000    
     15038 FORA     420      FORA     LPO22    LPDO1   -0.380000       0.00000          -1   0.00000       0.00000    
     15039 FORA     420      FORA     LPO11    LPDO1   -0.380000       0.00000          -1   0.00000       0.00000    
     15040 FORA     420      FORA     LPO12    LPDO1   -0.380000       0.00000          -1   0.00000       0.00000    
     15041 FORA     421      FORA     C        CD2O2A    2.99370       11.6110           0  -1.01600      0.899000    
     15042 FORA     421      FORA     DC       DRUD     -2.47370      0.400000           0   0.00000       0.00000    
     15043 FORA     421      FORA     H        HDP1C     0.00000       1.00800           0   0.00000       0.00000    
     15044 FORA     421      FORA     O2       OD2C2A    2.05180       15.5994           0 -0.699000       2.39900    
     15045 FORA     421      FORA     DO2      DRUD     -2.05180      0.400000           0   0.00000       0.00000    
     15046 FORA     421      FORA     O1       OD2C2A    2.05180       15.5994           0 -0.699000       2.39900    
     15047 FORA     421      FORA     DO1      DRUD     -2.05180      0.400000           0   0.00000       0.00000    
     15048 FORA     421      FORA     HO1      DUMH      0.00000       1.00800           0   0.00000       0.00000    
     15049 FORA     421      FORA     LPO21    LPDO1   -0.380000       0.00000          -1   0.00000       0.00000    
     15050 FORA     421      FORA     LPO22    LPDO1   -0.380000       0.00000          -1   0.00000       0.00000    
     15051 FORA     421      FORA     LPO11    LPDO1   -0.380000       0.00000          -1   0.00000       0.00000    
     15052 FORA     421      FORA     LPO12    LPDO1   -0.380000       0.00000          -1   0.00000       0.00000    
     15053 FORA     422      FORA     C        CD2O2A    2.99370       11.6110           0  -1.01600      0.899000    
     15054 FORA     422      FORA     DC       DRUD     -2.47370      0.400000           0   0.00000       0.00000    
     15055 FORA     422      FORA     H        HDP1C     0.00000       1.00800           0   0.00000       0.00000    
     15056 FORA     422      FORA     O2       OD2C2A    2.05180       15.5994           0 -0.699000       2.39900    
     15057 FORA     422      FORA     DO2      DRUD     -2.05180      0.400000           0   0.00000       0.00000    
     15058 FORA     422      FORA     O1       OD2C2A    2.05180       15.5994           0 -0.699000       2.39900    
     15059 FORA     422      FORA     DO1      DRUD     -2.05180      0.400000           0   0.00000       0.00000    
     15060 FORA     422      FORA     HO1      DUMH      0.00000       1.00800           0   0.00000       0.00000    
     15061 FORA     422      FORA     LPO21    LPDO1   -0.380000       0.00000          -1   0.00000       0.00000    
     15062 FORA     422      FORA     LPO22    LPDO1   -0.380000       0.00000          -1   0.00000       0.00000    
     15063 FORA     422      FORA     LPO11    LPDO1   -0.380000       0.00000          -1   0.00000       0.00000    
     15064 FORA     422      FORA     LPO12    LPDO1   -0.380000       0.00000          -1   0.00000       0.00000    
     15065 FORA     423      FORA     C        CD2O2A    2.99370       11.6110           0  -1.01600      0.899000    
     15066 FORA     423      FORA     DC       DRUD     -2.47370      0.400000           0   0.00000       0.00000    
     15067 FORA     423      FORA     H        HDP1C     0.00000       1.00800           0   0.00000       0.00000    
     15068 FORA     423      FORA     O2       OD2C2A    2.05180       15.5994           0 -0.699000       2.39900    
     15069 FORA     423      FORA     DO2      DRUD     -2.05180      0.400000           0   0.00000       0.00000    
     15070 FORA     423      FORA     O1       OD2C2A    2.05180       15.5994           0 -0.699000       2.39900    
     15071 FORA     423      FORA     DO1      DRUD     -2.05180      0.400000           0   0.00000       0.00000    
     15072 FORA     423      FORA     HO1      DUMH      0.00000       1.00800           0   0.00000       0.00000    
     15073 FORA     423      FORA     LPO21    LPDO1   -0.380000       0.00000          -1   0.00000       0.00000    
     15074 FORA     423      FORA     LPO22    LPDO1   -0.380000       0.00000          -1   0.00000       0.00000    
     15075 FORA     423      FORA     LPO11    LPDO1   -0.380000       0.00000          -1   0.00000       0.00000    
     15076 FORA     423      FORA     LPO12    LPDO1   -0.380000       0.00000          -1   0.00000       0.00000    
     15077 FORA     424      FORA     C        CD2O2A    2.99370       11.6110           0  -1.01600      0.899000    
     15078 FORA     424      FORA     DC       DRUD     -2.47370      0.400000           0   0.00000       0.00000    
     15079 FORA     424      FORA     H        HDP1C     0.00000       1.00800           0   0.00000       0.00000    
     15080 FORA     424      FORA     O2       OD2C2A    2.05180       15.5994           0 -0.699000       2.39900    
     15081 FORA     424      FORA     DO2      DRUD     -2.05180      0.400000           0   0.00000       0.00000    
     15082 FORA     424      FORA     O1       OD2C2A    2.05180       15.5994           0 -0.699000       2.39900    
     15083 FORA     424      FORA     DO1      DRUD     -2.05180      0.400000           0   0.00000       0.00000    
     15084 FORA     424      FORA     HO1      DUMH      0.00000       1.00800           0   0.00000       0.00000    
     15085 FORA     424      FORA     LPO21    LPDO1   -0.380000       0.00000          -1   0.00000       0.00000    
     15086 FORA     424      FORA     LPO22    LPDO1   -0.380000       0.00000          -1   0.00000       0.00000    
     15087 FORA     424      FORA     LPO11    LPDO1   -0.380000       0.00000          -1   0.00000       0.00000    
     15088 FORA     424      FORA     LPO12    LPDO1   -0.380000       0.00000          -1   0.00000       0.00000    
     15089 FORA     425      FORA     C        CD2O2A    2.99370       11.6110           0  -1.01600      0.899000    
     15090 FORA     425      FORA     DC       DRUD     -2.47370      0.400000           0   0.00000       0.00000    
     15091 FORA     425      FORA     H        HDP1C     0.00000       1.00800           0   0.00000       0.00000    
     15092 FORA     425      FORA     O2       OD2C2A    2.05180       15.5994           0 -0.699000       2.39900    
     15093 FORA     425      FORA     DO2      DRUD     -2.05180      0.400000           0   0.00000       0.00000    
     15094 FORA     425      FORA     O1       OD2C2A    2.05180       15.5994           0 -0.699000       2.39900    
     15095 FORA     425      FORA     DO1      DRUD     -2.05180      0.400000           0   0.00000       0.00000    
     15096 FORA     425      FORA     HO1      DUMH      0.00000       1.00800           0   0.00000       0.00000    
     15097 FORA     425      FORA     LPO21    LPDO1   -0.380000       0.00000          -1   0.00000       0.00000    
     15098 FORA     425      FORA     LPO22    LPDO1   -0.380000       0.00000          -1   0.00000       0.00000    
     15099 FORA     425      FORA     LPO11    LPDO1   -0.380000       0.00000          -1   0.00000       0.00000    
     15100 FORA     425      FORA     LPO12    LPDO1   -0.380000       0.00000          -1   0.00000       0.00000    
     15101 FORA     426      FORA     C        CD2O2A    2.99370       11.6110           0  -1.01600      0.899000    
     15102 FORA     426      FORA     DC       DRUD     -2.47370      0.400000           0   0.00000       0.00000    
     15103 FORA     426      FORA     H        HDP1C     0.00000       1.00800           0   0.00000       0.00000    
     15104 FORA     426      FORA     O2       OD2C2A    2.05180       15.5994           0 -0.699000       2.39900    
     15105 FORA     426      FORA     DO2      DRUD     -2.05180      0.400000           0   0.00000       0.00000    
     15106 FORA     426      FORA     O1       OD2C2A    2.05180       15.5994           0 -0.699000       2.39900    
     15107 FORA     426      FORA     DO1      DRUD     -2.05180      0.400000           0   0.00000       0.00000    
     15108 FORA     426      FORA     HO1      DUMH      0.00000       1.00800           0   0.00000       0.00000    
     15109 FORA     426      FORA     LPO21    LPDO1   -0.380000       0.00000          -1   0.00000       0.00000    
     15110 FORA     426      FORA     LPO22    LPDO1   -0.380000       0.00000          -1   0.00000       0.00000    
     15111 FORA     426      FORA     LPO11    LPDO1   -0.380000       0.00000          -1   0.00000       0.00000    
     15112 FORA     426      FORA     LPO12    LPDO1   -0.380000       0.00000          -1   0.00000       0.00000    
     15113 FORA     427      FORA     C        CD2O2A    2.99370       11.6110           0  -1.01600      0.899000    
     15114 FORA     427      FORA     DC       DRUD     -2.47370      0.400000           0   0.00000       0.00000    
     15115 FORA     427      FORA     H        HDP1C     0.00000       1.00800           0   0.00000       0.00000    
     15116 FORA     427      FORA     O2       OD2C2A    2.05180       15.5994           0 -0.699000       2.39900    
     15117 FORA     427      FORA     DO2      DRUD     -2.05180      0.400000           0   0.00000       0.00000    
     15118 FORA     427      FORA     O1       OD2C2A    2.05180       15.5994           0 -0.699000       2.39900    
     15119 FORA     427      FORA     DO1      DRUD     -2.05180      0.400000           0   0.00000       0.00000    
     15120 FORA     427      FORA     HO1      DUMH      0.00000       1.00800           0   0.00000       0.00000    
     15121 FORA     427      FORA     LPO21    LPDO1   -0.380000       0.00000          -1   0.00000       0.00000    
     15122 FORA     427      FORA     LPO22    LPDO1   -0.380000       0.00000          -1   0.00000       0.00000    
     15123 FORA     427      FORA     LPO11    LPDO1   -0.380000       0.00000          -1   0.00000       0.00000    
     15124 FORA     427      FORA     LPO12    LPDO1   -0.380000       0.00000          -1   0.00000       0.00000    
     15125 FORA     428      FORA     C        CD2O2A    2.99370       11.6110           0  -1.01600      0.899000    
     15126 FORA     428      FORA     DC       DRUD     -2.47370      0.400000           0   0.00000       0.00000    
     15127 FORA     428      FORA     H        HDP1C     0.00000       1.00800           0   0.00000       0.00000    
     15128 FORA     428      FORA     O2       OD2C2A    2.05180       15.5994           0 -0.699000       2.39900    
     15129 FORA     428      FORA     DO2      DRUD     -2.05180      0.400000           0   0.00000       0.00000    
     15130 FORA     428      FORA     O1       OD2C2A    2.05180       15.5994           0 -0.699000       2.39900    
     15131 FORA     428      FORA     DO1      DRUD     -2.05180      0.400000           0   0.00000       0.00000    
     15132 FORA     428      FORA     HO1      DUMH      0.00000       1.00800           0   0.00000       0.00000    
     15133 FORA     428      FORA     LPO21    LPDO1   -0.380000       0.00000          -1   0.00000       0.00000    
     15134 FORA     428      FORA     LPO22    LPDO1   -0.380000       0.00000          -1   0.00000       0.00000    
     15135 FORA     428      FORA     LPO11    LPDO1   -0.380000       0.00000          -1   0.00000       0.00000    
     15136 FORA     428      FORA     LPO12    LPDO1   -0.380000       0.00000          -1   0.00000       0.00000    
     15137 FORA     429      FORA     C        CD2O2A    2.99370       11.6110           0  -1.01600      0.899000    
     15138 FORA     429      FORA     DC       DRUD     -2.47370      0.400000           0   0.00000       0.00000    
     15139 FORA     429      FORA     H        HDP1C     0.00000       1.00800           0   0.00000       0.00000    
     15140 FORA     429      FORA     O2       OD2C2A    2.05180       15.5994           0 -0.699000       2.39900    
     15141 FORA     429      FORA     DO2      DRUD     -2.05180      0.400000           0   0.00000       0.00000    
     15142 FORA     429      FORA     O1       OD2C2A    2.05180       15.5994           0 -0.699000       2.39900    
     15143 FORA     429      FORA     DO1      DRUD     -2.05180      0.400000           0   0.00000       0.00000    
     15144 FORA     429      FORA     HO1      DUMH      0.00000       1.00800           0   0.00000       0.00000    
     15145 FORA     429      FORA     LPO21    LPDO1   -0.380000       0.00000          -1   0.00000       0.00000    
     15146 FORA     429      FORA     LPO22    LPDO1   -0.380000       0.00000          -1   0.00000       0.00000    
     15147 FORA     429      FORA     LPO11    LPDO1   -0.380000       0.00000          -1   0.00000       0.00000    
     15148 FORA     429      FORA     LPO12    LPDO1   -0.380000       0.00000          -1   0.00000       0.00000    
     15149 FORA     430      FORA     C        CD2O2A    2.99370       11.6110           0  -1.01600      0.899000    
     15150 FORA     430      FORA     DC       DRUD     -2.47370      0.400000           0   0.00000       0.00000    
     15151 FORA     430      FORA     H        HDP1C     0.00000       1.00800           0   0.00000       0.00000    
     15152 FORA     430      FORA     O2       OD2C2A    2.05180       15.5994           0 -0.699000       2.39900    
     15153 FORA     430      FORA     DO2      DRUD     -2.05180      0.400000           0   0.00000       0.00000    
     15154 FORA     430      FORA     O1       OD2C2A    2.05180       15.5994           0 -0.699000       2.39900    
     15155 FORA     430      FORA     DO1      DRUD     -2.05180      0.400000           0   0.00000       0.00000    
     15156 FORA     430      FORA     HO1      DUMH      0.00000       1.00800           0   0.00000       0.00000    
     15157 FORA     430      FORA     LPO21    LPDO1   -0.380000       0.00000          -1   0.00000       0.00000    
     15158 FORA     430      FORA     LPO22    LPDO1   -0.380000       0.00000          -1   0.00000       0.00000    
     15159 FORA     430      FORA     LPO11    LPDO1   -0.380000       0.00000          -1   0.00000       0.00000    
     15160 FORA     430      FORA     LPO12    LPDO1   -0.380000       0.00000          -1   0.00000       0.00000    
     15161 FORA     431      FORA     C        CD2O2A    2.99370       11.6110           0  -1.01600      0.899000    
     15162 FORA     431      FORA     DC       DRUD     -2.47370      0.400000           0   0.00000       0.00000    
     15163 FORA     431      FORA     H        HDP1C     0.00000       1.00800           0   0.00000       0.00000    
     15164 FORA     431      FORA     O2       OD2C2A    2.05180       15.5994           0 -0.699000       2.39900    
     15165 FORA     431      FORA     DO2      DRUD     -2.05180      0.400000           0   0.00000       0.00000    
     15166 FORA     431      FORA     O1       OD2C2A    2.05180       15.5994           0 -0.699000       2.39900    
     15167 FORA     431      FORA     DO1      DRUD     -2.05180      0.400000           0   0.00000       0.00000    
     15168 FORA     431      FORA     HO1      DUMH      0.00000       1.00800           0   0.00000       0.00000    
     15169 FORA     431      FORA     LPO21    LPDO1   -0.380000       0.00000          -1   0.00000       0.00000    
     15170 FORA     431      FORA     LPO22    LPDO1   -0.380000       0.00000          -1   0.00000       0.00000    
     15171 FORA     431      FORA     LPO11    LPDO1   -0.380000       0.00000          -1   0.00000       0.00000    
     15172 FORA     431      FORA     LPO12    LPDO1   -0.380000       0.00000          -1   0.00000       0.00000    
     15173 FORA     432      FORA     C        CD2O2A    2.99370       11.6110           0  -1.01600      0.899000    
     15174 FORA     432      FORA     DC       DRUD     -2.47370      0.400000           0   0.00000       0.00000    
     15175 FORA     432      FORA     H        HDP1C     0.00000       1.00800           0   0.00000       0.00000    
     15176 FORA     432      FORA     O2       OD2C2A    2.05180       15.5994           0 -0.699000       2.39900    
     15177 FORA     432      FORA     DO2      DRUD     -2.05180      0.400000           0   0.00000       0.00000    
     15178 FORA     432      FORA     O1       OD2C2A    2.05180       15.5994           0 -0.699000       2.39900    
     15179 FORA     432      FORA     DO1      DRUD     -2.05180      0.400000           0   0.00000       0.00000    
     15180 FORA     432      FORA     HO1      DUMH      0.00000       1.00800           0   0.00000       0.00000    
     15181 FORA     432      FORA     LPO21    LPDO1   -0.380000       0.00000          -1   0.00000       0.00000    
     15182 FORA     432      FORA     LPO22    LPDO1   -0.380000       0.00000          -1   0.00000       0.00000    
     15183 FORA     432      FORA     LPO11    LPDO1   -0.380000       0.00000          -1   0.00000       0.00000    
     15184 FORA     432      FORA     LPO12    LPDO1   -0.380000       0.00000          -1   0.00000       0.00000    
     15185 FORA     433      FORA     C        CD2O2A    2.99370       11.6110           0  -1.01600      0.899000    
     15186 FORA     433      FORA     DC       DRUD     -2.47370      0.400000           0   0.00000       0.00000    
     15187 FORA     433      FORA     H        HDP1C     0.00000       1.00800           0   0.00000       0.00000    
     15188 FORA     433      FORA     O2       OD2C2A    2.05180       15.5994           0 -0.699000       2.39900    
     15189 FORA     433      FORA     DO2      DRUD     -2.05180      0.400000           0   0.00000       0.00000    
     15190 FORA     433      FORA     O1       OD2C2A    2.05180       15.5994           0 -0.699000       2.39900    
     15191 FORA     433      FORA     DO1      DRUD     -2.05180      0.400000           0   0.00000       0.00000    
     15192 FORA     433      FORA     HO1      DUMH      0.00000       1.00800           0   0.00000       0.00000    
     15193 FORA     433      FORA     LPO21    LPDO1   -0.380000       0.00000          -1   0.00000       0.00000    
     15194 FORA     433      FORA     LPO22    LPDO1   -0.380000       0.00000          -1   0.00000       0.00000    
     15195 FORA     433      FORA     LPO11    LPDO1   -0.380000       0.00000          -1   0.00000       0.00000    
     15196 FORA     433      FORA     LPO12    LPDO1   -0.380000       0.00000          -1   0.00000       0.00000    
     15197 FORA     434      FORA     C        CD2O2A    2.99370       11.6110           0  -1.01600      0.899000    
     15198 FORA     434      FORA     DC       DRUD     -2.47370      0.400000           0   0.00000       0.00000    
     15199 FORA     434      FORA     H        HDP1C     0.00000       1.00800           0   0.00000       0.00000    
     15200 FORA     434      FORA     O2       OD2C2A    2.05180       15.5994           0 -0.699000       2.39900    
     15201 FORA     434      FORA     DO2      DRUD     -2.05180      0.400000           0   0.00000       0.00000    
     15202 FORA     434      FORA     O1       OD2C2A    2.05180       15.5994           0 -0.699000       2.39900    
     15203 FORA     434      FORA     DO1      DRUD     -2.05180      0.400000           0   0.00000       0.00000    
     15204 FORA     434      FORA     HO1      DUMH      0.00000       1.00800           0   0.00000       0.00000    
     15205 FORA     434      FORA     LPO21    LPDO1   -0.380000       0.00000          -1   0.00000       0.00000    
     15206 FORA     434      FORA     LPO22    LPDO1   -0.380000       0.00000          -1   0.00000       0.00000    
     15207 FORA     434      FORA     LPO11    LPDO1   -0.380000       0.00000          -1   0.00000       0.00000    
     15208 FORA     434      FORA     LPO12    LPDO1   -0.380000       0.00000          -1   0.00000       0.00000    
     15209 FORA     435      FORA     C        CD2O2A    2.99370       11.6110           0  -1.01600      0.899000    
     15210 FORA     435      FORA     DC       DRUD     -2.47370      0.400000           0   0.00000       0.00000    
     15211 FORA     435      FORA     H        HDP1C     0.00000       1.00800           0   0.00000       0.00000    
     15212 FORA     435      FORA     O2       OD2C2A    2.05180       15.5994           0 -0.699000       2.39900    
     15213 FORA     435      FORA     DO2      DRUD     -2.05180      0.400000           0   0.00000       0.00000    
     15214 FORA     435      FORA     O1       OD2C2A    2.05180       15.5994           0 -0.699000       2.39900    
     15215 FORA     435      FORA     DO1      DRUD     -2.05180      0.400000           0   0.00000       0.00000    
     15216 FORA     435      FORA     HO1      DUMH      0.00000       1.00800           0   0.00000       0.00000    
     15217 FORA     435      FORA     LPO21    LPDO1   -0.380000       0.00000          -1   0.00000       0.00000    
     15218 FORA     435      FORA     LPO22    LPDO1   -0.380000       0.00000          -1   0.00000       0.00000    
     15219 FORA     435      FORA     LPO11    LPDO1   -0.380000       0.00000          -1   0.00000       0.00000    
     15220 FORA     435      FORA     LPO12    LPDO1   -0.380000       0.00000          -1   0.00000       0.00000    
     15221 FORA     436      FORA     C        CD2O2A    2.99370       11.6110           0  -1.01600      0.899000    
     15222 FORA     436      FORA     DC       DRUD     -2.47370      0.400000           0   0.00000       0.00000    
     15223 FORA     436      FORA     H        HDP1C     0.00000       1.00800           0   0.00000       0.00000    
     15224 FORA     436      FORA     O2       OD2C2A    2.05180       15.5994           0 -0.699000       2.39900    
     15225 FORA     436      FORA     DO2      DRUD     -2.05180      0.400000           0   0.00000       0.00000    
     15226 FORA     436      FORA     O1       OD2C2A    2.05180       15.5994           0 -0.699000       2.39900    
     15227 FORA     436      FORA     DO1      DRUD     -2.05180      0.400000           0   0.00000       0.00000    
     15228 FORA     436      FORA     HO1      DUMH      0.00000       1.00800           0   0.00000       0.00000    
     15229 FORA     436      FORA     LPO21    LPDO1   -0.380000       0.00000          -1   0.00000       0.00000    
     15230 FORA     436      FORA     LPO22    LPDO1   -0.380000       0.00000          -1   0.00000       0.00000    
     15231 FORA     436      FORA     LPO11    LPDO1   -0.380000       0.00000          -1   0.00000       0.00000    
     15232 FORA     436      FORA     LPO12    LPDO1   -0.380000       0.00000          -1   0.00000       0.00000    
     15233 FORA     437      FORA     C        CD2O2A    2.99370       11.6110           0  -1.01600      0.899000    
     15234 FORA     437      FORA     DC       DRUD     -2.47370      0.400000           0   0.00000       0.00000    
     15235 FORA     437      FORA     H        HDP1C     0.00000       1.00800           0   0.00000       0.00000    
     15236 FORA     437      FORA     O2       OD2C2A    2.05180       15.5994           0 -0.699000       2.39900    
     15237 FORA     437      FORA     DO2      DRUD     -2.05180      0.400000           0   0.00000       0.00000    
     15238 FORA     437      FORA     O1       OD2C2A    2.05180       15.5994           0 -0.699000       2.39900    
     15239 FORA     437      FORA     DO1      DRUD     -2.05180      0.400000           0   0.00000       0.00000    
     15240 FORA     437      FORA     HO1      DUMH      0.00000       1.00800           0   0.00000       0.00000    
     15241 FORA     437      FORA     LPO21    LPDO1   -0.380000       0.00000          -1   0.00000       0.00000    
     15242 FORA     437      FORA     LPO22    LPDO1   -0.380000       0.00000          -1   0.00000       0.00000    
     15243 FORA     437      FORA     LPO11    LPDO1   -0.380000       0.00000          -1   0.00000       0.00000    
     15244 FORA     437      FORA     LPO12    LPDO1   -0.380000       0.00000          -1   0.00000       0.00000    
     15245 FORA     438      FORA     C        CD2O2A    2.99370       11.6110           0  -1.01600      0.899000    
     15246 FORA     438      FORA     DC       DRUD     -2.47370      0.400000           0   0.00000       0.00000    
     15247 FORA     438      FORA     H        HDP1C     0.00000       1.00800           0   0.00000       0.00000    
     15248 FORA     438      FORA     O2       OD2C2A    2.05180       15.5994           0 -0.699000       2.39900    
     15249 FORA     438      FORA     DO2      DRUD     -2.05180      0.400000           0   0.00000       0.00000    
     15250 FORA     438      FORA     O1       OD2C2A    2.05180       15.5994           0 -0.699000       2.39900    
     15251 FORA     438      FORA     DO1      DRUD     -2.05180      0.400000           0   0.00000       0.00000    
     15252 FORA     438      FORA     HO1      DUMH      0.00000       1.00800           0   0.00000       0.00000    
     15253 FORA     438      FORA     LPO21    LPDO1   -0.380000       0.00000          -1   0.00000       0.00000    
     15254 FORA     438      FORA     LPO22    LPDO1   -0.380000       0.00000          -1   0.00000       0.00000    
     15255 FORA     438      FORA     LPO11    LPDO1   -0.380000       0.00000          -1   0.00000       0.00000    
     15256 FORA     438      FORA     LPO12    LPDO1   -0.380000       0.00000          -1   0.00000       0.00000    
     15257 FORA     439      FORA     C        CD2O2A    2.99370       11.6110           0  -1.01600      0.899000    
     15258 FORA     439      FORA     DC       DRUD     -2.47370      0.400000           0   0.00000       0.00000    
     15259 FORA     439      FORA     H        HDP1C     0.00000       1.00800           0   0.00000       0.00000    
     15260 FORA     439      FORA     O2       OD2C2A    2.05180       15.5994           0 -0.699000       2.39900    
     15261 FORA     439      FORA     DO2      DRUD     -2.05180      0.400000           0   0.00000       0.00000    
     15262 FORA     439      FORA     O1       OD2C2A    2.05180       15.5994           0 -0.699000       2.39900    
     15263 FORA     439      FORA     DO1      DRUD     -2.05180      0.400000           0   0.00000       0.00000    
     15264 FORA     439      FORA     HO1      DUMH      0.00000       1.00800           0   0.00000       0.00000    
     15265 FORA     439      FORA     LPO21    LPDO1   -0.380000       0.00000          -1   0.00000       0.00000    
     15266 FORA     439      FORA     LPO22    LPDO1   -0.380000       0.00000          -1   0.00000       0.00000    
     15267 FORA     439      FORA     LPO11    LPDO1   -0.380000       0.00000          -1   0.00000       0.00000    
     15268 FORA     439      FORA     LPO12    LPDO1   -0.380000       0.00000          -1   0.00000       0.00000    
     15269 FORA     440      FORA     C        CD2O2A    2.99370       11.6110           0  -1.01600      0.899000    
     15270 FORA     440      FORA     DC       DRUD     -2.47370      0.400000           0   0.00000       0.00000    
     15271 FORA     440      FORA     H        HDP1C     0.00000       1.00800           0   0.00000       0.00000    
     15272 FORA     440      FORA     O2       OD2C2A    2.05180       15.5994           0 -0.699000       2.39900    
     15273 FORA     440      FORA     DO2      DRUD     -2.05180      0.400000           0   0.00000       0.00000    
     15274 FORA     440      FORA     O1       OD2C2A    2.05180       15.5994           0 -0.699000       2.39900    
     15275 FORA     440      FORA     DO1      DRUD     -2.05180      0.400000           0   0.00000       0.00000    
     15276 FORA     440      FORA     HO1      DUMH      0.00000       1.00800           0   0.00000       0.00000    
     15277 FORA     440      FORA     LPO21    LPDO1   -0.380000       0.00000          -1   0.00000       0.00000    
     15278 FORA     440      FORA     LPO22    LPDO1   -0.380000       0.00000          -1   0.00000       0.00000    
     15279 FORA     440      FORA     LPO11    LPDO1   -0.380000       0.00000          -1   0.00000       0.00000    
     15280 FORA     440      FORA     LPO12    LPDO1   -0.380000       0.00000          -1   0.00000       0.00000    
     15281 FORA     441      FORA     C        CD2O2A    2.99370       11.6110           0  -1.01600      0.899000    
     15282 FORA     441      FORA     DC       DRUD     -2.47370      0.400000           0   0.00000       0.00000    
     15283 FORA     441      FORA     H        HDP1C     0.00000       1.00800           0   0.00000       0.00000    
     15284 FORA     441      FORA     O2       OD2C2A    2.05180       15.5994           0 -0.699000       2.39900    
     15285 FORA     441      FORA     DO2      DRUD     -2.05180      0.400000           0   0.00000       0.00000    
     15286 FORA     441      FORA     O1       OD2C2A    2.05180       15.5994           0 -0.699000       2.39900    
     15287 FORA     441      FORA     DO1      DRUD     -2.05180      0.400000           0   0.00000       0.00000    
     15288 FORA     441      FORA     HO1      DUMH      0.00000       1.00800           0   0.00000       0.00000    
     15289 FORA     441      FORA     LPO21    LPDO1   -0.380000       0.00000          -1   0.00000       0.00000    
     15290 FORA     441      FORA     LPO22    LPDO1   -0.380000       0.00000          -1   0.00000       0.00000    
     15291 FORA     441      FORA     LPO11    LPDO1   -0.380000       0.00000          -1   0.00000       0.00000    
     15292 FORA     441      FORA     LPO12    LPDO1   -0.380000       0.00000          -1   0.00000       0.00000    
     15293 FORA     442      FORA     C        CD2O2A    2.99370       11.6110           0  -1.01600      0.899000    
     15294 FORA     442      FORA     DC       DRUD     -2.47370      0.400000           0   0.00000       0.00000    
     15295 FORA     442      FORA     H        HDP1C     0.00000       1.00800           0   0.00000       0.00000    
     15296 FORA     442      FORA     O2       OD2C2A    2.05180       15.5994           0 -0.699000       2.39900    
     15297 FORA     442      FORA     DO2      DRUD     -2.05180      0.400000           0   0.00000       0.00000    
     15298 FORA     442      FORA     O1       OD2C2A    2.05180       15.5994           0 -0.699000       2.39900    
     15299 FORA     442      FORA     DO1      DRUD     -2.05180      0.400000           0   0.00000       0.00000    
     15300 FORA     442      FORA     HO1      DUMH      0.00000       1.00800           0   0.00000       0.00000    
     15301 FORA     442      FORA     LPO21    LPDO1   -0.380000       0.00000          -1   0.00000       0.00000    
     15302 FORA     442      FORA     LPO22    LPDO1   -0.380000       0.00000          -1   0.00000       0.00000    
     15303 FORA     442      FORA     LPO11    LPDO1   -0.380000       0.00000          -1   0.00000       0.00000    
     15304 FORA     442      FORA     LPO12    LPDO1   -0.380000       0.00000          -1   0.00000       0.00000    
     15305 FORA     443      FORA     C        CD2O2A    2.99370       11.6110           0  -1.01600      0.899000    
     15306 FORA     443      FORA     DC       DRUD     -2.47370      0.400000           0   0.00000       0.00000    
     15307 FORA     443      FORA     H        HDP1C     0.00000       1.00800           0   0.00000       0.00000    
     15308 FORA     443      FORA     O2       OD2C2A    2.05180       15.5994           0 -0.699000       2.39900    
     15309 FORA     443      FORA     DO2      DRUD     -2.05180      0.400000           0   0.00000       0.00000    
     15310 FORA     443      FORA     O1       OD2C2A    2.05180       15.5994           0 -0.699000       2.39900    
     15311 FORA     443      FORA     DO1      DRUD     -2.05180      0.400000           0   0.00000       0.00000    
     15312 FORA     443      FORA     HO1      DUMH      0.00000       1.00800           0   0.00000       0.00000    
     15313 FORA     443      FORA     LPO21    LPDO1   -0.380000       0.00000          -1   0.00000       0.00000    
     15314 FORA     443      FORA     LPO22    LPDO1   -0.380000       0.00000          -1   0.00000       0.00000    
     15315 FORA     443      FORA     LPO11    LPDO1   -0.380000       0.00000          -1   0.00000       0.00000    
     15316 FORA     443      FORA     LPO12    LPDO1   -0.380000       0.00000          -1   0.00000       0.00000    
     15317 FORA     444      FORA     C        CD2O2A    2.99370       11.6110           0  -1.01600      0.899000    
     15318 FORA     444      FORA     DC       DRUD     -2.47370      0.400000           0   0.00000       0.00000    
     15319 FORA     444      FORA     H        HDP1C     0.00000       1.00800           0   0.00000       0.00000    
     15320 FORA     444      FORA     O2       OD2C2A    2.05180       15.5994           0 -0.699000       2.39900    
     15321 FORA     444      FORA     DO2      DRUD     -2.05180      0.400000           0   0.00000       0.00000    
     15322 FORA     444      FORA     O1       OD2C2A    2.05180       15.5994           0 -0.699000       2.39900    
     15323 FORA     444      FORA     DO1      DRUD     -2.05180      0.400000           0   0.00000       0.00000    
     15324 FORA     444      FORA     HO1      DUMH      0.00000       1.00800           0   0.00000       0.00000    
     15325 FORA     444      FORA     LPO21    LPDO1   -0.380000       0.00000          -1   0.00000       0.00000    
     15326 FORA     444      FORA     LPO22    LPDO1   -0.380000       0.00000          -1   0.00000       0.00000    
     15327 FORA     444      FORA     LPO11    LPDO1   -0.380000       0.00000          -1   0.00000       0.00000    
     15328 FORA     444      FORA     LPO12    LPDO1   -0.380000       0.00000          -1   0.00000       0.00000    
     15329 FORA     445      FORA     C        CD2O2A    2.99370       11.6110           0  -1.01600      0.899000    
     15330 FORA     445      FORA     DC       DRUD     -2.47370      0.400000           0   0.00000       0.00000    
     15331 FORA     445      FORA     H        HDP1C     0.00000       1.00800           0   0.00000       0.00000    
     15332 FORA     445      FORA     O2       OD2C2A    2.05180       15.5994           0 -0.699000       2.39900    
     15333 FORA     445      FORA     DO2      DRUD     -2.05180      0.400000           0   0.00000       0.00000    
     15334 FORA     445      FORA     O1       OD2C2A    2.05180       15.5994           0 -0.699000       2.39900    
     15335 FORA     445      FORA     DO1      DRUD     -2.05180      0.400000           0   0.00000       0.00000    
     15336 FORA     445      FORA     HO1      DUMH      0.00000       1.00800           0   0.00000       0.00000    
     15337 FORA     445      FORA     LPO21    LPDO1   -0.380000       0.00000          -1   0.00000       0.00000    
     15338 FORA     445      FORA     LPO22    LPDO1   -0.380000       0.00000          -1   0.00000       0.00000    
     15339 FORA     445      FORA     LPO11    LPDO1   -0.380000       0.00000          -1   0.00000       0.00000    
     15340 FORA     445      FORA     LPO12    LPDO1   -0.380000       0.00000          -1   0.00000       0.00000    
     15341 FORA     446      FORA     C        CD2O2A    2.99370       11.6110           0  -1.01600      0.899000    
     15342 FORA     446      FORA     DC       DRUD     -2.47370      0.400000           0   0.00000       0.00000    
     15343 FORA     446      FORA     H        HDP1C     0.00000       1.00800           0   0.00000       0.00000    
     15344 FORA     446      FORA     O2       OD2C2A    2.05180       15.5994           0 -0.699000       2.39900    
     15345 FORA     446      FORA     DO2      DRUD     -2.05180      0.400000           0   0.00000       0.00000    
     15346 FORA     446      FORA     O1       OD2C2A    2.05180       15.5994           0 -0.699000       2.39900    
     15347 FORA     446      FORA     DO1      DRUD     -2.05180      0.400000           0   0.00000       0.00000    
     15348 FORA     446      FORA     HO1      DUMH      0.00000       1.00800           0   0.00000       0.00000    
     15349 FORA     446      FORA     LPO21    LPDO1   -0.380000       0.00000          -1   0.00000       0.00000    
     15350 FORA     446      FORA     LPO22    LPDO1   -0.380000       0.00000          -1   0.00000       0.00000    
     15351 FORA     446      FORA     LPO11    LPDO1   -0.380000       0.00000          -1   0.00000       0.00000    
     15352 FORA     446      FORA     LPO12    LPDO1   -0.380000       0.00000          -1   0.00000       0.00000    
     15353 FORA     447      FORA     C        CD2O2A    2.99370       11.6110           0  -1.01600      0.899000    
     15354 FORA     447      FORA     DC       DRUD     -2.47370      0.400000           0   0.00000       0.00000    
     15355 FORA     447      FORA     H        HDP1C     0.00000       1.00800           0   0.00000       0.00000    
     15356 FORA     447      FORA     O2       OD2C2A    2.05180       15.5994           0 -0.699000       2.39900    
     15357 FORA     447      FORA     DO2      DRUD     -2.05180      0.400000           0   0.00000       0.00000    
     15358 FORA     447      FORA     O1       OD2C2A    2.05180       15.5994           0 -0.699000       2.39900    
     15359 FORA     447      FORA     DO1      DRUD     -2.05180      0.400000           0   0.00000       0.00000    
     15360 FORA     447      FORA     HO1      DUMH      0.00000       1.00800           0   0.00000       0.00000    
     15361 FORA     447      FORA     LPO21    LPDO1   -0.380000       0.00000          -1   0.00000       0.00000    
     15362 FORA     447      FORA     LPO22    LPDO1   -0.380000       0.00000          -1   0.00000       0.00000    
     15363 FORA     447      FORA     LPO11    LPDO1   -0.380000       0.00000          -1   0.00000       0.00000    
     15364 FORA     447      FORA     LPO12    LPDO1   -0.380000       0.00000          -1   0.00000       0.00000    
     15365 FORA     448      FORA     C        CD2O2A    2.99370       11.6110           0  -1.01600      0.899000    
     15366 FORA     448      FORA     DC       DRUD     -2.47370      0.400000           0   0.00000       0.00000    
     15367 FORA     448      FORA     H        HDP1C     0.00000       1.00800           0   0.00000       0.00000    
     15368 FORA     448      FORA     O2       OD2C2A    2.05180       15.5994           0 -0.699000       2.39900    
     15369 FORA     448      FORA     DO2      DRUD     -2.05180      0.400000           0   0.00000       0.00000    
     15370 FORA     448      FORA     O1       OD2C2A    2.05180       15.5994           0 -0.699000       2.39900    
     15371 FORA     448      FORA     DO1      DRUD     -2.05180      0.400000           0   0.00000       0.00000    
     15372 FORA     448      FORA     HO1      DUMH      0.00000       1.00800           0   0.00000       0.00000    
     15373 FORA     448      FORA     LPO21    LPDO1   -0.380000       0.00000          -1   0.00000       0.00000    
     15374 FORA     448      FORA     LPO22    LPDO1   -0.380000       0.00000          -1   0.00000       0.00000    
     15375 FORA     448      FORA     LPO11    LPDO1   -0.380000       0.00000          -1   0.00000       0.00000    
     15376 FORA     448      FORA     LPO12    LPDO1   -0.380000       0.00000          -1   0.00000       0.00000    
     15377 FORA     449      FORA     C        CD2O2A    2.99370       11.6110           0  -1.01600      0.899000    
     15378 FORA     449      FORA     DC       DRUD     -2.47370      0.400000           0   0.00000       0.00000    
     15379 FORA     449      FORA     H        HDP1C     0.00000       1.00800           0   0.00000       0.00000    
     15380 FORA     449      FORA     O2       OD2C2A    2.05180       15.5994           0 -0.699000       2.39900    
     15381 FORA     449      FORA     DO2      DRUD     -2.05180      0.400000           0   0.00000       0.00000    
     15382 FORA     449      FORA     O1       OD2C2A    2.05180       15.5994           0 -0.699000       2.39900    
     15383 FORA     449      FORA     DO1      DRUD     -2.05180      0.400000           0   0.00000       0.00000    
     15384 FORA     449      FORA     HO1      DUMH      0.00000       1.00800           0   0.00000       0.00000    
     15385 FORA     449      FORA     LPO21    LPDO1   -0.380000       0.00000          -1   0.00000       0.00000    
     15386 FORA     449      FORA     LPO22    LPDO1   -0.380000       0.00000          -1   0.00000       0.00000    
     15387 FORA     449      FORA     LPO11    LPDO1   -0.380000       0.00000          -1   0.00000       0.00000    
     15388 FORA     449      FORA     LPO12    LPDO1   -0.380000       0.00000          -1   0.00000       0.00000    
     15389 FORA     450      FORA     C        CD2O2A    2.99370       11.6110           0  -1.01600      0.899000    
     15390 FORA     450      FORA     DC       DRUD     -2.47370      0.400000           0   0.00000       0.00000    
     15391 FORA     450      FORA     H        HDP1C     0.00000       1.00800           0   0.00000       0.00000    
     15392 FORA     450      FORA     O2       OD2C2A    2.05180       15.5994           0 -0.699000       2.39900    
     15393 FORA     450      FORA     DO2      DRUD     -2.05180      0.400000           0   0.00000       0.00000    
     15394 FORA     450      FORA     O1       OD2C2A    2.05180       15.5994           0 -0.699000       2.39900    
     15395 FORA     450      FORA     DO1      DRUD     -2.05180      0.400000           0   0.00000       0.00000    
     15396 FORA     450      FORA     HO1      DUMH      0.00000       1.00800           0   0.00000       0.00000    
     15397 FORA     450      FORA     LPO21    LPDO1   -0.380000       0.00000          -1   0.00000       0.00000    
     15398 FORA     450      FORA     LPO22    LPDO1   -0.380000       0.00000          -1   0.00000       0.00000    
     15399 FORA     450      FORA     LPO11    LPDO1   -0.380000       0.00000          -1   0.00000       0.00000    
     15400 FORA     450      FORA     LPO12    LPDO1   -0.380000       0.00000          -1   0.00000       0.00000    
     15401 FORA     451      FORA     C        CD2O2A    2.99370       11.6110           0  -1.01600      0.899000    
     15402 FORA     451      FORA     DC       DRUD     -2.47370      0.400000           0   0.00000       0.00000    
     15403 FORA     451      FORA     H        HDP1C     0.00000       1.00800           0   0.00000       0.00000    
     15404 FORA     451      FORA     O2       OD2C2A    2.05180       15.5994           0 -0.699000       2.39900    
     15405 FORA     451      FORA     DO2      DRUD     -2.05180      0.400000           0   0.00000       0.00000    
     15406 FORA     451      FORA     O1       OD2C2A    2.05180       15.5994           0 -0.699000       2.39900    
     15407 FORA     451      FORA     DO1      DRUD     -2.05180      0.400000           0   0.00000       0.00000    
     15408 FORA     451      FORA     HO1      DUMH      0.00000       1.00800           0   0.00000       0.00000    
     15409 FORA     451      FORA     LPO21    LPDO1   -0.380000       0.00000          -1   0.00000       0.00000    
     15410 FORA     451      FORA     LPO22    LPDO1   -0.380000       0.00000          -1   0.00000       0.00000    
     15411 FORA     451      FORA     LPO11    LPDO1   -0.380000       0.00000          -1   0.00000       0.00000    
     15412 FORA     451      FORA     LPO12    LPDO1   -0.380000       0.00000          -1   0.00000       0.00000    
     15413 FORA     452      FORA     C        CD2O2A    2.99370       11.6110           0  -1.01600      0.899000    
     15414 FORA     452      FORA     DC       DRUD     -2.47370      0.400000           0   0.00000       0.00000    
     15415 FORA     452      FORA     H        HDP1C     0.00000       1.00800           0   0.00000       0.00000    
     15416 FORA     452      FORA     O2       OD2C2A    2.05180       15.5994           0 -0.699000       2.39900    
     15417 FORA     452      FORA     DO2      DRUD     -2.05180      0.400000           0   0.00000       0.00000    
     15418 FORA     452      FORA     O1       OD2C2A    2.05180       15.5994           0 -0.699000       2.39900    
     15419 FORA     452      FORA     DO1      DRUD     -2.05180      0.400000           0   0.00000       0.00000    
     15420 FORA     452      FORA     HO1      DUMH      0.00000       1.00800           0   0.00000       0.00000    
     15421 FORA     452      FORA     LPO21    LPDO1   -0.380000       0.00000          -1   0.00000       0.00000    
     15422 FORA     452      FORA     LPO22    LPDO1   -0.380000       0.00000          -1   0.00000       0.00000    
     15423 FORA     452      FORA     LPO11    LPDO1   -0.380000       0.00000          -1   0.00000       0.00000    
     15424 FORA     452      FORA     LPO12    LPDO1   -0.380000       0.00000          -1   0.00000       0.00000    
     15425 FORA     453      FORA     C        CD2O2A    2.99370       11.6110           0  -1.01600      0.899000    
     15426 FORA     453      FORA     DC       DRUD     -2.47370      0.400000           0   0.00000       0.00000    
     15427 FORA     453      FORA     H        HDP1C     0.00000       1.00800           0   0.00000       0.00000    
     15428 FORA     453      FORA     O2       OD2C2A    2.05180       15.5994           0 -0.699000       2.39900    
     15429 FORA     453      FORA     DO2      DRUD     -2.05180      0.400000           0   0.00000       0.00000    
     15430 FORA     453      FORA     O1       OD2C2A    2.05180       15.5994           0 -0.699000       2.39900    
     15431 FORA     453      FORA     DO1      DRUD     -2.05180      0.400000           0   0.00000       0.00000    
     15432 FORA     453      FORA     HO1      DUMH      0.00000       1.00800           0   0.00000       0.00000    
     15433 FORA     453      FORA     LPO21    LPDO1   -0.380000       0.00000          -1   0.00000       0.00000    
     15434 FORA     453      FORA     LPO22    LPDO1   -0.380000       0.00000          -1   0.00000       0.00000    
     15435 FORA     453      FORA     LPO11    LPDO1   -0.380000       0.00000          -1   0.00000       0.00000    
     15436 FORA     453      FORA     LPO12    LPDO1   -0.380000       0.00000          -1   0.00000       0.00000    
     15437 FORA     454      FORA     C        CD2O2A    2.99370       11.6110           0  -1.01600      0.899000    
     15438 FORA     454      FORA     DC       DRUD     -2.47370      0.400000           0   0.00000       0.00000    
     15439 FORA     454      FORA     H        HDP1C     0.00000       1.00800           0   0.00000       0.00000    
     15440 FORA     454      FORA     O2       OD2C2A    2.05180       15.5994           0 -0.699000       2.39900    
     15441 FORA     454      FORA     DO2      DRUD     -2.05180      0.400000           0   0.00000       0.00000    
     15442 FORA     454      FORA     O1       OD2C2A    2.05180       15.5994           0 -0.699000       2.39900    
     15443 FORA     454      FORA     DO1      DRUD     -2.05180      0.400000           0   0.00000       0.00000    
     15444 FORA     454      FORA     HO1      DUMH      0.00000       1.00800           0   0.00000       0.00000    
     15445 FORA     454      FORA     LPO21    LPDO1   -0.380000       0.00000          -1   0.00000       0.00000    
     15446 FORA     454      FORA     LPO22    LPDO1   -0.380000       0.00000          -1   0.00000       0.00000    
     15447 FORA     454      FORA     LPO11    LPDO1   -0.380000       0.00000          -1   0.00000       0.00000    
     15448 FORA     454      FORA     LPO12    LPDO1   -0.380000       0.00000          -1   0.00000       0.00000    
     15449 FORA     455      FORA     C        CD2O2A    2.99370       11.6110           0  -1.01600      0.899000    
     15450 FORA     455      FORA     DC       DRUD     -2.47370      0.400000           0   0.00000       0.00000    
     15451 FORA     455      FORA     H        HDP1C     0.00000       1.00800           0   0.00000       0.00000    
     15452 FORA     455      FORA     O2       OD2C2A    2.05180       15.5994           0 -0.699000       2.39900    
     15453 FORA     455      FORA     DO2      DRUD     -2.05180      0.400000           0   0.00000       0.00000    
     15454 FORA     455      FORA     O1       OD2C2A    2.05180       15.5994           0 -0.699000       2.39900    
     15455 FORA     455      FORA     DO1      DRUD     -2.05180      0.400000           0   0.00000       0.00000    
     15456 FORA     455      FORA     HO1      DUMH      0.00000       1.00800           0   0.00000       0.00000    
     15457 FORA     455      FORA     LPO21    LPDO1   -0.380000       0.00000          -1   0.00000       0.00000    
     15458 FORA     455      FORA     LPO22    LPDO1   -0.380000       0.00000          -1   0.00000       0.00000    
     15459 FORA     455      FORA     LPO11    LPDO1   -0.380000       0.00000          -1   0.00000       0.00000    
     15460 FORA     455      FORA     LPO12    LPDO1   -0.380000       0.00000          -1   0.00000       0.00000    
     15461 FORA     456      FORA     C        CD2O2A    2.99370       11.6110           0  -1.01600      0.899000    
     15462 FORA     456      FORA     DC       DRUD     -2.47370      0.400000           0   0.00000       0.00000    
     15463 FORA     456      FORA     H        HDP1C     0.00000       1.00800           0   0.00000       0.00000    
     15464 FORA     456      FORA     O2       OD2C2A    2.05180       15.5994           0 -0.699000       2.39900    
     15465 FORA     456      FORA     DO2      DRUD     -2.05180      0.400000           0   0.00000       0.00000    
     15466 FORA     456      FORA     O1       OD2C2A    2.05180       15.5994           0 -0.699000       2.39900    
     15467 FORA     456      FORA     DO1      DRUD     -2.05180      0.400000           0   0.00000       0.00000    
     15468 FORA     456      FORA     HO1      DUMH      0.00000       1.00800           0   0.00000       0.00000    
     15469 FORA     456      FORA     LPO21    LPDO1   -0.380000       0.00000          -1   0.00000       0.00000    
     15470 FORA     456      FORA     LPO22    LPDO1   -0.380000       0.00000          -1   0.00000       0.00000    
     15471 FORA     456      FORA     LPO11    LPDO1   -0.380000       0.00000          -1   0.00000       0.00000    
     15472 FORA     456      FORA     LPO12    LPDO1   -0.380000       0.00000          -1   0.00000       0.00000    
     15473 FORA     457      FORA     C        CD2O2A    2.99370       11.6110           0  -1.01600      0.899000    
     15474 FORA     457      FORA     DC       DRUD     -2.47370      0.400000           0   0.00000       0.00000    
     15475 FORA     457      FORA     H        HDP1C     0.00000       1.00800           0   0.00000       0.00000    
     15476 FORA     457      FORA     O2       OD2C2A    2.05180       15.5994           0 -0.699000       2.39900    
     15477 FORA     457      FORA     DO2      DRUD     -2.05180      0.400000           0   0.00000       0.00000    
     15478 FORA     457      FORA     O1       OD2C2A    2.05180       15.5994           0 -0.699000       2.39900    
     15479 FORA     457      FORA     DO1      DRUD     -2.05180      0.400000           0   0.00000       0.00000    
     15480 FORA     457      FORA     HO1      DUMH      0.00000       1.00800           0   0.00000       0.00000    
     15481 FORA     457      FORA     LPO21    LPDO1   -0.380000       0.00000          -1   0.00000       0.00000    
     15482 FORA     457      FORA     LPO22    LPDO1   -0.380000       0.00000          -1   0.00000       0.00000    
     15483 FORA     457      FORA     LPO11    LPDO1   -0.380000       0.00000          -1   0.00000       0.00000    
     15484 FORA     457      FORA     LPO12    LPDO1   -0.380000       0.00000          -1   0.00000       0.00000    
     15485 FORA     458      FORA     C        CD2O2A    2.99370       11.6110           0  -1.01600      0.899000    
     15486 FORA     458      FORA     DC       DRUD     -2.47370      0.400000           0   0.00000       0.00000    
     15487 FORA     458      FORA     H        HDP1C     0.00000       1.00800           0   0.00000       0.00000    
     15488 FORA     458      FORA     O2       OD2C2A    2.05180       15.5994           0 -0.699000       2.39900    
     15489 FORA     458      FORA     DO2      DRUD     -2.05180      0.400000           0   0.00000       0.00000    
     15490 FORA     458      FORA     O1       OD2C2A    2.05180       15.5994           0 -0.699000       2.39900    
     15491 FORA     458      FORA     DO1      DRUD     -2.05180      0.400000           0   0.00000       0.00000    
     15492 FORA     458      FORA     HO1      DUMH      0.00000       1.00800           0   0.00000       0.00000    
     15493 FORA     458      FORA     LPO21    LPDO1   -0.380000       0.00000          -1   0.00000       0.00000    
     15494 FORA     458      FORA     LPO22    LPDO1   -0.380000       0.00000          -1   0.00000       0.00000    
     15495 FORA     458      FORA     LPO11    LPDO1   -0.380000       0.00000          -1   0.00000       0.00000    
     15496 FORA     458      FORA     LPO12    LPDO1   -0.380000       0.00000          -1   0.00000       0.00000    
     15497 FORA     459      FORA     C        CD2O2A    2.99370       11.6110           0  -1.01600      0.899000    
     15498 FORA     459      FORA     DC       DRUD     -2.47370      0.400000           0   0.00000       0.00000    
     15499 FORA     459      FORA     H        HDP1C     0.00000       1.00800           0   0.00000       0.00000    
     15500 FORA     459      FORA     O2       OD2C2A    2.05180       15.5994           0 -0.699000       2.39900    
     15501 FORA     459      FORA     DO2      DRUD     -2.05180      0.400000           0   0.00000       0.00000    
     15502 FORA     459      FORA     O1       OD2C2A    2.05180       15.5994           0 -0.699000       2.39900    
     15503 FORA     459      FORA     DO1      DRUD     -2.05180      0.400000           0   0.00000       0.00000    
     15504 FORA     459      FORA     HO1      DUMH      0.00000       1.00800           0   0.00000       0.00000    
     15505 FORA     459      FORA     LPO21    LPDO1   -0.380000       0.00000          -1   0.00000       0.00000    
     15506 FORA     459      FORA     LPO22    LPDO1   -0.380000       0.00000          -1   0.00000       0.00000    
     15507 FORA     459      FORA     LPO11    LPDO1   -0.380000       0.00000          -1   0.00000       0.00000    
     15508 FORA     459      FORA     LPO12    LPDO1   -0.380000       0.00000          -1   0.00000       0.00000    
     15509 FORA     460      FORA     C        CD2O2A    2.99370       11.6110           0  -1.01600      0.899000    
     15510 FORA     460      FORA     DC       DRUD     -2.47370      0.400000           0   0.00000       0.00000    
     15511 FORA     460      FORA     H        HDP1C     0.00000       1.00800           0   0.00000       0.00000    
     15512 FORA     460      FORA     O2       OD2C2A    2.05180       15.5994           0 -0.699000       2.39900    
     15513 FORA     460      FORA     DO2      DRUD     -2.05180      0.400000           0   0.00000       0.00000    
     15514 FORA     460      FORA     O1       OD2C2A    2.05180       15.5994           0 -0.699000       2.39900    
     15515 FORA     460      FORA     DO1      DRUD     -2.05180      0.400000           0   0.00000       0.00000    
     15516 FORA     460      FORA     HO1      DUMH      0.00000       1.00800           0   0.00000       0.00000    
     15517 FORA     460      FORA     LPO21    LPDO1   -0.380000       0.00000          -1   0.00000       0.00000    
     15518 FORA     460      FORA     LPO22    LPDO1   -0.380000       0.00000          -1   0.00000       0.00000    
     15519 FORA     460      FORA     LPO11    LPDO1   -0.380000       0.00000          -1   0.00000       0.00000    
     15520 FORA     460      FORA     LPO12    LPDO1   -0.380000       0.00000          -1   0.00000       0.00000    
     15521 FORA     461      FORA     C        CD2O2A    2.99370       11.6110           0  -1.01600      0.899000    
     15522 FORA     461      FORA     DC       DRUD     -2.47370      0.400000           0   0.00000       0.00000    
     15523 FORA     461      FORA     H        HDP1C     0.00000       1.00800           0   0.00000       0.00000    
     15524 FORA     461      FORA     O2       OD2C2A    2.05180       15.5994           0 -0.699000       2.39900    
     15525 FORA     461      FORA     DO2      DRUD     -2.05180      0.400000           0   0.00000       0.00000    
     15526 FORA     461      FORA     O1       OD2C2A    2.05180       15.5994           0 -0.699000       2.39900    
     15527 FORA     461      FORA     DO1      DRUD     -2.05180      0.400000           0   0.00000       0.00000    
     15528 FORA     461      FORA     HO1      DUMH      0.00000       1.00800           0   0.00000       0.00000    
     15529 FORA     461      FORA     LPO21    LPDO1   -0.380000       0.00000          -1   0.00000       0.00000    
     15530 FORA     461      FORA     LPO22    LPDO1   -0.380000       0.00000          -1   0.00000       0.00000    
     15531 FORA     461      FORA     LPO11    LPDO1   -0.380000       0.00000          -1   0.00000       0.00000    
     15532 FORA     461      FORA     LPO12    LPDO1   -0.380000       0.00000          -1   0.00000       0.00000    
     15533 FORA     462      FORA     C        CD2O2A    2.99370       11.6110           0  -1.01600      0.899000    
     15534 FORA     462      FORA     DC       DRUD     -2.47370      0.400000           0   0.00000       0.00000    
     15535 FORA     462      FORA     H        HDP1C     0.00000       1.00800           0   0.00000       0.00000    
     15536 FORA     462      FORA     O2       OD2C2A    2.05180       15.5994           0 -0.699000       2.39900    
     15537 FORA     462      FORA     DO2      DRUD     -2.05180      0.400000           0   0.00000       0.00000    
     15538 FORA     462      FORA     O1       OD2C2A    2.05180       15.5994           0 -0.699000       2.39900    
     15539 FORA     462      FORA     DO1      DRUD     -2.05180      0.400000           0   0.00000       0.00000    
     15540 FORA     462      FORA     HO1      DUMH      0.00000       1.00800           0   0.00000       0.00000    
     15541 FORA     462      FORA     LPO21    LPDO1   -0.380000       0.00000          -1   0.00000       0.00000    
     15542 FORA     462      FORA     LPO22    LPDO1   -0.380000       0.00000          -1   0.00000       0.00000    
     15543 FORA     462      FORA     LPO11    LPDO1   -0.380000       0.00000          -1   0.00000       0.00000    
     15544 FORA     462      FORA     LPO12    LPDO1   -0.380000       0.00000          -1   0.00000       0.00000    
     15545 FORA     463      FORA     C        CD2O2A    2.99370       11.6110           0  -1.01600      0.899000    
     15546 FORA     463      FORA     DC       DRUD     -2.47370      0.400000           0   0.00000       0.00000    
     15547 FORA     463      FORA     H        HDP1C     0.00000       1.00800           0   0.00000       0.00000    
     15548 FORA     463      FORA     O2       OD2C2A    2.05180       15.5994           0 -0.699000       2.39900    
     15549 FORA     463      FORA     DO2      DRUD     -2.05180      0.400000           0   0.00000       0.00000    
     15550 FORA     463      FORA     O1       OD2C2A    2.05180       15.5994           0 -0.699000       2.39900    
     15551 FORA     463      FORA     DO1      DRUD     -2.05180      0.400000           0   0.00000       0.00000    
     15552 FORA     463      FORA     HO1      DUMH      0.00000       1.00800           0   0.00000       0.00000    
     15553 FORA     463      FORA     LPO21    LPDO1   -0.380000       0.00000          -1   0.00000       0.00000    
     15554 FORA     463      FORA     LPO22    LPDO1   -0.380000       0.00000          -1   0.00000       0.00000    
     15555 FORA     463      FORA     LPO11    LPDO1   -0.380000       0.00000          -1   0.00000       0.00000    
     15556 FORA     463      FORA     LPO12    LPDO1   -0.380000       0.00000          -1   0.00000       0.00000    
     15557 FORA     464      FORA     C        CD2O2A    2.99370       11.6110           0  -1.01600      0.899000    
     15558 FORA     464      FORA     DC       DRUD     -2.47370      0.400000           0   0.00000       0.00000    
     15559 FORA     464      FORA     H        HDP1C     0.00000       1.00800           0   0.00000       0.00000    
     15560 FORA     464      FORA     O2       OD2C2A    2.05180       15.5994           0 -0.699000       2.39900    
     15561 FORA     464      FORA     DO2      DRUD     -2.05180      0.400000           0   0.00000       0.00000    
     15562 FORA     464      FORA     O1       OD2C2A    2.05180       15.5994           0 -0.699000       2.39900    
     15563 FORA     464      FORA     DO1      DRUD     -2.05180      0.400000           0   0.00000       0.00000    
     15564 FORA     464      FORA     HO1      DUMH      0.00000       1.00800           0   0.00000       0.00000    
     15565 FORA     464      FORA     LPO21    LPDO1   -0.380000       0.00000          -1   0.00000       0.00000    
     15566 FORA     464      FORA     LPO22    LPDO1   -0.380000       0.00000          -1   0.00000       0.00000    
     15567 FORA     464      FORA     LPO11    LPDO1   -0.380000       0.00000          -1   0.00000       0.00000    
     15568 FORA     464      FORA     LPO12    LPDO1   -0.380000       0.00000          -1   0.00000       0.00000    
     15569 FORA     465      FORA     C        CD2O2A    2.99370       11.6110           0  -1.01600      0.899000    
     15570 FORA     465      FORA     DC       DRUD     -2.47370      0.400000           0   0.00000       0.00000    
     15571 FORA     465      FORA     H        HDP1C     0.00000       1.00800           0   0.00000       0.00000    
     15572 FORA     465      FORA     O2       OD2C2A    2.05180       15.5994           0 -0.699000       2.39900    
     15573 FORA     465      FORA     DO2      DRUD     -2.05180      0.400000           0   0.00000       0.00000    
     15574 FORA     465      FORA     O1       OD2C2A    2.05180       15.5994           0 -0.699000       2.39900    
     15575 FORA     465      FORA     DO1      DRUD     -2.05180      0.400000           0   0.00000       0.00000    
     15576 FORA     465      FORA     HO1      DUMH      0.00000       1.00800           0   0.00000       0.00000    
     15577 FORA     465      FORA     LPO21    LPDO1   -0.380000       0.00000          -1   0.00000       0.00000    
     15578 FORA     465      FORA     LPO22    LPDO1   -0.380000       0.00000          -1   0.00000       0.00000    
     15579 FORA     465      FORA     LPO11    LPDO1   -0.380000       0.00000          -1   0.00000       0.00000    
     15580 FORA     465      FORA     LPO12    LPDO1   -0.380000       0.00000          -1   0.00000       0.00000    
     15581 FORA     466      FORA     C        CD2O2A    2.99370       11.6110           0  -1.01600      0.899000    
     15582 FORA     466      FORA     DC       DRUD     -2.47370      0.400000           0   0.00000       0.00000    
     15583 FORA     466      FORA     H        HDP1C     0.00000       1.00800           0   0.00000       0.00000    
     15584 FORA     466      FORA     O2       OD2C2A    2.05180       15.5994           0 -0.699000       2.39900    
     15585 FORA     466      FORA     DO2      DRUD     -2.05180      0.400000           0   0.00000       0.00000    
     15586 FORA     466      FORA     O1       OD2C2A    2.05180       15.5994           0 -0.699000       2.39900    
     15587 FORA     466      FORA     DO1      DRUD     -2.05180      0.400000           0   0.00000       0.00000    
     15588 FORA     466      FORA     HO1      DUMH      0.00000       1.00800           0   0.00000       0.00000    
     15589 FORA     466      FORA     LPO21    LPDO1   -0.380000       0.00000          -1   0.00000       0.00000    
     15590 FORA     466      FORA     LPO22    LPDO1   -0.380000       0.00000          -1   0.00000       0.00000    
     15591 FORA     466      FORA     LPO11    LPDO1   -0.380000       0.00000          -1   0.00000       0.00000    
     15592 FORA     466      FORA     LPO12    LPDO1   -0.380000       0.00000          -1   0.00000       0.00000    
     15593 FORA     467      FORA     C        CD2O2A    2.99370       11.6110           0  -1.01600      0.899000    
     15594 FORA     467      FORA     DC       DRUD     -2.47370      0.400000           0   0.00000       0.00000    
     15595 FORA     467      FORA     H        HDP1C     0.00000       1.00800           0   0.00000       0.00000    
     15596 FORA     467      FORA     O2       OD2C2A    2.05180       15.5994           0 -0.699000       2.39900    
     15597 FORA     467      FORA     DO2      DRUD     -2.05180      0.400000           0   0.00000       0.00000    
     15598 FORA     467      FORA     O1       OD2C2A    2.05180       15.5994           0 -0.699000       2.39900    
     15599 FORA     467      FORA     DO1      DRUD     -2.05180      0.400000           0   0.00000       0.00000    
     15600 FORA     467      FORA     HO1      DUMH      0.00000       1.00800           0   0.00000       0.00000    
     15601 FORA     467      FORA     LPO21    LPDO1   -0.380000       0.00000          -1   0.00000       0.00000    
     15602 FORA     467      FORA     LPO22    LPDO1   -0.380000       0.00000          -1   0.00000       0.00000    
     15603 FORA     467      FORA     LPO11    LPDO1   -0.380000       0.00000          -1   0.00000       0.00000    
     15604 FORA     467      FORA     LPO12    LPDO1   -0.380000       0.00000          -1   0.00000       0.00000    
     15605 FORA     468      FORA     C        CD2O2A    2.99370       11.6110           0  -1.01600      0.899000    
     15606 FORA     468      FORA     DC       DRUD     -2.47370      0.400000           0   0.00000       0.00000    
     15607 FORA     468      FORA     H        HDP1C     0.00000       1.00800           0   0.00000       0.00000    
     15608 FORA     468      FORA     O2       OD2C2A    2.05180       15.5994           0 -0.699000       2.39900    
     15609 FORA     468      FORA     DO2      DRUD     -2.05180      0.400000           0   0.00000       0.00000    
     15610 FORA     468      FORA     O1       OD2C2A    2.05180       15.5994           0 -0.699000       2.39900    
     15611 FORA     468      FORA     DO1      DRUD     -2.05180      0.400000           0   0.00000       0.00000    
     15612 FORA     468      FORA     HO1      DUMH      0.00000       1.00800           0   0.00000       0.00000    
     15613 FORA     468      FORA     LPO21    LPDO1   -0.380000       0.00000          -1   0.00000       0.00000    
     15614 FORA     468      FORA     LPO22    LPDO1   -0.380000       0.00000          -1   0.00000       0.00000    
     15615 FORA     468      FORA     LPO11    LPDO1   -0.380000       0.00000          -1   0.00000       0.00000    
     15616 FORA     468      FORA     LPO12    LPDO1   -0.380000       0.00000          -1   0.00000       0.00000    
     15617 FORA     469      FORA     C        CD2O2A    2.99370       11.6110           0  -1.01600      0.899000    
     15618 FORA     469      FORA     DC       DRUD     -2.47370      0.400000           0   0.00000       0.00000    
     15619 FORA     469      FORA     H        HDP1C     0.00000       1.00800           0   0.00000       0.00000    
     15620 FORA     469      FORA     O2       OD2C2A    2.05180       15.5994           0 -0.699000       2.39900    
     15621 FORA     469      FORA     DO2      DRUD     -2.05180      0.400000           0   0.00000       0.00000    
     15622 FORA     469      FORA     O1       OD2C2A    2.05180       15.5994           0 -0.699000       2.39900    
     15623 FORA     469      FORA     DO1      DRUD     -2.05180      0.400000           0   0.00000       0.00000    
     15624 FORA     469      FORA     HO1      DUMH      0.00000       1.00800           0   0.00000       0.00000    
     15625 FORA     469      FORA     LPO21    LPDO1   -0.380000       0.00000          -1   0.00000       0.00000    
     15626 FORA     469      FORA     LPO22    LPDO1   -0.380000       0.00000          -1   0.00000       0.00000    
     15627 FORA     469      FORA     LPO11    LPDO1   -0.380000       0.00000          -1   0.00000       0.00000    
     15628 FORA     469      FORA     LPO12    LPDO1   -0.380000       0.00000          -1   0.00000       0.00000    
     15629 FORA     470      FORA     C        CD2O2A    2.99370       11.6110           0  -1.01600      0.899000    
     15630 FORA     470      FORA     DC       DRUD     -2.47370      0.400000           0   0.00000       0.00000    
     15631 FORA     470      FORA     H        HDP1C     0.00000       1.00800           0   0.00000       0.00000    
     15632 FORA     470      FORA     O2       OD2C2A    2.05180       15.5994           0 -0.699000       2.39900    
     15633 FORA     470      FORA     DO2      DRUD     -2.05180      0.400000           0   0.00000       0.00000    
     15634 FORA     470      FORA     O1       OD2C2A    2.05180       15.5994           0 -0.699000       2.39900    
     15635 FORA     470      FORA     DO1      DRUD     -2.05180      0.400000           0   0.00000       0.00000    
     15636 FORA     470      FORA     HO1      DUMH      0.00000       1.00800           0   0.00000       0.00000    
     15637 FORA     470      FORA     LPO21    LPDO1   -0.380000       0.00000          -1   0.00000       0.00000    
     15638 FORA     470      FORA     LPO22    LPDO1   -0.380000       0.00000          -1   0.00000       0.00000    
     15639 FORA     470      FORA     LPO11    LPDO1   -0.380000       0.00000          -1   0.00000       0.00000    
     15640 FORA     470      FORA     LPO12    LPDO1   -0.380000       0.00000          -1   0.00000       0.00000    
     15641 FORA     471      FORA     C        CD2O2A    2.99370       11.6110           0  -1.01600      0.899000    
     15642 FORA     471      FORA     DC       DRUD     -2.47370      0.400000           0   0.00000       0.00000    
     15643 FORA     471      FORA     H        HDP1C     0.00000       1.00800           0   0.00000       0.00000    
     15644 FORA     471      FORA     O2       OD2C2A    2.05180       15.5994           0 -0.699000       2.39900    
     15645 FORA     471      FORA     DO2      DRUD     -2.05180      0.400000           0   0.00000       0.00000    
     15646 FORA     471      FORA     O1       OD2C2A    2.05180       15.5994           0 -0.699000       2.39900    
     15647 FORA     471      FORA     DO1      DRUD     -2.05180      0.400000           0   0.00000       0.00000    
     15648 FORA     471      FORA     HO1      DUMH      0.00000       1.00800           0   0.00000       0.00000    
     15649 FORA     471      FORA     LPO21    LPDO1   -0.380000       0.00000          -1   0.00000       0.00000    
     15650 FORA     471      FORA     LPO22    LPDO1   -0.380000       0.00000          -1   0.00000       0.00000    
     15651 FORA     471      FORA     LPO11    LPDO1   -0.380000       0.00000          -1   0.00000       0.00000    
     15652 FORA     471      FORA     LPO12    LPDO1   -0.380000       0.00000          -1   0.00000       0.00000    
     15653 FORA     472      FORA     C        CD2O2A    2.99370       11.6110           0  -1.01600      0.899000    
     15654 FORA     472      FORA     DC       DRUD     -2.47370      0.400000           0   0.00000       0.00000    
     15655 FORA     472      FORA     H        HDP1C     0.00000       1.00800           0   0.00000       0.00000    
     15656 FORA     472      FORA     O2       OD2C2A    2.05180       15.5994           0 -0.699000       2.39900    
     15657 FORA     472      FORA     DO2      DRUD     -2.05180      0.400000           0   0.00000       0.00000    
     15658 FORA     472      FORA     O1       OD2C2A    2.05180       15.5994           0 -0.699000       2.39900    
     15659 FORA     472      FORA     DO1      DRUD     -2.05180      0.400000           0   0.00000       0.00000    
     15660 FORA     472      FORA     HO1      DUMH      0.00000       1.00800           0   0.00000       0.00000    
     15661 FORA     472      FORA     LPO21    LPDO1   -0.380000       0.00000          -1   0.00000       0.00000    
     15662 FORA     472      FORA     LPO22    LPDO1   -0.380000       0.00000          -1   0.00000       0.00000    
     15663 FORA     472      FORA     LPO11    LPDO1   -0.380000       0.00000          -1   0.00000       0.00000    
     15664 FORA     472      FORA     LPO12    LPDO1   -0.380000       0.00000          -1   0.00000       0.00000    
     15665 FORA     473      FORA     C        CD2O2A    2.99370       11.6110           0  -1.01600      0.899000    
     15666 FORA     473      FORA     DC       DRUD     -2.47370      0.400000           0   0.00000       0.00000    
     15667 FORA     473      FORA     H        HDP1C     0.00000       1.00800           0   0.00000       0.00000    
     15668 FORA     473      FORA     O2       OD2C2A    2.05180       15.5994           0 -0.699000       2.39900    
     15669 FORA     473      FORA     DO2      DRUD     -2.05180      0.400000           0   0.00000       0.00000    
     15670 FORA     473      FORA     O1       OD2C2A    2.05180       15.5994           0 -0.699000       2.39900    
     15671 FORA     473      FORA     DO1      DRUD     -2.05180      0.400000           0   0.00000       0.00000    
     15672 FORA     473      FORA     HO1      DUMH      0.00000       1.00800           0   0.00000       0.00000    
     15673 FORA     473      FORA     LPO21    LPDO1   -0.380000       0.00000          -1   0.00000       0.00000    
     15674 FORA     473      FORA     LPO22    LPDO1   -0.380000       0.00000          -1   0.00000       0.00000    
     15675 FORA     473      FORA     LPO11    LPDO1   -0.380000       0.00000          -1   0.00000       0.00000    
     15676 FORA     473      FORA     LPO12    LPDO1   -0.380000       0.00000          -1   0.00000       0.00000    
     15677 FORA     474      FORA     C        CD2O2A    2.99370       11.6110           0  -1.01600      0.899000    
     15678 FORA     474      FORA     DC       DRUD     -2.47370      0.400000           0   0.00000       0.00000    
     15679 FORA     474      FORA     H        HDP1C     0.00000       1.00800           0   0.00000       0.00000    
     15680 FORA     474      FORA     O2       OD2C2A    2.05180       15.5994           0 -0.699000       2.39900    
     15681 FORA     474      FORA     DO2      DRUD     -2.05180      0.400000           0   0.00000       0.00000    
     15682 FORA     474      FORA     O1       OD2C2A    2.05180       15.5994           0 -0.699000       2.39900    
     15683 FORA     474      FORA     DO1      DRUD     -2.05180      0.400000           0   0.00000       0.00000    
     15684 FORA     474      FORA     HO1      DUMH      0.00000       1.00800           0   0.00000       0.00000    
     15685 FORA     474      FORA     LPO21    LPDO1   -0.380000       0.00000          -1   0.00000       0.00000    
     15686 FORA     474      FORA     LPO22    LPDO1   -0.380000       0.00000          -1   0.00000       0.00000    
     15687 FORA     474      FORA     LPO11    LPDO1   -0.380000       0.00000          -1   0.00000       0.00000    
     15688 FORA     474      FORA     LPO12    LPDO1   -0.380000       0.00000          -1   0.00000       0.00000    
     15689 FORA     475      FORA     C        CD2O2A    2.99370       11.6110           0  -1.01600      0.899000    
     15690 FORA     475      FORA     DC       DRUD     -2.47370      0.400000           0   0.00000       0.00000    
     15691 FORA     475      FORA     H        HDP1C     0.00000       1.00800           0   0.00000       0.00000    
     15692 FORA     475      FORA     O2       OD2C2A    2.05180       15.5994           0 -0.699000       2.39900    
     15693 FORA     475      FORA     DO2      DRUD     -2.05180      0.400000           0   0.00000       0.00000    
     15694 FORA     475      FORA     O1       OD2C2A    2.05180       15.5994           0 -0.699000       2.39900    
     15695 FORA     475      FORA     DO1      DRUD     -2.05180      0.400000           0   0.00000       0.00000    
     15696 FORA     475      FORA     HO1      DUMH      0.00000       1.00800           0   0.00000       0.00000    
     15697 FORA     475      FORA     LPO21    LPDO1   -0.380000       0.00000          -1   0.00000       0.00000    
     15698 FORA     475      FORA     LPO22    LPDO1   -0.380000       0.00000          -1   0.00000       0.00000    
     15699 FORA     475      FORA     LPO11    LPDO1   -0.380000       0.00000          -1   0.00000       0.00000    
     15700 FORA     475      FORA     LPO12    LPDO1   -0.380000       0.00000          -1   0.00000       0.00000    
     15701 FORA     476      FORA     C        CD2O2A    2.99370       11.6110           0  -1.01600      0.899000    
     15702 FORA     476      FORA     DC       DRUD     -2.47370      0.400000           0   0.00000       0.00000    
     15703 FORA     476      FORA     H        HDP1C     0.00000       1.00800           0   0.00000       0.00000    
     15704 FORA     476      FORA     O2       OD2C2A    2.05180       15.5994           0 -0.699000       2.39900    
     15705 FORA     476      FORA     DO2      DRUD     -2.05180      0.400000           0   0.00000       0.00000    
     15706 FORA     476      FORA     O1       OD2C2A    2.05180       15.5994           0 -0.699000       2.39900    
     15707 FORA     476      FORA     DO1      DRUD     -2.05180      0.400000           0   0.00000       0.00000    
     15708 FORA     476      FORA     HO1      DUMH      0.00000       1.00800           0   0.00000       0.00000    
     15709 FORA     476      FORA     LPO21    LPDO1   -0.380000       0.00000          -1   0.00000       0.00000    
     15710 FORA     476      FORA     LPO22    LPDO1   -0.380000       0.00000          -1   0.00000       0.00000    
     15711 FORA     476      FORA     LPO11    LPDO1   -0.380000       0.00000          -1   0.00000       0.00000    
     15712 FORA     476      FORA     LPO12    LPDO1   -0.380000       0.00000          -1   0.00000       0.00000    
     15713 FORA     477      FORA     C        CD2O2A    2.99370       11.6110           0  -1.01600      0.899000    
     15714 FORA     477      FORA     DC       DRUD     -2.47370      0.400000           0   0.00000       0.00000    
     15715 FORA     477      FORA     H        HDP1C     0.00000       1.00800           0   0.00000       0.00000    
     15716 FORA     477      FORA     O2       OD2C2A    2.05180       15.5994           0 -0.699000       2.39900    
     15717 FORA     477      FORA     DO2      DRUD     -2.05180      0.400000           0   0.00000       0.00000    
     15718 FORA     477      FORA     O1       OD2C2A    2.05180       15.5994           0 -0.699000       2.39900    
     15719 FORA     477      FORA     DO1      DRUD     -2.05180      0.400000           0   0.00000       0.00000    
     15720 FORA     477      FORA     HO1      DUMH      0.00000       1.00800           0   0.00000       0.00000    
     15721 FORA     477      FORA     LPO21    LPDO1   -0.380000       0.00000          -1   0.00000       0.00000    
     15722 FORA     477      FORA     LPO22    LPDO1   -0.380000       0.00000          -1   0.00000       0.00000    
     15723 FORA     477      FORA     LPO11    LPDO1   -0.380000       0.00000          -1   0.00000       0.00000    
     15724 FORA     477      FORA     LPO12    LPDO1   -0.380000       0.00000          -1   0.00000       0.00000    
     15725 FORA     478      FORA     C        CD2O2A    2.99370       11.6110           0  -1.01600      0.899000    
     15726 FORA     478      FORA     DC       DRUD     -2.47370      0.400000           0   0.00000       0.00000    
     15727 FORA     478      FORA     H        HDP1C     0.00000       1.00800           0   0.00000       0.00000    
     15728 FORA     478      FORA     O2       OD2C2A    2.05180       15.5994           0 -0.699000       2.39900    
     15729 FORA     478      FORA     DO2      DRUD     -2.05180      0.400000           0   0.00000       0.00000    
     15730 FORA     478      FORA     O1       OD2C2A    2.05180       15.5994           0 -0.699000       2.39900    
     15731 FORA     478      FORA     DO1      DRUD     -2.05180      0.400000           0   0.00000       0.00000    
     15732 FORA     478      FORA     HO1      DUMH      0.00000       1.00800           0   0.00000       0.00000    
     15733 FORA     478      FORA     LPO21    LPDO1   -0.380000       0.00000          -1   0.00000       0.00000    
     15734 FORA     478      FORA     LPO22    LPDO1   -0.380000       0.00000          -1   0.00000       0.00000    
     15735 FORA     478      FORA     LPO11    LPDO1   -0.380000       0.00000          -1   0.00000       0.00000    
     15736 FORA     478      FORA     LPO12    LPDO1   -0.380000       0.00000          -1   0.00000       0.00000    
     15737 FORA     479      FORA     C        CD2O2A    2.99370       11.6110           0  -1.01600      0.899000    
     15738 FORA     479      FORA     DC       DRUD     -2.47370      0.400000           0   0.00000       0.00000    
     15739 FORA     479      FORA     H        HDP1C     0.00000       1.00800           0   0.00000       0.00000    
     15740 FORA     479      FORA     O2       OD2C2A    2.05180       15.5994           0 -0.699000       2.39900    
     15741 FORA     479      FORA     DO2      DRUD     -2.05180      0.400000           0   0.00000       0.00000    
     15742 FORA     479      FORA     O1       OD2C2A    2.05180       15.5994           0 -0.699000       2.39900    
     15743 FORA     479      FORA     DO1      DRUD     -2.05180      0.400000           0   0.00000       0.00000    
     15744 FORA     479      FORA     HO1      DUMH      0.00000       1.00800           0   0.00000       0.00000    
     15745 FORA     479      FORA     LPO21    LPDO1   -0.380000       0.00000          -1   0.00000       0.00000    
     15746 FORA     479      FORA     LPO22    LPDO1   -0.380000       0.00000          -1   0.00000       0.00000    
     15747 FORA     479      FORA     LPO11    LPDO1   -0.380000       0.00000          -1   0.00000       0.00000    
     15748 FORA     479      FORA     LPO12    LPDO1   -0.380000       0.00000          -1   0.00000       0.00000    
     15749 FORA     480      FORA     C        CD2O2A    2.99370       11.6110           0  -1.01600      0.899000    
     15750 FORA     480      FORA     DC       DRUD     -2.47370      0.400000           0   0.00000       0.00000    
     15751 FORA     480      FORA     H        HDP1C     0.00000       1.00800           0   0.00000       0.00000    
     15752 FORA     480      FORA     O2       OD2C2A    2.05180       15.5994           0 -0.699000       2.39900    
     15753 FORA     480      FORA     DO2      DRUD     -2.05180      0.400000           0   0.00000       0.00000    
     15754 FORA     480      FORA     O1       OD2C2A    2.05180       15.5994           0 -0.699000       2.39900    
     15755 FORA     480      FORA     DO1      DRUD     -2.05180      0.400000           0   0.00000       0.00000    
     15756 FORA     480      FORA     HO1      DUMH      0.00000       1.00800           0   0.00000       0.00000    
     15757 FORA     480      FORA     LPO21    LPDO1   -0.380000       0.00000          -1   0.00000       0.00000    
     15758 FORA     480      FORA     LPO22    LPDO1   -0.380000       0.00000          -1   0.00000       0.00000    
     15759 FORA     480      FORA     LPO11    LPDO1   -0.380000       0.00000          -1   0.00000       0.00000    
     15760 FORA     480      FORA     LPO12    LPDO1   -0.380000       0.00000          -1   0.00000       0.00000    
     15761 FORA     481      FORA     C        CD2O2A    2.99370       11.6110           0  -1.01600      0.899000    
     15762 FORA     481      FORA     DC       DRUD     -2.47370      0.400000           0   0.00000       0.00000    
     15763 FORA     481      FORA     H        HDP1C     0.00000       1.00800           0   0.00000       0.00000    
     15764 FORA     481      FORA     O2       OD2C2A    2.05180       15.5994           0 -0.699000       2.39900    
     15765 FORA     481      FORA     DO2      DRUD     -2.05180      0.400000           0   0.00000       0.00000    
     15766 FORA     481      FORA     O1       OD2C2A    2.05180       15.5994           0 -0.699000       2.39900    
     15767 FORA     481      FORA     DO1      DRUD     -2.05180      0.400000           0   0.00000       0.00000    
     15768 FORA     481      FORA     HO1      DUMH      0.00000       1.00800           0   0.00000       0.00000    
     15769 FORA     481      FORA     LPO21    LPDO1   -0.380000       0.00000          -1   0.00000       0.00000    
     15770 FORA     481      FORA     LPO22    LPDO1   -0.380000       0.00000          -1   0.00000       0.00000    
     15771 FORA     481      FORA     LPO11    LPDO1   -0.380000       0.00000          -1   0.00000       0.00000    
     15772 FORA     481      FORA     LPO12    LPDO1   -0.380000       0.00000          -1   0.00000       0.00000    
     15773 FORA     482      FORA     C        CD2O2A    2.99370       11.6110           0  -1.01600      0.899000    
     15774 FORA     482      FORA     DC       DRUD     -2.47370      0.400000           0   0.00000       0.00000    
     15775 FORA     482      FORA     H        HDP1C     0.00000       1.00800           0   0.00000       0.00000    
     15776 FORA     482      FORA     O2       OD2C2A    2.05180       15.5994           0 -0.699000       2.39900    
     15777 FORA     482      FORA     DO2      DRUD     -2.05180      0.400000           0   0.00000       0.00000    
     15778 FORA     482      FORA     O1       OD2C2A    2.05180       15.5994           0 -0.699000       2.39900    
     15779 FORA     482      FORA     DO1      DRUD     -2.05180      0.400000           0   0.00000       0.00000    
     15780 FORA     482      FORA     HO1      DUMH      0.00000       1.00800           0   0.00000       0.00000    
     15781 FORA     482      FORA     LPO21    LPDO1   -0.380000       0.00000          -1   0.00000       0.00000    
     15782 FORA     482      FORA     LPO22    LPDO1   -0.380000       0.00000          -1   0.00000       0.00000    
     15783 FORA     482      FORA     LPO11    LPDO1   -0.380000       0.00000          -1   0.00000       0.00000    
     15784 FORA     482      FORA     LPO12    LPDO1   -0.380000       0.00000          -1   0.00000       0.00000    
     15785 FORA     483      FORA     C        CD2O2A    2.99370       11.6110           0  -1.01600      0.899000    
     15786 FORA     483      FORA     DC       DRUD     -2.47370      0.400000           0   0.00000       0.00000    
     15787 FORA     483      FORA     H        HDP1C     0.00000       1.00800           0   0.00000       0.00000    
     15788 FORA     483      FORA     O2       OD2C2A    2.05180       15.5994           0 -0.699000       2.39900    
     15789 FORA     483      FORA     DO2      DRUD     -2.05180      0.400000           0   0.00000       0.00000    
     15790 FORA     483      FORA     O1       OD2C2A    2.05180       15.5994           0 -0.699000       2.39900    
     15791 FORA     483      FORA     DO1      DRUD     -2.05180      0.400000           0   0.00000       0.00000    
     15792 FORA     483      FORA     HO1      DUMH      0.00000       1.00800           0   0.00000       0.00000    
     15793 FORA     483      FORA     LPO21    LPDO1   -0.380000       0.00000          -1   0.00000       0.00000    
     15794 FORA     483      FORA     LPO22    LPDO1   -0.380000       0.00000          -1   0.00000       0.00000    
     15795 FORA     483      FORA     LPO11    LPDO1   -0.380000       0.00000          -1   0.00000       0.00000    
     15796 FORA     483      FORA     LPO12    LPDO1   -0.380000       0.00000          -1   0.00000       0.00000    
     15797 FORA     484      FORA     C        CD2O2A    2.99370       11.6110           0  -1.01600      0.899000    
     15798 FORA     484      FORA     DC       DRUD     -2.47370      0.400000           0   0.00000       0.00000    
     15799 FORA     484      FORA     H        HDP1C     0.00000       1.00800           0   0.00000       0.00000    
     15800 FORA     484      FORA     O2       OD2C2A    2.05180       15.5994           0 -0.699000       2.39900    
     15801 FORA     484      FORA     DO2      DRUD     -2.05180      0.400000           0   0.00000       0.00000    
     15802 FORA     484      FORA     O1       OD2C2A    2.05180       15.5994           0 -0.699000       2.39900    
     15803 FORA     484      FORA     DO1      DRUD     -2.05180      0.400000           0   0.00000       0.00000    
     15804 FORA     484      FORA     HO1      DUMH      0.00000       1.00800           0   0.00000       0.00000    
     15805 FORA     484      FORA     LPO21    LPDO1   -0.380000       0.00000          -1   0.00000       0.00000    
     15806 FORA     484      FORA     LPO22    LPDO1   -0.380000       0.00000          -1   0.00000       0.00000    
     15807 FORA     484      FORA     LPO11    LPDO1   -0.380000       0.00000          -1   0.00000       0.00000    
     15808 FORA     484      FORA     LPO12    LPDO1   -0.380000       0.00000          -1   0.00000       0.00000    
     15809 FORA     485      FORA     C        CD2O2A    2.99370       11.6110           0  -1.01600      0.899000    
     15810 FORA     485      FORA     DC       DRUD     -2.47370      0.400000           0   0.00000       0.00000    
     15811 FORA     485      FORA     H        HDP1C     0.00000       1.00800           0   0.00000       0.00000    
     15812 FORA     485      FORA     O2       OD2C2A    2.05180       15.5994           0 -0.699000       2.39900    
     15813 FORA     485      FORA     DO2      DRUD     -2.05180      0.400000           0   0.00000       0.00000    
     15814 FORA     485      FORA     O1       OD2C2A    2.05180       15.5994           0 -0.699000       2.39900    
     15815 FORA     485      FORA     DO1      DRUD     -2.05180      0.400000           0   0.00000       0.00000    
     15816 FORA     485      FORA     HO1      DUMH      0.00000       1.00800           0   0.00000       0.00000    
     15817 FORA     485      FORA     LPO21    LPDO1   -0.380000       0.00000          -1   0.00000       0.00000    
     15818 FORA     485      FORA     LPO22    LPDO1   -0.380000       0.00000          -1   0.00000       0.00000    
     15819 FORA     485      FORA     LPO11    LPDO1   -0.380000       0.00000          -1   0.00000       0.00000    
     15820 FORA     485      FORA     LPO12    LPDO1   -0.380000       0.00000          -1   0.00000       0.00000    
     15821 FORA     486      FORA     C        CD2O2A    2.99370       11.6110           0  -1.01600      0.899000    
     15822 FORA     486      FORA     DC       DRUD     -2.47370      0.400000           0   0.00000       0.00000    
     15823 FORA     486      FORA     H        HDP1C     0.00000       1.00800           0   0.00000       0.00000    
     15824 FORA     486      FORA     O2       OD2C2A    2.05180       15.5994           0 -0.699000       2.39900    
     15825 FORA     486      FORA     DO2      DRUD     -2.05180      0.400000           0   0.00000       0.00000    
     15826 FORA     486      FORA     O1       OD2C2A    2.05180       15.5994           0 -0.699000       2.39900    
     15827 FORA     486      FORA     DO1      DRUD     -2.05180      0.400000           0   0.00000       0.00000    
     15828 FORA     486      FORA     HO1      DUMH      0.00000       1.00800           0   0.00000       0.00000    
     15829 FORA     486      FORA     LPO21    LPDO1   -0.380000       0.00000          -1   0.00000       0.00000    
     15830 FORA     486      FORA     LPO22    LPDO1   -0.380000       0.00000          -1   0.00000       0.00000    
     15831 FORA     486      FORA     LPO11    LPDO1   -0.380000       0.00000          -1   0.00000       0.00000    
     15832 FORA     486      FORA     LPO12    LPDO1   -0.380000       0.00000          -1   0.00000       0.00000    
     15833 FORA     487      FORA     C        CD2O2A    2.99370       11.6110           0  -1.01600      0.899000    
     15834 FORA     487      FORA     DC       DRUD     -2.47370      0.400000           0   0.00000       0.00000    
     15835 FORA     487      FORA     H        HDP1C     0.00000       1.00800           0   0.00000       0.00000    
     15836 FORA     487      FORA     O2       OD2C2A    2.05180       15.5994           0 -0.699000       2.39900    
     15837 FORA     487      FORA     DO2      DRUD     -2.05180      0.400000           0   0.00000       0.00000    
     15838 FORA     487      FORA     O1       OD2C2A    2.05180       15.5994           0 -0.699000       2.39900    
     15839 FORA     487      FORA     DO1      DRUD     -2.05180      0.400000           0   0.00000       0.00000    
     15840 FORA     487      FORA     HO1      DUMH      0.00000       1.00800           0   0.00000       0.00000    
     15841 FORA     487      FORA     LPO21    LPDO1   -0.380000       0.00000          -1   0.00000       0.00000    
     15842 FORA     487      FORA     LPO22    LPDO1   -0.380000       0.00000          -1   0.00000       0.00000    
     15843 FORA     487      FORA     LPO11    LPDO1   -0.380000       0.00000          -1   0.00000       0.00000    
     15844 FORA     487      FORA     LPO12    LPDO1   -0.380000       0.00000          -1   0.00000       0.00000    
     15845 FORA     488      FORA     C        CD2O2A    2.99370       11.6110           0  -1.01600      0.899000    
     15846 FORA     488      FORA     DC       DRUD     -2.47370      0.400000           0   0.00000       0.00000    
     15847 FORA     488      FORA     H        HDP1C     0.00000       1.00800           0   0.00000       0.00000    
     15848 FORA     488      FORA     O2       OD2C2A    2.05180       15.5994           0 -0.699000       2.39900    
     15849 FORA     488      FORA     DO2      DRUD     -2.05180      0.400000           0   0.00000       0.00000    
     15850 FORA     488      FORA     O1       OD2C2A    2.05180       15.5994           0 -0.699000       2.39900    
     15851 FORA     488      FORA     DO1      DRUD     -2.05180      0.400000           0   0.00000       0.00000    
     15852 FORA     488      FORA     HO1      DUMH      0.00000       1.00800           0   0.00000       0.00000    
     15853 FORA     488      FORA     LPO21    LPDO1   -0.380000       0.00000          -1   0.00000       0.00000    
     15854 FORA     488      FORA     LPO22    LPDO1   -0.380000       0.00000          -1   0.00000       0.00000    
     15855 FORA     488      FORA     LPO11    LPDO1   -0.380000       0.00000          -1   0.00000       0.00000    
     15856 FORA     488      FORA     LPO12    LPDO1   -0.380000       0.00000          -1   0.00000       0.00000    
     15857 FORA     489      FORA     C        CD2O2A    2.99370       11.6110           0  -1.01600      0.899000    
     15858 FORA     489      FORA     DC       DRUD     -2.47370      0.400000           0   0.00000       0.00000    
     15859 FORA     489      FORA     H        HDP1C     0.00000       1.00800           0   0.00000       0.00000    
     15860 FORA     489      FORA     O2       OD2C2A    2.05180       15.5994           0 -0.699000       2.39900    
     15861 FORA     489      FORA     DO2      DRUD     -2.05180      0.400000           0   0.00000       0.00000    
     15862 FORA     489      FORA     O1       OD2C2A    2.05180       15.5994           0 -0.699000       2.39900    
     15863 FORA     489      FORA     DO1      DRUD     -2.05180      0.400000           0   0.00000       0.00000    
     15864 FORA     489      FORA     HO1      DUMH      0.00000       1.00800           0   0.00000       0.00000    
     15865 FORA     489      FORA     LPO21    LPDO1   -0.380000       0.00000          -1   0.00000       0.00000    
     15866 FORA     489      FORA     LPO22    LPDO1   -0.380000       0.00000          -1   0.00000       0.00000    
     15867 FORA     489      FORA     LPO11    LPDO1   -0.380000       0.00000          -1   0.00000       0.00000    
     15868 FORA     489      FORA     LPO12    LPDO1   -0.380000       0.00000          -1   0.00000       0.00000    
     15869 FORA     490      FORA     C        CD2O2A    2.99370       11.6110           0  -1.01600      0.899000    
     15870 FORA     490      FORA     DC       DRUD     -2.47370      0.400000           0   0.00000       0.00000    
     15871 FORA     490      FORA     H        HDP1C     0.00000       1.00800           0   0.00000       0.00000    
     15872 FORA     490      FORA     O2       OD2C2A    2.05180       15.5994           0 -0.699000       2.39900    
     15873 FORA     490      FORA     DO2      DRUD     -2.05180      0.400000           0   0.00000       0.00000    
     15874 FORA     490      FORA     O1       OD2C2A    2.05180       15.5994           0 -0.699000       2.39900    
     15875 FORA     490      FORA     DO1      DRUD     -2.05180      0.400000           0   0.00000       0.00000    
     15876 FORA     490      FORA     HO1      DUMH      0.00000       1.00800           0   0.00000       0.00000    
     15877 FORA     490      FORA     LPO21    LPDO1   -0.380000       0.00000          -1   0.00000       0.00000    
     15878 FORA     490      FORA     LPO22    LPDO1   -0.380000       0.00000          -1   0.00000       0.00000    
     15879 FORA     490      FORA     LPO11    LPDO1   -0.380000       0.00000          -1   0.00000       0.00000    
     15880 FORA     490      FORA     LPO12    LPDO1   -0.380000       0.00000          -1   0.00000       0.00000    
     15881 FORA     491      FORA     C        CD2O2A    2.99370       11.6110           0  -1.01600      0.899000    
     15882 FORA     491      FORA     DC       DRUD     -2.47370      0.400000           0   0.00000       0.00000    
     15883 FORA     491      FORA     H        HDP1C     0.00000       1.00800           0   0.00000       0.00000    
     15884 FORA     491      FORA     O2       OD2C2A    2.05180       15.5994           0 -0.699000       2.39900    
     15885 FORA     491      FORA     DO2      DRUD     -2.05180      0.400000           0   0.00000       0.00000    
     15886 FORA     491      FORA     O1       OD2C2A    2.05180       15.5994           0 -0.699000       2.39900    
     15887 FORA     491      FORA     DO1      DRUD     -2.05180      0.400000           0   0.00000       0.00000    
     15888 FORA     491      FORA     HO1      DUMH      0.00000       1.00800           0   0.00000       0.00000    
     15889 FORA     491      FORA     LPO21    LPDO1   -0.380000       0.00000          -1   0.00000       0.00000    
     15890 FORA     491      FORA     LPO22    LPDO1   -0.380000       0.00000          -1   0.00000       0.00000    
     15891 FORA     491      FORA     LPO11    LPDO1   -0.380000       0.00000          -1   0.00000       0.00000    
     15892 FORA     491      FORA     LPO12    LPDO1   -0.380000       0.00000          -1   0.00000       0.00000    
     15893 FORA     492      FORA     C        CD2O2A    2.99370       11.6110           0  -1.01600      0.899000    
     15894 FORA     492      FORA     DC       DRUD     -2.47370      0.400000           0   0.00000       0.00000    
     15895 FORA     492      FORA     H        HDP1C     0.00000       1.00800           0   0.00000       0.00000    
     15896 FORA     492      FORA     O2       OD2C2A    2.05180       15.5994           0 -0.699000       2.39900    
     15897 FORA     492      FORA     DO2      DRUD     -2.05180      0.400000           0   0.00000       0.00000    
     15898 FORA     492      FORA     O1       OD2C2A    2.05180       15.5994           0 -0.699000       2.39900    
     15899 FORA     492      FORA     DO1      DRUD     -2.05180      0.400000           0   0.00000       0.00000    
     15900 FORA     492      FORA     HO1      DUMH      0.00000       1.00800           0   0.00000       0.00000    
     15901 FORA     492      FORA     LPO21    LPDO1   -0.380000       0.00000          -1   0.00000       0.00000    
     15902 FORA     492      FORA     LPO22    LPDO1   -0.380000       0.00000          -1   0.00000       0.00000    
     15903 FORA     492      FORA     LPO11    LPDO1   -0.380000       0.00000          -1   0.00000       0.00000    
     15904 FORA     492      FORA     LPO12    LPDO1   -0.380000       0.00000          -1   0.00000       0.00000    
     15905 FORA     493      FORA     C        CD2O2A    2.99370       11.6110           0  -1.01600      0.899000    
     15906 FORA     493      FORA     DC       DRUD     -2.47370      0.400000           0   0.00000       0.00000    
     15907 FORA     493      FORA     H        HDP1C     0.00000       1.00800           0   0.00000       0.00000    
     15908 FORA     493      FORA     O2       OD2C2A    2.05180       15.5994           0 -0.699000       2.39900    
     15909 FORA     493      FORA     DO2      DRUD     -2.05180      0.400000           0   0.00000       0.00000    
     15910 FORA     493      FORA     O1       OD2C2A    2.05180       15.5994           0 -0.699000       2.39900    
     15911 FORA     493      FORA     DO1      DRUD     -2.05180      0.400000           0   0.00000       0.00000    
     15912 FORA     493      FORA     HO1      DUMH      0.00000       1.00800           0   0.00000       0.00000    
     15913 FORA     493      FORA     LPO21    LPDO1   -0.380000       0.00000          -1   0.00000       0.00000    
     15914 FORA     493      FORA     LPO22    LPDO1   -0.380000       0.00000          -1   0.00000       0.00000    
     15915 FORA     493      FORA     LPO11    LPDO1   -0.380000       0.00000          -1   0.00000       0.00000    
     15916 FORA     493      FORA     LPO12    LPDO1   -0.380000       0.00000          -1   0.00000       0.00000    
     15917 FORA     494      FORA     C        CD2O2A    2.99370       11.6110           0  -1.01600      0.899000    
     15918 FORA     494      FORA     DC       DRUD     -2.47370      0.400000           0   0.00000       0.00000    
     15919 FORA     494      FORA     H        HDP1C     0.00000       1.00800           0   0.00000       0.00000    
     15920 FORA     494      FORA     O2       OD2C2A    2.05180       15.5994           0 -0.699000       2.39900    
     15921 FORA     494      FORA     DO2      DRUD     -2.05180      0.400000           0   0.00000       0.00000    
     15922 FORA     494      FORA     O1       OD2C2A    2.05180       15.5994           0 -0.699000       2.39900    
     15923 FORA     494      FORA     DO1      DRUD     -2.05180      0.400000           0   0.00000       0.00000    
     15924 FORA     494      FORA     HO1      DUMH      0.00000       1.00800           0   0.00000       0.00000    
     15925 FORA     494      FORA     LPO21    LPDO1   -0.380000       0.00000          -1   0.00000       0.00000    
     15926 FORA     494      FORA     LPO22    LPDO1   -0.380000       0.00000          -1   0.00000       0.00000    
     15927 FORA     494      FORA     LPO11    LPDO1   -0.380000       0.00000          -1   0.00000       0.00000    
     15928 FORA     494      FORA     LPO12    LPDO1   -0.380000       0.00000          -1   0.00000       0.00000    
     15929 FORA     495      FORA     C        CD2O2A    2.99370       11.6110           0  -1.01600      0.899000    
     15930 FORA     495      FORA     DC       DRUD     -2.47370      0.400000           0   0.00000       0.00000    
     15931 FORA     495      FORA     H        HDP1C     0.00000       1.00800           0   0.00000       0.00000    
     15932 FORA     495      FORA     O2       OD2C2A    2.05180       15.5994           0 -0.699000       2.39900    
     15933 FORA     495      FORA     DO2      DRUD     -2.05180      0.400000           0   0.00000       0.00000    
     15934 FORA     495      FORA     O1       OD2C2A    2.05180       15.5994           0 -0.699000       2.39900    
     15935 FORA     495      FORA     DO1      DRUD     -2.05180      0.400000           0   0.00000       0.00000    
     15936 FORA     495      FORA     HO1      DUMH      0.00000       1.00800           0   0.00000       0.00000    
     15937 FORA     495      FORA     LPO21    LPDO1   -0.380000       0.00000          -1   0.00000       0.00000    
     15938 FORA     495      FORA     LPO22    LPDO1   -0.380000       0.00000          -1   0.00000       0.00000    
     15939 FORA     495      FORA     LPO11    LPDO1   -0.380000       0.00000          -1   0.00000       0.00000    
     15940 FORA     495      FORA     LPO12    LPDO1   -0.380000       0.00000          -1   0.00000       0.00000    
     15941 FORA     496      FORA     C        CD2O2A    2.99370       11.6110           0  -1.01600      0.899000    
     15942 FORA     496      FORA     DC       DRUD     -2.47370      0.400000           0   0.00000       0.00000    
     15943 FORA     496      FORA     H        HDP1C     0.00000       1.00800           0   0.00000       0.00000    
     15944 FORA     496      FORA     O2       OD2C2A    2.05180       15.5994           0 -0.699000       2.39900    
     15945 FORA     496      FORA     DO2      DRUD     -2.05180      0.400000           0   0.00000       0.00000    
     15946 FORA     496      FORA     O1       OD2C2A    2.05180       15.5994           0 -0.699000       2.39900    
     15947 FORA     496      FORA     DO1      DRUD     -2.05180      0.400000           0   0.00000       0.00000    
     15948 FORA     496      FORA     HO1      DUMH      0.00000       1.00800           0   0.00000       0.00000    
     15949 FORA     496      FORA     LPO21    LPDO1   -0.380000       0.00000          -1   0.00000       0.00000    
     15950 FORA     496      FORA     LPO22    LPDO1   -0.380000       0.00000          -1   0.00000       0.00000    
     15951 FORA     496      FORA     LPO11    LPDO1   -0.380000       0.00000          -1   0.00000       0.00000    
     15952 FORA     496      FORA     LPO12    LPDO1   -0.380000       0.00000          -1   0.00000       0.00000    
     15953 FORA     497      FORA     C        CD2O2A    2.99370       11.6110           0  -1.01600      0.899000    
     15954 FORA     497      FORA     DC       DRUD     -2.47370      0.400000           0   0.00000       0.00000    
     15955 FORA     497      FORA     H        HDP1C     0.00000       1.00800           0   0.00000       0.00000    
     15956 FORA     497      FORA     O2       OD2C2A    2.05180       15.5994           0 -0.699000       2.39900    
     15957 FORA     497      FORA     DO2      DRUD     -2.05180      0.400000           0   0.00000       0.00000    
     15958 FORA     497      FORA     O1       OD2C2A    2.05180       15.5994           0 -0.699000       2.39900    
     15959 FORA     497      FORA     DO1      DRUD     -2.05180      0.400000           0   0.00000       0.00000    
     15960 FORA     497      FORA     HO1      DUMH      0.00000       1.00800           0   0.00000       0.00000    
     15961 FORA     497      FORA     LPO21    LPDO1   -0.380000       0.00000          -1   0.00000       0.00000    
     15962 FORA     497      FORA     LPO22    LPDO1   -0.380000       0.00000          -1   0.00000       0.00000    
     15963 FORA     497      FORA     LPO11    LPDO1   -0.380000       0.00000          -1   0.00000       0.00000    
     15964 FORA     497      FORA     LPO12    LPDO1   -0.380000       0.00000          -1   0.00000       0.00000    
     15965 FORA     498      FORA     C        CD2O2A    2.99370       11.6110           0  -1.01600      0.899000    
     15966 FORA     498      FORA     DC       DRUD     -2.47370      0.400000           0   0.00000       0.00000    
     15967 FORA     498      FORA     H        HDP1C     0.00000       1.00800           0   0.00000       0.00000    
     15968 FORA     498      FORA     O2       OD2C2A    2.05180       15.5994           0 -0.699000       2.39900    
     15969 FORA     498      FORA     DO2      DRUD     -2.05180      0.400000           0   0.00000       0.00000    
     15970 FORA     498      FORA     O1       OD2C2A    2.05180       15.5994           0 -0.699000       2.39900    
     15971 FORA     498      FORA     DO1      DRUD     -2.05180      0.400000           0   0.00000       0.00000    
     15972 FORA     498      FORA     HO1      DUMH      0.00000       1.00800           0   0.00000       0.00000    
     15973 FORA     498      FORA     LPO21    LPDO1   -0.380000       0.00000          -1   0.00000       0.00000    
     15974 FORA     498      FORA     LPO22    LPDO1   -0.380000       0.00000          -1   0.00000       0.00000    
     15975 FORA     498      FORA     LPO11    LPDO1   -0.380000       0.00000          -1   0.00000       0.00000    
     15976 FORA     498      FORA     LPO12    LPDO1   -0.380000       0.00000          -1   0.00000       0.00000    
     15977 FORA     499      FORA     C        CD2O2A    2.99370       11.6110           0  -1.01600      0.899000    
     15978 FORA     499      FORA     DC       DRUD     -2.47370      0.400000           0   0.00000       0.00000    
     15979 FORA     499      FORA     H        HDP1C     0.00000       1.00800           0   0.00000       0.00000    
     15980 FORA     499      FORA     O2       OD2C2A    2.05180       15.5994           0 -0.699000       2.39900    
     15981 FORA     499      FORA     DO2      DRUD     -2.05180      0.400000           0   0.00000       0.00000    
     15982 FORA     499      FORA     O1       OD2C2A    2.05180       15.5994           0 -0.699000       2.39900    
     15983 FORA     499      FORA     DO1      DRUD     -2.05180      0.400000           0   0.00000       0.00000    
     15984 FORA     499      FORA     HO1      DUMH      0.00000       1.00800           0   0.00000       0.00000    
     15985 FORA     499      FORA     LPO21    LPDO1   -0.380000       0.00000          -1   0.00000       0.00000    
     15986 FORA     499      FORA     LPO22    LPDO1   -0.380000       0.00000          -1   0.00000       0.00000    
     15987 FORA     499      FORA     LPO11    LPDO1   -0.380000       0.00000          -1   0.00000       0.00000    
     15988 FORA     499      FORA     LPO12    LPDO1   -0.380000       0.00000          -1   0.00000       0.00000    
     15989 FORA     500      FORA     C        CD2O2A    2.99370       11.6110           0  -1.01600      0.899000    
     15990 FORA     500      FORA     DC       DRUD     -2.47370      0.400000           0   0.00000       0.00000    
     15991 FORA     500      FORA     H        HDP1C     0.00000       1.00800           0   0.00000       0.00000    
     15992 FORA     500      FORA     O2       OD2C2A    2.05180       15.5994           0 -0.699000       2.39900    
     15993 FORA     500      FORA     DO2      DRUD     -2.05180      0.400000           0   0.00000       0.00000    
     15994 FORA     500      FORA     O1       OD2C2A    2.05180       15.5994           0 -0.699000       2.39900    
     15995 FORA     500      FORA     DO1      DRUD     -2.05180      0.400000           0   0.00000       0.00000    
     15996 FORA     500      FORA     HO1      DUMH      0.00000       1.00800           0   0.00000       0.00000    
     15997 FORA     500      FORA     LPO21    LPDO1   -0.380000       0.00000          -1   0.00000       0.00000    
     15998 FORA     500      FORA     LPO22    LPDO1   -0.380000       0.00000          -1   0.00000       0.00000    
     15999 FORA     500      FORA     LPO11    LPDO1   -0.380000       0.00000          -1   0.00000       0.00000    
     16000 FORA     500      FORA     LPO12    LPDO1   -0.380000       0.00000          -1   0.00000       0.00000    
     16001 IM1      1        IM1      C1       CD33G     2.39060       11.6110           0  -1.08100       1.00000    
     16002 IM1      1        IM1      DC1      DRUD     -2.55160      0.400000           0   0.00000       0.00000    
     16003 IM1      1        IM1      H1       HDA3A    0.940000E-01   1.00800           0   0.00000       0.00000    
     16004 IM1      1        IM1      H2       HDA3A    0.940000E-01   1.00800           0   0.00000       0.00000    
     16005 IM1      1        IM1      H3       HDA3A    0.940000E-01   1.00800           0   0.00000       0.00000    
     16006 IM1      1        IM1      N1       ND2R5A    2.67030       13.6070           0  -1.06300       1.30000    
     16007 IM1      1        IM1      DN1      DRUD     -2.53030      0.400000           0   0.00000       0.00000    
     16008 IM1      1        IM1      C2       CD2R5A    2.51190       11.6110           0  -1.37800       1.30000    
     16009 IM1      1        IM1      DC2      DRUD     -2.88090      0.400000           0   0.00000       0.00000    
     16010 IM1      1        IM1      H4       HDR5A    0.150000       1.00800           0   0.00000       0.00000    
     16011 IM1      1        IM1      C3       CD2R5A    3.06890       11.6110           0  -1.37800       1.30000    
     16012 IM1      1        IM1      DC3      DRUD     -2.88090      0.400000           0   0.00000       0.00000    
     16013 IM1      1        IM1      H5       HDR5A    0.530000E-01   1.00800           0   0.00000       0.00000    
     16014 IM1      1        IM1      C4       CD2R5B    2.40440       11.6110           0 -0.868000       1.30000    
     16015 IM1      1        IM1      DC4      DRUD     -2.28640      0.400000           0   0.00000       0.00000    
     16016 IM1      1        IM1      H6       HDR5B    0.730000E-01   1.00800           0   0.00000       0.00000    
     16017 IM1      1        IM1      N2       ND2R5B    2.24930       13.6070           0 -0.840000       1.00000    
     16018 IM1      1        IM1      DN2      DRUD     -2.24930      0.400000           0   0.00000       0.00000    
     16019 IM1      1        IM1      H7       DUMH      0.00000       1.00800           0   0.00000       0.00000    
     16020 IM1      1        IM1      LPN21    LPD     -0.474000       0.00000          -1   0.00000       0.00000    
     16021 IM1      2        IM1      C1       CD33G     2.39060       11.6110           0  -1.08100       1.00000    
     16022 IM1      2        IM1      DC1      DRUD     -2.55160      0.400000           0   0.00000       0.00000    
     16023 IM1      2        IM1      H1       HDA3A    0.940000E-01   1.00800           0   0.00000       0.00000    
     16024 IM1      2        IM1      H2       HDA3A    0.940000E-01   1.00800           0   0.00000       0.00000    
     16025 IM1      2        IM1      H3       HDA3A    0.940000E-01   1.00800           0   0.00000       0.00000    
     16026 IM1      2        IM1      N1       ND2R5A    2.67030       13.6070           0  -1.06300       1.30000    
     16027 IM1      2        IM1      DN1      DRUD     -2.53030      0.400000           0   0.00000       0.00000    
     16028 IM1      2        IM1      C2       CD2R5A    2.51190       11.6110           0  -1.37800       1.30000    
     16029 IM1      2        IM1      DC2      DRUD     -2.88090      0.400000           0   0.00000       0.00000    
     16030 IM1      2        IM1      H4       HDR5A    0.150000       1.00800           0   0.00000       0.00000    
     16031 IM1      2        IM1      C3       CD2R5A    3.06890       11.6110           0  -1.37800       1.30000    
     16032 IM1      2        IM1      DC3      DRUD     -2.88090      0.400000           0   0.00000       0.00000    
     16033 IM1      2        IM1      H5       HDR5A    0.530000E-01   1.00800           0   0.00000       0.00000    
     16034 IM1      2        IM1      C4       CD2R5B    2.40440       11.6110           0 -0.868000       1.30000    
     16035 IM1      2        IM1      DC4      DRUD     -2.28640      0.400000           0   0.00000       0.00000    
     16036 IM1      2        IM1      H6       HDR5B    0.730000E-01   1.00800           0   0.00000       0.00000    
     16037 IM1      2        IM1      N2       ND2R5B    2.24930       13.6070           0 -0.840000       1.00000    
     16038 IM1      2        IM1      DN2      DRUD     -2.24930      0.400000           0   0.00000       0.00000    
     16039 IM1      2        IM1      H7       DUMH      0.00000       1.00800           0   0.00000       0.00000    
     16040 IM1      2        IM1      LPN21    LPD     -0.474000       0.00000          -1   0.00000       0.00000    
     16041 IM1      3        IM1      C1       CD33G     2.39060       11.6110           0  -1.08100       1.00000    
     16042 IM1      3        IM1      DC1      DRUD     -2.55160      0.400000           0   0.00000       0.00000    
     16043 IM1      3        IM1      H1       HDA3A    0.940000E-01   1.00800           0   0.00000       0.00000    
     16044 IM1      3        IM1      H2       HDA3A    0.940000E-01   1.00800           0   0.00000       0.00000    
     16045 IM1      3        IM1      H3       HDA3A    0.940000E-01   1.00800           0   0.00000       0.00000    
     16046 IM1      3        IM1      N1       ND2R5A    2.67030       13.6070           0  -1.06300       1.30000    
     16047 IM1      3        IM1      DN1      DRUD     -2.53030      0.400000           0   0.00000       0.00000    
     16048 IM1      3        IM1      C2       CD2R5A    2.51190       11.6110           0  -1.37800       1.30000    
     16049 IM1      3        IM1      DC2      DRUD     -2.88090      0.400000           0   0.00000       0.00000    
     16050 IM1      3        IM1      H4       HDR5A    0.150000       1.00800           0   0.00000       0.00000    
     16051 IM1      3        IM1      C3       CD2R5A    3.06890       11.6110           0  -1.37800       1.30000    
     16052 IM1      3        IM1      DC3      DRUD     -2.88090      0.400000           0   0.00000       0.00000    
     16053 IM1      3        IM1      H5       HDR5A    0.530000E-01   1.00800           0   0.00000       0.00000    
     16054 IM1      3        IM1      C4       CD2R5B    2.40440       11.6110           0 -0.868000       1.30000    
     16055 IM1      3        IM1      DC4      DRUD     -2.28640      0.400000           0   0.00000       0.00000    
     16056 IM1      3        IM1      H6       HDR5B    0.730000E-01   1.00800           0   0.00000       0.00000    
     16057 IM1      3        IM1      N2       ND2R5B    2.24930       13.6070           0 -0.840000       1.00000    
     16058 IM1      3        IM1      DN2      DRUD     -2.24930      0.400000           0   0.00000       0.00000    
     16059 IM1      3        IM1      H7       DUMH      0.00000       1.00800           0   0.00000       0.00000    
     16060 IM1      3        IM1      LPN21    LPD     -0.474000       0.00000          -1   0.00000       0.00000    
     16061 IM1      4        IM1      C1       CD33G     2.39060       11.6110           0  -1.08100       1.00000    
     16062 IM1      4        IM1      DC1      DRUD     -2.55160      0.400000           0   0.00000       0.00000    
     16063 IM1      4        IM1      H1       HDA3A    0.940000E-01   1.00800           0   0.00000       0.00000    
     16064 IM1      4        IM1      H2       HDA3A    0.940000E-01   1.00800           0   0.00000       0.00000    
     16065 IM1      4        IM1      H3       HDA3A    0.940000E-01   1.00800           0   0.00000       0.00000    
     16066 IM1      4        IM1      N1       ND2R5A    2.67030       13.6070           0  -1.06300       1.30000    
     16067 IM1      4        IM1      DN1      DRUD     -2.53030      0.400000           0   0.00000       0.00000    
     16068 IM1      4        IM1      C2       CD2R5A    2.51190       11.6110           0  -1.37800       1.30000    
     16069 IM1      4        IM1      DC2      DRUD     -2.88090      0.400000           0   0.00000       0.00000    
     16070 IM1      4        IM1      H4       HDR5A    0.150000       1.00800           0   0.00000       0.00000    
     16071 IM1      4        IM1      C3       CD2R5A    3.06890       11.6110           0  -1.37800       1.30000    
     16072 IM1      4        IM1      DC3      DRUD     -2.88090      0.400000           0   0.00000       0.00000    
     16073 IM1      4        IM1      H5       HDR5A    0.530000E-01   1.00800           0   0.00000       0.00000    
     16074 IM1      4        IM1      C4       CD2R5B    2.40440       11.6110           0 -0.868000       1.30000    
     16075 IM1      4        IM1      DC4      DRUD     -2.28640      0.400000           0   0.00000       0.00000    
     16076 IM1      4        IM1      H6       HDR5B    0.730000E-01   1.00800           0   0.00000       0.00000    
     16077 IM1      4        IM1      N2       ND2R5B    2.24930       13.6070           0 -0.840000       1.00000    
     16078 IM1      4        IM1      DN2      DRUD     -2.24930      0.400000           0   0.00000       0.00000    
     16079 IM1      4        IM1      H7       DUMH      0.00000       1.00800           0   0.00000       0.00000    
     16080 IM1      4        IM1      LPN21    LPD     -0.474000       0.00000          -1   0.00000       0.00000    
     16081 IM1      5        IM1      C1       CD33G     2.39060       11.6110           0  -1.08100       1.00000    
     16082 IM1      5        IM1      DC1      DRUD     -2.55160      0.400000           0   0.00000       0.00000    
     16083 IM1      5        IM1      H1       HDA3A    0.940000E-01   1.00800           0   0.00000       0.00000    
     16084 IM1      5        IM1      H2       HDA3A    0.940000E-01   1.00800           0   0.00000       0.00000    
     16085 IM1      5        IM1      H3       HDA3A    0.940000E-01   1.00800           0   0.00000       0.00000    
     16086 IM1      5        IM1      N1       ND2R5A    2.67030       13.6070           0  -1.06300       1.30000    
     16087 IM1      5        IM1      DN1      DRUD     -2.53030      0.400000           0   0.00000       0.00000    
     16088 IM1      5        IM1      C2       CD2R5A    2.51190       11.6110           0  -1.37800       1.30000    
     16089 IM1      5        IM1      DC2      DRUD     -2.88090      0.400000           0   0.00000       0.00000    
     16090 IM1      5        IM1      H4       HDR5A    0.150000       1.00800           0   0.00000       0.00000    
     16091 IM1      5        IM1      C3       CD2R5A    3.06890       11.6110           0  -1.37800       1.30000    
     16092 IM1      5        IM1      DC3      DRUD     -2.88090      0.400000           0   0.00000       0.00000    
     16093 IM1      5        IM1      H5       HDR5A    0.530000E-01   1.00800           0   0.00000       0.00000    
     16094 IM1      5        IM1      C4       CD2R5B    2.40440       11.6110           0 -0.868000       1.30000    
     16095 IM1      5        IM1      DC4      DRUD     -2.28640      0.400000           0   0.00000       0.00000    
     16096 IM1      5        IM1      H6       HDR5B    0.730000E-01   1.00800           0   0.00000       0.00000    
     16097 IM1      5        IM1      N2       ND2R5B    2.24930       13.6070           0 -0.840000       1.00000    
     16098 IM1      5        IM1      DN2      DRUD     -2.24930      0.400000           0   0.00000       0.00000    
     16099 IM1      5        IM1      H7       DUMH      0.00000       1.00800           0   0.00000       0.00000    
     16100 IM1      5        IM1      LPN21    LPD     -0.474000       0.00000          -1   0.00000       0.00000    
     16101 IM1      6        IM1      C1       CD33G     2.39060       11.6110           0  -1.08100       1.00000    
     16102 IM1      6        IM1      DC1      DRUD     -2.55160      0.400000           0   0.00000       0.00000    
     16103 IM1      6        IM1      H1       HDA3A    0.940000E-01   1.00800           0   0.00000       0.00000    
     16104 IM1      6        IM1      H2       HDA3A    0.940000E-01   1.00800           0   0.00000       0.00000    
     16105 IM1      6        IM1      H3       HDA3A    0.940000E-01   1.00800           0   0.00000       0.00000    
     16106 IM1      6        IM1      N1       ND2R5A    2.67030       13.6070           0  -1.06300       1.30000    
     16107 IM1      6        IM1      DN1      DRUD     -2.53030      0.400000           0   0.00000       0.00000    
     16108 IM1      6        IM1      C2       CD2R5A    2.51190       11.6110           0  -1.37800       1.30000    
     16109 IM1      6        IM1      DC2      DRUD     -2.88090      0.400000           0   0.00000       0.00000    
     16110 IM1      6        IM1      H4       HDR5A    0.150000       1.00800           0   0.00000       0.00000    
     16111 IM1      6        IM1      C3       CD2R5A    3.06890       11.6110           0  -1.37800       1.30000    
     16112 IM1      6        IM1      DC3      DRUD     -2.88090      0.400000           0   0.00000       0.00000    
     16113 IM1      6        IM1      H5       HDR5A    0.530000E-01   1.00800           0   0.00000       0.00000    
     16114 IM1      6        IM1      C4       CD2R5B    2.40440       11.6110           0 -0.868000       1.30000    
     16115 IM1      6        IM1      DC4      DRUD     -2.28640      0.400000           0   0.00000       0.00000    
     16116 IM1      6        IM1      H6       HDR5B    0.730000E-01   1.00800           0   0.00000       0.00000    
     16117 IM1      6        IM1      N2       ND2R5B    2.24930       13.6070           0 -0.840000       1.00000    
     16118 IM1      6        IM1      DN2      DRUD     -2.24930      0.400000           0   0.00000       0.00000    
     16119 IM1      6        IM1      H7       DUMH      0.00000       1.00800           0   0.00000       0.00000    
     16120 IM1      6        IM1      LPN21    LPD     -0.474000       0.00000          -1   0.00000       0.00000    
     16121 IM1      7        IM1      C1       CD33G     2.39060       11.6110           0  -1.08100       1.00000    
     16122 IM1      7        IM1      DC1      DRUD     -2.55160      0.400000           0   0.00000       0.00000    
     16123 IM1      7        IM1      H1       HDA3A    0.940000E-01   1.00800           0   0.00000       0.00000    
     16124 IM1      7        IM1      H2       HDA3A    0.940000E-01   1.00800           0   0.00000       0.00000    
     16125 IM1      7        IM1      H3       HDA3A    0.940000E-01   1.00800           0   0.00000       0.00000    
     16126 IM1      7        IM1      N1       ND2R5A    2.67030       13.6070           0  -1.06300       1.30000    
     16127 IM1      7        IM1      DN1      DRUD     -2.53030      0.400000           0   0.00000       0.00000    
     16128 IM1      7        IM1      C2       CD2R5A    2.51190       11.6110           0  -1.37800       1.30000    
     16129 IM1      7        IM1      DC2      DRUD     -2.88090      0.400000           0   0.00000       0.00000    
     16130 IM1      7        IM1      H4       HDR5A    0.150000       1.00800           0   0.00000       0.00000    
     16131 IM1      7        IM1      C3       CD2R5A    3.06890       11.6110           0  -1.37800       1.30000    
     16132 IM1      7        IM1      DC3      DRUD     -2.88090      0.400000           0   0.00000       0.00000    
     16133 IM1      7        IM1      H5       HDR5A    0.530000E-01   1.00800           0   0.00000       0.00000    
     16134 IM1      7        IM1      C4       CD2R5B    2.40440       11.6110           0 -0.868000       1.30000    
     16135 IM1      7        IM1      DC4      DRUD     -2.28640      0.400000           0   0.00000       0.00000    
     16136 IM1      7        IM1      H6       HDR5B    0.730000E-01   1.00800           0   0.00000       0.00000    
     16137 IM1      7        IM1      N2       ND2R5B    2.24930       13.6070           0 -0.840000       1.00000    
     16138 IM1      7        IM1      DN2      DRUD     -2.24930      0.400000           0   0.00000       0.00000    
     16139 IM1      7        IM1      H7       DUMH      0.00000       1.00800           0   0.00000       0.00000    
     16140 IM1      7        IM1      LPN21    LPD     -0.474000       0.00000          -1   0.00000       0.00000    
     16141 IM1      8        IM1      C1       CD33G     2.39060       11.6110           0  -1.08100       1.00000    
     16142 IM1      8        IM1      DC1      DRUD     -2.55160      0.400000           0   0.00000       0.00000    
     16143 IM1      8        IM1      H1       HDA3A    0.940000E-01   1.00800           0   0.00000       0.00000    
     16144 IM1      8        IM1      H2       HDA3A    0.940000E-01   1.00800           0   0.00000       0.00000    
     16145 IM1      8        IM1      H3       HDA3A    0.940000E-01   1.00800           0   0.00000       0.00000    
     16146 IM1      8        IM1      N1       ND2R5A    2.67030       13.6070           0  -1.06300       1.30000    
     16147 IM1      8        IM1      DN1      DRUD     -2.53030      0.400000           0   0.00000       0.00000    
     16148 IM1      8        IM1      C2       CD2R5A    2.51190       11.6110           0  -1.37800       1.30000    
     16149 IM1      8        IM1      DC2      DRUD     -2.88090      0.400000           0   0.00000       0.00000    
     16150 IM1      8        IM1      H4       HDR5A    0.150000       1.00800           0   0.00000       0.00000    
     16151 IM1      8        IM1      C3       CD2R5A    3.06890       11.6110           0  -1.37800       1.30000    
     16152 IM1      8        IM1      DC3      DRUD     -2.88090      0.400000           0   0.00000       0.00000    
     16153 IM1      8        IM1      H5       HDR5A    0.530000E-01   1.00800           0   0.00000       0.00000    
     16154 IM1      8        IM1      C4       CD2R5B    2.40440       11.6110           0 -0.868000       1.30000    
     16155 IM1      8        IM1      DC4      DRUD     -2.28640      0.400000           0   0.00000       0.00000    
     16156 IM1      8        IM1      H6       HDR5B    0.730000E-01   1.00800           0   0.00000       0.00000    
     16157 IM1      8        IM1      N2       ND2R5B    2.24930       13.6070           0 -0.840000       1.00000    
     16158 IM1      8        IM1      DN2      DRUD     -2.24930      0.400000           0   0.00000       0.00000    
     16159 IM1      8        IM1      H7       DUMH      0.00000       1.00800           0   0.00000       0.00000    
     16160 IM1      8        IM1      LPN21    LPD     -0.474000       0.00000          -1   0.00000       0.00000    
     16161 IM1      9        IM1      C1       CD33G     2.39060       11.6110           0  -1.08100       1.00000    
     16162 IM1      9        IM1      DC1      DRUD     -2.55160      0.400000           0   0.00000       0.00000    
     16163 IM1      9        IM1      H1       HDA3A    0.940000E-01   1.00800           0   0.00000       0.00000    
     16164 IM1      9        IM1      H2       HDA3A    0.940000E-01   1.00800           0   0.00000       0.00000    
     16165 IM1      9        IM1      H3       HDA3A    0.940000E-01   1.00800           0   0.00000       0.00000    
     16166 IM1      9        IM1      N1       ND2R5A    2.67030       13.6070           0  -1.06300       1.30000    
     16167 IM1      9        IM1      DN1      DRUD     -2.53030      0.400000           0   0.00000       0.00000    
     16168 IM1      9        IM1      C2       CD2R5A    2.51190       11.6110           0  -1.37800       1.30000    
     16169 IM1      9        IM1      DC2      DRUD     -2.88090      0.400000           0   0.00000       0.00000    
     16170 IM1      9        IM1      H4       HDR5A    0.150000       1.00800           0   0.00000       0.00000    
     16171 IM1      9        IM1      C3       CD2R5A    3.06890       11.6110           0  -1.37800       1.30000    
     16172 IM1      9        IM1      DC3      DRUD     -2.88090      0.400000           0   0.00000       0.00000    
     16173 IM1      9        IM1      H5       HDR5A    0.530000E-01   1.00800           0   0.00000       0.00000    
     16174 IM1      9        IM1      C4       CD2R5B    2.40440       11.6110           0 -0.868000       1.30000    
     16175 IM1      9        IM1      DC4      DRUD     -2.28640      0.400000           0   0.00000       0.00000    
     16176 IM1      9        IM1      H6       HDR5B    0.730000E-01   1.00800           0   0.00000       0.00000    
     16177 IM1      9        IM1      N2       ND2R5B    2.24930       13.6070           0 -0.840000       1.00000    
     16178 IM1      9        IM1      DN2      DRUD     -2.24930      0.400000           0   0.00000       0.00000    
     16179 IM1      9        IM1      H7       DUMH      0.00000       1.00800           0   0.00000       0.00000    
     16180 IM1      9        IM1      LPN21    LPD     -0.474000       0.00000          -1   0.00000       0.00000    
     16181 IM1      10       IM1      C1       CD33G     2.39060       11.6110           0  -1.08100       1.00000    
     16182 IM1      10       IM1      DC1      DRUD     -2.55160      0.400000           0   0.00000       0.00000    
     16183 IM1      10       IM1      H1       HDA3A    0.940000E-01   1.00800           0   0.00000       0.00000    
     16184 IM1      10       IM1      H2       HDA3A    0.940000E-01   1.00800           0   0.00000       0.00000    
     16185 IM1      10       IM1      H3       HDA3A    0.940000E-01   1.00800           0   0.00000       0.00000    
     16186 IM1      10       IM1      N1       ND2R5A    2.67030       13.6070           0  -1.06300       1.30000    
     16187 IM1      10       IM1      DN1      DRUD     -2.53030      0.400000           0   0.00000       0.00000    
     16188 IM1      10       IM1      C2       CD2R5A    2.51190       11.6110           0  -1.37800       1.30000    
     16189 IM1      10       IM1      DC2      DRUD     -2.88090      0.400000           0   0.00000       0.00000    
     16190 IM1      10       IM1      H4       HDR5A    0.150000       1.00800           0   0.00000       0.00000    
     16191 IM1      10       IM1      C3       CD2R5A    3.06890       11.6110           0  -1.37800       1.30000    
     16192 IM1      10       IM1      DC3      DRUD     -2.88090      0.400000           0   0.00000       0.00000    
     16193 IM1      10       IM1      H5       HDR5A    0.530000E-01   1.00800           0   0.00000       0.00000    
     16194 IM1      10       IM1      C4       CD2R5B    2.40440       11.6110           0 -0.868000       1.30000    
     16195 IM1      10       IM1      DC4      DRUD     -2.28640      0.400000           0   0.00000       0.00000    
     16196 IM1      10       IM1      H6       HDR5B    0.730000E-01   1.00800           0   0.00000       0.00000    
     16197 IM1      10       IM1      N2       ND2R5B    2.24930       13.6070           0 -0.840000       1.00000    
     16198 IM1      10       IM1      DN2      DRUD     -2.24930      0.400000           0   0.00000       0.00000    
     16199 IM1      10       IM1      H7       DUMH      0.00000       1.00800           0   0.00000       0.00000    
     16200 IM1      10       IM1      LPN21    LPD     -0.474000       0.00000          -1   0.00000       0.00000    
     16201 IM1      11       IM1      C1       CD33G     2.39060       11.6110           0  -1.08100       1.00000    
     16202 IM1      11       IM1      DC1      DRUD     -2.55160      0.400000           0   0.00000       0.00000    
     16203 IM1      11       IM1      H1       HDA3A    0.940000E-01   1.00800           0   0.00000       0.00000    
     16204 IM1      11       IM1      H2       HDA3A    0.940000E-01   1.00800           0   0.00000       0.00000    
     16205 IM1      11       IM1      H3       HDA3A    0.940000E-01   1.00800           0   0.00000       0.00000    
     16206 IM1      11       IM1      N1       ND2R5A    2.67030       13.6070           0  -1.06300       1.30000    
     16207 IM1      11       IM1      DN1      DRUD     -2.53030      0.400000           0   0.00000       0.00000    
     16208 IM1      11       IM1      C2       CD2R5A    2.51190       11.6110           0  -1.37800       1.30000    
     16209 IM1      11       IM1      DC2      DRUD     -2.88090      0.400000           0   0.00000       0.00000    
     16210 IM1      11       IM1      H4       HDR5A    0.150000       1.00800           0   0.00000       0.00000    
     16211 IM1      11       IM1      C3       CD2R5A    3.06890       11.6110           0  -1.37800       1.30000    
     16212 IM1      11       IM1      DC3      DRUD     -2.88090      0.400000           0   0.00000       0.00000    
     16213 IM1      11       IM1      H5       HDR5A    0.530000E-01   1.00800           0   0.00000       0.00000    
     16214 IM1      11       IM1      C4       CD2R5B    2.40440       11.6110           0 -0.868000       1.30000    
     16215 IM1      11       IM1      DC4      DRUD     -2.28640      0.400000           0   0.00000       0.00000    
     16216 IM1      11       IM1      H6       HDR5B    0.730000E-01   1.00800           0   0.00000       0.00000    
     16217 IM1      11       IM1      N2       ND2R5B    2.24930       13.6070           0 -0.840000       1.00000    
     16218 IM1      11       IM1      DN2      DRUD     -2.24930      0.400000           0   0.00000       0.00000    
     16219 IM1      11       IM1      H7       DUMH      0.00000       1.00800           0   0.00000       0.00000    
     16220 IM1      11       IM1      LPN21    LPD     -0.474000       0.00000          -1   0.00000       0.00000    
     16221 IM1      12       IM1      C1       CD33G     2.39060       11.6110           0  -1.08100       1.00000    
     16222 IM1      12       IM1      DC1      DRUD     -2.55160      0.400000           0   0.00000       0.00000    
     16223 IM1      12       IM1      H1       HDA3A    0.940000E-01   1.00800           0   0.00000       0.00000    
     16224 IM1      12       IM1      H2       HDA3A    0.940000E-01   1.00800           0   0.00000       0.00000    
     16225 IM1      12       IM1      H3       HDA3A    0.940000E-01   1.00800           0   0.00000       0.00000    
     16226 IM1      12       IM1      N1       ND2R5A    2.67030       13.6070           0  -1.06300       1.30000    
     16227 IM1      12       IM1      DN1      DRUD     -2.53030      0.400000           0   0.00000       0.00000    
     16228 IM1      12       IM1      C2       CD2R5A    2.51190       11.6110           0  -1.37800       1.30000    
     16229 IM1      12       IM1      DC2      DRUD     -2.88090      0.400000           0   0.00000       0.00000    
     16230 IM1      12       IM1      H4       HDR5A    0.150000       1.00800           0   0.00000       0.00000    
     16231 IM1      12       IM1      C3       CD2R5A    3.06890       11.6110           0  -1.37800       1.30000    
     16232 IM1      12       IM1      DC3      DRUD     -2.88090      0.400000           0   0.00000       0.00000    
     16233 IM1      12       IM1      H5       HDR5A    0.530000E-01   1.00800           0   0.00000       0.00000    
     16234 IM1      12       IM1      C4       CD2R5B    2.40440       11.6110           0 -0.868000       1.30000    
     16235 IM1      12       IM1      DC4      DRUD     -2.28640      0.400000           0   0.00000       0.00000    
     16236 IM1      12       IM1      H6       HDR5B    0.730000E-01   1.00800           0   0.00000       0.00000    
     16237 IM1      12       IM1      N2       ND2R5B    2.24930       13.6070           0 -0.840000       1.00000    
     16238 IM1      12       IM1      DN2      DRUD     -2.24930      0.400000           0   0.00000       0.00000    
     16239 IM1      12       IM1      H7       DUMH      0.00000       1.00800           0   0.00000       0.00000    
     16240 IM1      12       IM1      LPN21    LPD     -0.474000       0.00000          -1   0.00000       0.00000    
     16241 IM1      13       IM1      C1       CD33G     2.39060       11.6110           0  -1.08100       1.00000    
     16242 IM1      13       IM1      DC1      DRUD     -2.55160      0.400000           0   0.00000       0.00000    
     16243 IM1      13       IM1      H1       HDA3A    0.940000E-01   1.00800           0   0.00000       0.00000    
     16244 IM1      13       IM1      H2       HDA3A    0.940000E-01   1.00800           0   0.00000       0.00000    
     16245 IM1      13       IM1      H3       HDA3A    0.940000E-01   1.00800           0   0.00000       0.00000    
     16246 IM1      13       IM1      N1       ND2R5A    2.67030       13.6070           0  -1.06300       1.30000    
     16247 IM1      13       IM1      DN1      DRUD     -2.53030      0.400000           0   0.00000       0.00000    
     16248 IM1      13       IM1      C2       CD2R5A    2.51190       11.6110           0  -1.37800       1.30000    
     16249 IM1      13       IM1      DC2      DRUD     -2.88090      0.400000           0   0.00000       0.00000    
     16250 IM1      13       IM1      H4       HDR5A    0.150000       1.00800           0   0.00000       0.00000    
     16251 IM1      13       IM1      C3       CD2R5A    3.06890       11.6110           0  -1.37800       1.30000    
     16252 IM1      13       IM1      DC3      DRUD     -2.88090      0.400000           0   0.00000       0.00000    
     16253 IM1      13       IM1      H5       HDR5A    0.530000E-01   1.00800           0   0.00000       0.00000    
     16254 IM1      13       IM1      C4       CD2R5B    2.40440       11.6110           0 -0.868000       1.30000    
     16255 IM1      13       IM1      DC4      DRUD     -2.28640      0.400000           0   0.00000       0.00000    
     16256 IM1      13       IM1      H6       HDR5B    0.730000E-01   1.00800           0   0.00000       0.00000    
     16257 IM1      13       IM1      N2       ND2R5B    2.24930       13.6070           0 -0.840000       1.00000    
     16258 IM1      13       IM1      DN2      DRUD     -2.24930      0.400000           0   0.00000       0.00000    
     16259 IM1      13       IM1      H7       DUMH      0.00000       1.00800           0   0.00000       0.00000    
     16260 IM1      13       IM1      LPN21    LPD     -0.474000       0.00000          -1   0.00000       0.00000    
     16261 IM1      14       IM1      C1       CD33G     2.39060       11.6110           0  -1.08100       1.00000    
     16262 IM1      14       IM1      DC1      DRUD     -2.55160      0.400000           0   0.00000       0.00000    
     16263 IM1      14       IM1      H1       HDA3A    0.940000E-01   1.00800           0   0.00000       0.00000    
     16264 IM1      14       IM1      H2       HDA3A    0.940000E-01   1.00800           0   0.00000       0.00000    
     16265 IM1      14       IM1      H3       HDA3A    0.940000E-01   1.00800           0   0.00000       0.00000    
     16266 IM1      14       IM1      N1       ND2R5A    2.67030       13.6070           0  -1.06300       1.30000    
     16267 IM1      14       IM1      DN1      DRUD     -2.53030      0.400000           0   0.00000       0.00000    
     16268 IM1      14       IM1      C2       CD2R5A    2.51190       11.6110           0  -1.37800       1.30000    
     16269 IM1      14       IM1      DC2      DRUD     -2.88090      0.400000           0   0.00000       0.00000    
     16270 IM1      14       IM1      H4       HDR5A    0.150000       1.00800           0   0.00000       0.00000    
     16271 IM1      14       IM1      C3       CD2R5A    3.06890       11.6110           0  -1.37800       1.30000    
     16272 IM1      14       IM1      DC3      DRUD     -2.88090      0.400000           0   0.00000       0.00000    
     16273 IM1      14       IM1      H5       HDR5A    0.530000E-01   1.00800           0   0.00000       0.00000    
     16274 IM1      14       IM1      C4       CD2R5B    2.40440       11.6110           0 -0.868000       1.30000    
     16275 IM1      14       IM1      DC4      DRUD     -2.28640      0.400000           0   0.00000       0.00000    
     16276 IM1      14       IM1      H6       HDR5B    0.730000E-01   1.00800           0   0.00000       0.00000    
     16277 IM1      14       IM1      N2       ND2R5B    2.24930       13.6070           0 -0.840000       1.00000    
     16278 IM1      14       IM1      DN2      DRUD     -2.24930      0.400000           0   0.00000       0.00000    
     16279 IM1      14       IM1      H7       DUMH      0.00000       1.00800           0   0.00000       0.00000    
     16280 IM1      14       IM1      LPN21    LPD     -0.474000       0.00000          -1   0.00000       0.00000    
     16281 IM1      15       IM1      C1       CD33G     2.39060       11.6110           0  -1.08100       1.00000    
     16282 IM1      15       IM1      DC1      DRUD     -2.55160      0.400000           0   0.00000       0.00000    
     16283 IM1      15       IM1      H1       HDA3A    0.940000E-01   1.00800           0   0.00000       0.00000    
     16284 IM1      15       IM1      H2       HDA3A    0.940000E-01   1.00800           0   0.00000       0.00000    
     16285 IM1      15       IM1      H3       HDA3A    0.940000E-01   1.00800           0   0.00000       0.00000    
     16286 IM1      15       IM1      N1       ND2R5A    2.67030       13.6070           0  -1.06300       1.30000    
     16287 IM1      15       IM1      DN1      DRUD     -2.53030      0.400000           0   0.00000       0.00000    
     16288 IM1      15       IM1      C2       CD2R5A    2.51190       11.6110           0  -1.37800       1.30000    
     16289 IM1      15       IM1      DC2      DRUD     -2.88090      0.400000           0   0.00000       0.00000    
     16290 IM1      15       IM1      H4       HDR5A    0.150000       1.00800           0   0.00000       0.00000    
     16291 IM1      15       IM1      C3       CD2R5A    3.06890       11.6110           0  -1.37800       1.30000    
     16292 IM1      15       IM1      DC3      DRUD     -2.88090      0.400000           0   0.00000       0.00000    
     16293 IM1      15       IM1      H5       HDR5A    0.530000E-01   1.00800           0   0.00000       0.00000    
     16294 IM1      15       IM1      C4       CD2R5B    2.40440       11.6110           0 -0.868000       1.30000    
     16295 IM1      15       IM1      DC4      DRUD     -2.28640      0.400000           0   0.00000       0.00000    
     16296 IM1      15       IM1      H6       HDR5B    0.730000E-01   1.00800           0   0.00000       0.00000    
     16297 IM1      15       IM1      N2       ND2R5B    2.24930       13.6070           0 -0.840000       1.00000    
     16298 IM1      15       IM1      DN2      DRUD     -2.24930      0.400000           0   0.00000       0.00000    
     16299 IM1      15       IM1      H7       DUMH      0.00000       1.00800           0   0.00000       0.00000    
     16300 IM1      15       IM1      LPN21    LPD     -0.474000       0.00000          -1   0.00000       0.00000    
     16301 IM1      16       IM1      C1       CD33G     2.39060       11.6110           0  -1.08100       1.00000    
     16302 IM1      16       IM1      DC1      DRUD     -2.55160      0.400000           0   0.00000       0.00000    
     16303 IM1      16       IM1      H1       HDA3A    0.940000E-01   1.00800           0   0.00000       0.00000    
     16304 IM1      16       IM1      H2       HDA3A    0.940000E-01   1.00800           0   0.00000       0.00000    
     16305 IM1      16       IM1      H3       HDA3A    0.940000E-01   1.00800           0   0.00000       0.00000    
     16306 IM1      16       IM1      N1       ND2R5A    2.67030       13.6070           0  -1.06300       1.30000    
     16307 IM1      16       IM1      DN1      DRUD     -2.53030      0.400000           0   0.00000       0.00000    
     16308 IM1      16       IM1      C2       CD2R5A    2.51190       11.6110           0  -1.37800       1.30000    
     16309 IM1      16       IM1      DC2      DRUD     -2.88090      0.400000           0   0.00000       0.00000    
     16310 IM1      16       IM1      H4       HDR5A    0.150000       1.00800           0   0.00000       0.00000    
     16311 IM1      16       IM1      C3       CD2R5A    3.06890       11.6110           0  -1.37800       1.30000    
     16312 IM1      16       IM1      DC3      DRUD     -2.88090      0.400000           0   0.00000       0.00000    
     16313 IM1      16       IM1      H5       HDR5A    0.530000E-01   1.00800           0   0.00000       0.00000    
     16314 IM1      16       IM1      C4       CD2R5B    2.40440       11.6110           0 -0.868000       1.30000    
     16315 IM1      16       IM1      DC4      DRUD     -2.28640      0.400000           0   0.00000       0.00000    
     16316 IM1      16       IM1      H6       HDR5B    0.730000E-01   1.00800           0   0.00000       0.00000    
     16317 IM1      16       IM1      N2       ND2R5B    2.24930       13.6070           0 -0.840000       1.00000    
     16318 IM1      16       IM1      DN2      DRUD     -2.24930      0.400000           0   0.00000       0.00000    
     16319 IM1      16       IM1      H7       DUMH      0.00000       1.00800           0   0.00000       0.00000    
     16320 IM1      16       IM1      LPN21    LPD     -0.474000       0.00000          -1   0.00000       0.00000    
     16321 IM1      17       IM1      C1       CD33G     2.39060       11.6110           0  -1.08100       1.00000    
     16322 IM1      17       IM1      DC1      DRUD     -2.55160      0.400000           0   0.00000       0.00000    
     16323 IM1      17       IM1      H1       HDA3A    0.940000E-01   1.00800           0   0.00000       0.00000    
     16324 IM1      17       IM1      H2       HDA3A    0.940000E-01   1.00800           0   0.00000       0.00000    
     16325 IM1      17       IM1      H3       HDA3A    0.940000E-01   1.00800           0   0.00000       0.00000    
     16326 IM1      17       IM1      N1       ND2R5A    2.67030       13.6070           0  -1.06300       1.30000    
     16327 IM1      17       IM1      DN1      DRUD     -2.53030      0.400000           0   0.00000       0.00000    
     16328 IM1      17       IM1      C2       CD2R5A    2.51190       11.6110           0  -1.37800       1.30000    
     16329 IM1      17       IM1      DC2      DRUD     -2.88090      0.400000           0   0.00000       0.00000    
     16330 IM1      17       IM1      H4       HDR5A    0.150000       1.00800           0   0.00000       0.00000    
     16331 IM1      17       IM1      C3       CD2R5A    3.06890       11.6110           0  -1.37800       1.30000    
     16332 IM1      17       IM1      DC3      DRUD     -2.88090      0.400000           0   0.00000       0.00000    
     16333 IM1      17       IM1      H5       HDR5A    0.530000E-01   1.00800           0   0.00000       0.00000    
     16334 IM1      17       IM1      C4       CD2R5B    2.40440       11.6110           0 -0.868000       1.30000    
     16335 IM1      17       IM1      DC4      DRUD     -2.28640      0.400000           0   0.00000       0.00000    
     16336 IM1      17       IM1      H6       HDR5B    0.730000E-01   1.00800           0   0.00000       0.00000    
     16337 IM1      17       IM1      N2       ND2R5B    2.24930       13.6070           0 -0.840000       1.00000    
     16338 IM1      17       IM1      DN2      DRUD     -2.24930      0.400000           0   0.00000       0.00000    
     16339 IM1      17       IM1      H7       DUMH      0.00000       1.00800           0   0.00000       0.00000    
     16340 IM1      17       IM1      LPN21    LPD     -0.474000       0.00000          -1   0.00000       0.00000    
     16341 IM1      18       IM1      C1       CD33G     2.39060       11.6110           0  -1.08100       1.00000    
     16342 IM1      18       IM1      DC1      DRUD     -2.55160      0.400000           0   0.00000       0.00000    
     16343 IM1      18       IM1      H1       HDA3A    0.940000E-01   1.00800           0   0.00000       0.00000    
     16344 IM1      18       IM1      H2       HDA3A    0.940000E-01   1.00800           0   0.00000       0.00000    
     16345 IM1      18       IM1      H3       HDA3A    0.940000E-01   1.00800           0   0.00000       0.00000    
     16346 IM1      18       IM1      N1       ND2R5A    2.67030       13.6070           0  -1.06300       1.30000    
     16347 IM1      18       IM1      DN1      DRUD     -2.53030      0.400000           0   0.00000       0.00000    
     16348 IM1      18       IM1      C2       CD2R5A    2.51190       11.6110           0  -1.37800       1.30000    
     16349 IM1      18       IM1      DC2      DRUD     -2.88090      0.400000           0   0.00000       0.00000    
     16350 IM1      18       IM1      H4       HDR5A    0.150000       1.00800           0   0.00000       0.00000    
     16351 IM1      18       IM1      C3       CD2R5A    3.06890       11.6110           0  -1.37800       1.30000    
     16352 IM1      18       IM1      DC3      DRUD     -2.88090      0.400000           0   0.00000       0.00000    
     16353 IM1      18       IM1      H5       HDR5A    0.530000E-01   1.00800           0   0.00000       0.00000    
     16354 IM1      18       IM1      C4       CD2R5B    2.40440       11.6110           0 -0.868000       1.30000    
     16355 IM1      18       IM1      DC4      DRUD     -2.28640      0.400000           0   0.00000       0.00000    
     16356 IM1      18       IM1      H6       HDR5B    0.730000E-01   1.00800           0   0.00000       0.00000    
     16357 IM1      18       IM1      N2       ND2R5B    2.24930       13.6070           0 -0.840000       1.00000    
     16358 IM1      18       IM1      DN2      DRUD     -2.24930      0.400000           0   0.00000       0.00000    
     16359 IM1      18       IM1      H7       DUMH      0.00000       1.00800           0   0.00000       0.00000    
     16360 IM1      18       IM1      LPN21    LPD     -0.474000       0.00000          -1   0.00000       0.00000    
     16361 IM1      19       IM1      C1       CD33G     2.39060       11.6110           0  -1.08100       1.00000    
     16362 IM1      19       IM1      DC1      DRUD     -2.55160      0.400000           0   0.00000       0.00000    
     16363 IM1      19       IM1      H1       HDA3A    0.940000E-01   1.00800           0   0.00000       0.00000    
     16364 IM1      19       IM1      H2       HDA3A    0.940000E-01   1.00800           0   0.00000       0.00000    
     16365 IM1      19       IM1      H3       HDA3A    0.940000E-01   1.00800           0   0.00000       0.00000    
     16366 IM1      19       IM1      N1       ND2R5A    2.67030       13.6070           0  -1.06300       1.30000    
     16367 IM1      19       IM1      DN1      DRUD     -2.53030      0.400000           0   0.00000       0.00000    
     16368 IM1      19       IM1      C2       CD2R5A    2.51190       11.6110           0  -1.37800       1.30000    
     16369 IM1      19       IM1      DC2      DRUD     -2.88090      0.400000           0   0.00000       0.00000    
     16370 IM1      19       IM1      H4       HDR5A    0.150000       1.00800           0   0.00000       0.00000    
     16371 IM1      19       IM1      C3       CD2R5A    3.06890       11.6110           0  -1.37800       1.30000    
     16372 IM1      19       IM1      DC3      DRUD     -2.88090      0.400000           0   0.00000       0.00000    
     16373 IM1      19       IM1      H5       HDR5A    0.530000E-01   1.00800           0   0.00000       0.00000    
     16374 IM1      19       IM1      C4       CD2R5B    2.40440       11.6110           0 -0.868000       1.30000    
     16375 IM1      19       IM1      DC4      DRUD     -2.28640      0.400000           0   0.00000       0.00000    
     16376 IM1      19       IM1      H6       HDR5B    0.730000E-01   1.00800           0   0.00000       0.00000    
     16377 IM1      19       IM1      N2       ND2R5B    2.24930       13.6070           0 -0.840000       1.00000    
     16378 IM1      19       IM1      DN2      DRUD     -2.24930      0.400000           0   0.00000       0.00000    
     16379 IM1      19       IM1      H7       DUMH      0.00000       1.00800           0   0.00000       0.00000    
     16380 IM1      19       IM1      LPN21    LPD     -0.474000       0.00000          -1   0.00000       0.00000    
     16381 IM1      20       IM1      C1       CD33G     2.39060       11.6110           0  -1.08100       1.00000    
     16382 IM1      20       IM1      DC1      DRUD     -2.55160      0.400000           0   0.00000       0.00000    
     16383 IM1      20       IM1      H1       HDA3A    0.940000E-01   1.00800           0   0.00000       0.00000    
     16384 IM1      20       IM1      H2       HDA3A    0.940000E-01   1.00800           0   0.00000       0.00000    
     16385 IM1      20       IM1      H3       HDA3A    0.940000E-01   1.00800           0   0.00000       0.00000    
     16386 IM1      20       IM1      N1       ND2R5A    2.67030       13.6070           0  -1.06300       1.30000    
     16387 IM1      20       IM1      DN1      DRUD     -2.53030      0.400000           0   0.00000       0.00000    
     16388 IM1      20       IM1      C2       CD2R5A    2.51190       11.6110           0  -1.37800       1.30000    
     16389 IM1      20       IM1      DC2      DRUD     -2.88090      0.400000           0   0.00000       0.00000    
     16390 IM1      20       IM1      H4       HDR5A    0.150000       1.00800           0   0.00000       0.00000    
     16391 IM1      20       IM1      C3       CD2R5A    3.06890       11.6110           0  -1.37800       1.30000    
     16392 IM1      20       IM1      DC3      DRUD     -2.88090      0.400000           0   0.00000       0.00000    
     16393 IM1      20       IM1      H5       HDR5A    0.530000E-01   1.00800           0   0.00000       0.00000    
     16394 IM1      20       IM1      C4       CD2R5B    2.40440       11.6110           0 -0.868000       1.30000    
     16395 IM1      20       IM1      DC4      DRUD     -2.28640      0.400000           0   0.00000       0.00000    
     16396 IM1      20       IM1      H6       HDR5B    0.730000E-01   1.00800           0   0.00000       0.00000    
     16397 IM1      20       IM1      N2       ND2R5B    2.24930       13.6070           0 -0.840000       1.00000    
     16398 IM1      20       IM1      DN2      DRUD     -2.24930      0.400000           0   0.00000       0.00000    
     16399 IM1      20       IM1      H7       DUMH      0.00000       1.00800           0   0.00000       0.00000    
     16400 IM1      20       IM1      LPN21    LPD     -0.474000       0.00000          -1   0.00000       0.00000    
     16401 IM1      21       IM1      C1       CD33G     2.39060       11.6110           0  -1.08100       1.00000    
     16402 IM1      21       IM1      DC1      DRUD     -2.55160      0.400000           0   0.00000       0.00000    
     16403 IM1      21       IM1      H1       HDA3A    0.940000E-01   1.00800           0   0.00000       0.00000    
     16404 IM1      21       IM1      H2       HDA3A    0.940000E-01   1.00800           0   0.00000       0.00000    
     16405 IM1      21       IM1      H3       HDA3A    0.940000E-01   1.00800           0   0.00000       0.00000    
     16406 IM1      21       IM1      N1       ND2R5A    2.67030       13.6070           0  -1.06300       1.30000    
     16407 IM1      21       IM1      DN1      DRUD     -2.53030      0.400000           0   0.00000       0.00000    
     16408 IM1      21       IM1      C2       CD2R5A    2.51190       11.6110           0  -1.37800       1.30000    
     16409 IM1      21       IM1      DC2      DRUD     -2.88090      0.400000           0   0.00000       0.00000    
     16410 IM1      21       IM1      H4       HDR5A    0.150000       1.00800           0   0.00000       0.00000    
     16411 IM1      21       IM1      C3       CD2R5A    3.06890       11.6110           0  -1.37800       1.30000    
     16412 IM1      21       IM1      DC3      DRUD     -2.88090      0.400000           0   0.00000       0.00000    
     16413 IM1      21       IM1      H5       HDR5A    0.530000E-01   1.00800           0   0.00000       0.00000    
     16414 IM1      21       IM1      C4       CD2R5B    2.40440       11.6110           0 -0.868000       1.30000    
     16415 IM1      21       IM1      DC4      DRUD     -2.28640      0.400000           0   0.00000       0.00000    
     16416 IM1      21       IM1      H6       HDR5B    0.730000E-01   1.00800           0   0.00000       0.00000    
     16417 IM1      21       IM1      N2       ND2R5B    2.24930       13.6070           0 -0.840000       1.00000    
     16418 IM1      21       IM1      DN2      DRUD     -2.24930      0.400000           0   0.00000       0.00000    
     16419 IM1      21       IM1      H7       DUMH      0.00000       1.00800           0   0.00000       0.00000    
     16420 IM1      21       IM1      LPN21    LPD     -0.474000       0.00000          -1   0.00000       0.00000    
     16421 IM1      22       IM1      C1       CD33G     2.39060       11.6110           0  -1.08100       1.00000    
     16422 IM1      22       IM1      DC1      DRUD     -2.55160      0.400000           0   0.00000       0.00000    
     16423 IM1      22       IM1      H1       HDA3A    0.940000E-01   1.00800           0   0.00000       0.00000    
     16424 IM1      22       IM1      H2       HDA3A    0.940000E-01   1.00800           0   0.00000       0.00000    
     16425 IM1      22       IM1      H3       HDA3A    0.940000E-01   1.00800           0   0.00000       0.00000    
     16426 IM1      22       IM1      N1       ND2R5A    2.67030       13.6070           0  -1.06300       1.30000    
     16427 IM1      22       IM1      DN1      DRUD     -2.53030      0.400000           0   0.00000       0.00000    
     16428 IM1      22       IM1      C2       CD2R5A    2.51190       11.6110           0  -1.37800       1.30000    
     16429 IM1      22       IM1      DC2      DRUD     -2.88090      0.400000           0   0.00000       0.00000    
     16430 IM1      22       IM1      H4       HDR5A    0.150000       1.00800           0   0.00000       0.00000    
     16431 IM1      22       IM1      C3       CD2R5A    3.06890       11.6110           0  -1.37800       1.30000    
     16432 IM1      22       IM1      DC3      DRUD     -2.88090      0.400000           0   0.00000       0.00000    
     16433 IM1      22       IM1      H5       HDR5A    0.530000E-01   1.00800           0   0.00000       0.00000    
     16434 IM1      22       IM1      C4       CD2R5B    2.40440       11.6110           0 -0.868000       1.30000    
     16435 IM1      22       IM1      DC4      DRUD     -2.28640      0.400000           0   0.00000       0.00000    
     16436 IM1      22       IM1      H6       HDR5B    0.730000E-01   1.00800           0   0.00000       0.00000    
     16437 IM1      22       IM1      N2       ND2R5B    2.24930       13.6070           0 -0.840000       1.00000    
     16438 IM1      22       IM1      DN2      DRUD     -2.24930      0.400000           0   0.00000       0.00000    
     16439 IM1      22       IM1      H7       DUMH      0.00000       1.00800           0   0.00000       0.00000    
     16440 IM1      22       IM1      LPN21    LPD     -0.474000       0.00000          -1   0.00000       0.00000    
     16441 IM1      23       IM1      C1       CD33G     2.39060       11.6110           0  -1.08100       1.00000    
     16442 IM1      23       IM1      DC1      DRUD     -2.55160      0.400000           0   0.00000       0.00000    
     16443 IM1      23       IM1      H1       HDA3A    0.940000E-01   1.00800           0   0.00000       0.00000    
     16444 IM1      23       IM1      H2       HDA3A    0.940000E-01   1.00800           0   0.00000       0.00000    
     16445 IM1      23       IM1      H3       HDA3A    0.940000E-01   1.00800           0   0.00000       0.00000    
     16446 IM1      23       IM1      N1       ND2R5A    2.67030       13.6070           0  -1.06300       1.30000    
     16447 IM1      23       IM1      DN1      DRUD     -2.53030      0.400000           0   0.00000       0.00000    
     16448 IM1      23       IM1      C2       CD2R5A    2.51190       11.6110           0  -1.37800       1.30000    
     16449 IM1      23       IM1      DC2      DRUD     -2.88090      0.400000           0   0.00000       0.00000    
     16450 IM1      23       IM1      H4       HDR5A    0.150000       1.00800           0   0.00000       0.00000    
     16451 IM1      23       IM1      C3       CD2R5A    3.06890       11.6110           0  -1.37800       1.30000    
     16452 IM1      23       IM1      DC3      DRUD     -2.88090      0.400000           0   0.00000       0.00000    
     16453 IM1      23       IM1      H5       HDR5A    0.530000E-01   1.00800           0   0.00000       0.00000    
     16454 IM1      23       IM1      C4       CD2R5B    2.40440       11.6110           0 -0.868000       1.30000    
     16455 IM1      23       IM1      DC4      DRUD     -2.28640      0.400000           0   0.00000       0.00000    
     16456 IM1      23       IM1      H6       HDR5B    0.730000E-01   1.00800           0   0.00000       0.00000    
     16457 IM1      23       IM1      N2       ND2R5B    2.24930       13.6070           0 -0.840000       1.00000    
     16458 IM1      23       IM1      DN2      DRUD     -2.24930      0.400000           0   0.00000       0.00000    
     16459 IM1      23       IM1      H7       DUMH      0.00000       1.00800           0   0.00000       0.00000    
     16460 IM1      23       IM1      LPN21    LPD     -0.474000       0.00000          -1   0.00000       0.00000    
     16461 IM1      24       IM1      C1       CD33G     2.39060       11.6110           0  -1.08100       1.00000    
     16462 IM1      24       IM1      DC1      DRUD     -2.55160      0.400000           0   0.00000       0.00000    
     16463 IM1      24       IM1      H1       HDA3A    0.940000E-01   1.00800           0   0.00000       0.00000    
     16464 IM1      24       IM1      H2       HDA3A    0.940000E-01   1.00800           0   0.00000       0.00000    
     16465 IM1      24       IM1      H3       HDA3A    0.940000E-01   1.00800           0   0.00000       0.00000    
     16466 IM1      24       IM1      N1       ND2R5A    2.67030       13.6070           0  -1.06300       1.30000    
     16467 IM1      24       IM1      DN1      DRUD     -2.53030      0.400000           0   0.00000       0.00000    
     16468 IM1      24       IM1      C2       CD2R5A    2.51190       11.6110           0  -1.37800       1.30000    
     16469 IM1      24       IM1      DC2      DRUD     -2.88090      0.400000           0   0.00000       0.00000    
     16470 IM1      24       IM1      H4       HDR5A    0.150000       1.00800           0   0.00000       0.00000    
     16471 IM1      24       IM1      C3       CD2R5A    3.06890       11.6110           0  -1.37800       1.30000    
     16472 IM1      24       IM1      DC3      DRUD     -2.88090      0.400000           0   0.00000       0.00000    
     16473 IM1      24       IM1      H5       HDR5A    0.530000E-01   1.00800           0   0.00000       0.00000    
     16474 IM1      24       IM1      C4       CD2R5B    2.40440       11.6110           0 -0.868000       1.30000    
     16475 IM1      24       IM1      DC4      DRUD     -2.28640      0.400000           0   0.00000       0.00000    
     16476 IM1      24       IM1      H6       HDR5B    0.730000E-01   1.00800           0   0.00000       0.00000    
     16477 IM1      24       IM1      N2       ND2R5B    2.24930       13.6070           0 -0.840000       1.00000    
     16478 IM1      24       IM1      DN2      DRUD     -2.24930      0.400000           0   0.00000       0.00000    
     16479 IM1      24       IM1      H7       DUMH      0.00000       1.00800           0   0.00000       0.00000    
     16480 IM1      24       IM1      LPN21    LPD     -0.474000       0.00000          -1   0.00000       0.00000    
     16481 IM1      25       IM1      C1       CD33G     2.39060       11.6110           0  -1.08100       1.00000    
     16482 IM1      25       IM1      DC1      DRUD     -2.55160      0.400000           0   0.00000       0.00000    
     16483 IM1      25       IM1      H1       HDA3A    0.940000E-01   1.00800           0   0.00000       0.00000    
     16484 IM1      25       IM1      H2       HDA3A    0.940000E-01   1.00800           0   0.00000       0.00000    
     16485 IM1      25       IM1      H3       HDA3A    0.940000E-01   1.00800           0   0.00000       0.00000    
     16486 IM1      25       IM1      N1       ND2R5A    2.67030       13.6070           0  -1.06300       1.30000    
     16487 IM1      25       IM1      DN1      DRUD     -2.53030      0.400000           0   0.00000       0.00000    
     16488 IM1      25       IM1      C2       CD2R5A    2.51190       11.6110           0  -1.37800       1.30000    
     16489 IM1      25       IM1      DC2      DRUD     -2.88090      0.400000           0   0.00000       0.00000    
     16490 IM1      25       IM1      H4       HDR5A    0.150000       1.00800           0   0.00000       0.00000    
     16491 IM1      25       IM1      C3       CD2R5A    3.06890       11.6110           0  -1.37800       1.30000    
     16492 IM1      25       IM1      DC3      DRUD     -2.88090      0.400000           0   0.00000       0.00000    
     16493 IM1      25       IM1      H5       HDR5A    0.530000E-01   1.00800           0   0.00000       0.00000    
     16494 IM1      25       IM1      C4       CD2R5B    2.40440       11.6110           0 -0.868000       1.30000    
     16495 IM1      25       IM1      DC4      DRUD     -2.28640      0.400000           0   0.00000       0.00000    
     16496 IM1      25       IM1      H6       HDR5B    0.730000E-01   1.00800           0   0.00000       0.00000    
     16497 IM1      25       IM1      N2       ND2R5B    2.24930       13.6070           0 -0.840000       1.00000    
     16498 IM1      25       IM1      DN2      DRUD     -2.24930      0.400000           0   0.00000       0.00000    
     16499 IM1      25       IM1      H7       DUMH      0.00000       1.00800           0   0.00000       0.00000    
     16500 IM1      25       IM1      LPN21    LPD     -0.474000       0.00000          -1   0.00000       0.00000    
     16501 IM1      26       IM1      C1       CD33G     2.39060       11.6110           0  -1.08100       1.00000    
     16502 IM1      26       IM1      DC1      DRUD     -2.55160      0.400000           0   0.00000       0.00000    
     16503 IM1      26       IM1      H1       HDA3A    0.940000E-01   1.00800           0   0.00000       0.00000    
     16504 IM1      26       IM1      H2       HDA3A    0.940000E-01   1.00800           0   0.00000       0.00000    
     16505 IM1      26       IM1      H3       HDA3A    0.940000E-01   1.00800           0   0.00000       0.00000    
     16506 IM1      26       IM1      N1       ND2R5A    2.67030       13.6070           0  -1.06300       1.30000    
     16507 IM1      26       IM1      DN1      DRUD     -2.53030      0.400000           0   0.00000       0.00000    
     16508 IM1      26       IM1      C2       CD2R5A    2.51190       11.6110           0  -1.37800       1.30000    
     16509 IM1      26       IM1      DC2      DRUD     -2.88090      0.400000           0   0.00000       0.00000    
     16510 IM1      26       IM1      H4       HDR5A    0.150000       1.00800           0   0.00000       0.00000    
     16511 IM1      26       IM1      C3       CD2R5A    3.06890       11.6110           0  -1.37800       1.30000    
     16512 IM1      26       IM1      DC3      DRUD     -2.88090      0.400000           0   0.00000       0.00000    
     16513 IM1      26       IM1      H5       HDR5A    0.530000E-01   1.00800           0   0.00000       0.00000    
     16514 IM1      26       IM1      C4       CD2R5B    2.40440       11.6110           0 -0.868000       1.30000    
     16515 IM1      26       IM1      DC4      DRUD     -2.28640      0.400000           0   0.00000       0.00000    
     16516 IM1      26       IM1      H6       HDR5B    0.730000E-01   1.00800           0   0.00000       0.00000    
     16517 IM1      26       IM1      N2       ND2R5B    2.24930       13.6070           0 -0.840000       1.00000    
     16518 IM1      26       IM1      DN2      DRUD     -2.24930      0.400000           0   0.00000       0.00000    
     16519 IM1      26       IM1      H7       DUMH      0.00000       1.00800           0   0.00000       0.00000    
     16520 IM1      26       IM1      LPN21    LPD     -0.474000       0.00000          -1   0.00000       0.00000    
     16521 IM1      27       IM1      C1       CD33G     2.39060       11.6110           0  -1.08100       1.00000    
     16522 IM1      27       IM1      DC1      DRUD     -2.55160      0.400000           0   0.00000       0.00000    
     16523 IM1      27       IM1      H1       HDA3A    0.940000E-01   1.00800           0   0.00000       0.00000    
     16524 IM1      27       IM1      H2       HDA3A    0.940000E-01   1.00800           0   0.00000       0.00000    
     16525 IM1      27       IM1      H3       HDA3A    0.940000E-01   1.00800           0   0.00000       0.00000    
     16526 IM1      27       IM1      N1       ND2R5A    2.67030       13.6070           0  -1.06300       1.30000    
     16527 IM1      27       IM1      DN1      DRUD     -2.53030      0.400000           0   0.00000       0.00000    
     16528 IM1      27       IM1      C2       CD2R5A    2.51190       11.6110           0  -1.37800       1.30000    
     16529 IM1      27       IM1      DC2      DRUD     -2.88090      0.400000           0   0.00000       0.00000    
     16530 IM1      27       IM1      H4       HDR5A    0.150000       1.00800           0   0.00000       0.00000    
     16531 IM1      27       IM1      C3       CD2R5A    3.06890       11.6110           0  -1.37800       1.30000    
     16532 IM1      27       IM1      DC3      DRUD     -2.88090      0.400000           0   0.00000       0.00000    
     16533 IM1      27       IM1      H5       HDR5A    0.530000E-01   1.00800           0   0.00000       0.00000    
     16534 IM1      27       IM1      C4       CD2R5B    2.40440       11.6110           0 -0.868000       1.30000    
     16535 IM1      27       IM1      DC4      DRUD     -2.28640      0.400000           0   0.00000       0.00000    
     16536 IM1      27       IM1      H6       HDR5B    0.730000E-01   1.00800           0   0.00000       0.00000    
     16537 IM1      27       IM1      N2       ND2R5B    2.24930       13.6070           0 -0.840000       1.00000    
     16538 IM1      27       IM1      DN2      DRUD     -2.24930      0.400000           0   0.00000       0.00000    
     16539 IM1      27       IM1      H7       DUMH      0.00000       1.00800           0   0.00000       0.00000    
     16540 IM1      27       IM1      LPN21    LPD     -0.474000       0.00000          -1   0.00000       0.00000    
     16541 IM1      28       IM1      C1       CD33G     2.39060       11.6110           0  -1.08100       1.00000    
     16542 IM1      28       IM1      DC1      DRUD     -2.55160      0.400000           0   0.00000       0.00000    
     16543 IM1      28       IM1      H1       HDA3A    0.940000E-01   1.00800           0   0.00000       0.00000    
     16544 IM1      28       IM1      H2       HDA3A    0.940000E-01   1.00800           0   0.00000       0.00000    
     16545 IM1      28       IM1      H3       HDA3A    0.940000E-01   1.00800           0   0.00000       0.00000    
     16546 IM1      28       IM1      N1       ND2R5A    2.67030       13.6070           0  -1.06300       1.30000    
     16547 IM1      28       IM1      DN1      DRUD     -2.53030      0.400000           0   0.00000       0.00000    
     16548 IM1      28       IM1      C2       CD2R5A    2.51190       11.6110           0  -1.37800       1.30000    
     16549 IM1      28       IM1      DC2      DRUD     -2.88090      0.400000           0   0.00000       0.00000    
     16550 IM1      28       IM1      H4       HDR5A    0.150000       1.00800           0   0.00000       0.00000    
     16551 IM1      28       IM1      C3       CD2R5A    3.06890       11.6110           0  -1.37800       1.30000    
     16552 IM1      28       IM1      DC3      DRUD     -2.88090      0.400000           0   0.00000       0.00000    
     16553 IM1      28       IM1      H5       HDR5A    0.530000E-01   1.00800           0   0.00000       0.00000    
     16554 IM1      28       IM1      C4       CD2R5B    2.40440       11.6110           0 -0.868000       1.30000    
     16555 IM1      28       IM1      DC4      DRUD     -2.28640      0.400000           0   0.00000       0.00000    
     16556 IM1      28       IM1      H6       HDR5B    0.730000E-01   1.00800           0   0.00000       0.00000    
     16557 IM1      28       IM1      N2       ND2R5B    2.24930       13.6070           0 -0.840000       1.00000    
     16558 IM1      28       IM1      DN2      DRUD     -2.24930      0.400000           0   0.00000       0.00000    
     16559 IM1      28       IM1      H7       DUMH      0.00000       1.00800           0   0.00000       0.00000    
     16560 IM1      28       IM1      LPN21    LPD     -0.474000       0.00000          -1   0.00000       0.00000    
     16561 IM1      29       IM1      C1       CD33G     2.39060       11.6110           0  -1.08100       1.00000    
     16562 IM1      29       IM1      DC1      DRUD     -2.55160      0.400000           0   0.00000       0.00000    
     16563 IM1      29       IM1      H1       HDA3A    0.940000E-01   1.00800           0   0.00000       0.00000    
     16564 IM1      29       IM1      H2       HDA3A    0.940000E-01   1.00800           0   0.00000       0.00000    
     16565 IM1      29       IM1      H3       HDA3A    0.940000E-01   1.00800           0   0.00000       0.00000    
     16566 IM1      29       IM1      N1       ND2R5A    2.67030       13.6070           0  -1.06300       1.30000    
     16567 IM1      29       IM1      DN1      DRUD     -2.53030      0.400000           0   0.00000       0.00000    
     16568 IM1      29       IM1      C2       CD2R5A    2.51190       11.6110           0  -1.37800       1.30000    
     16569 IM1      29       IM1      DC2      DRUD     -2.88090      0.400000           0   0.00000       0.00000    
     16570 IM1      29       IM1      H4       HDR5A    0.150000       1.00800           0   0.00000       0.00000    
     16571 IM1      29       IM1      C3       CD2R5A    3.06890       11.6110           0  -1.37800       1.30000    
     16572 IM1      29       IM1      DC3      DRUD     -2.88090      0.400000           0   0.00000       0.00000    
     16573 IM1      29       IM1      H5       HDR5A    0.530000E-01   1.00800           0   0.00000       0.00000    
     16574 IM1      29       IM1      C4       CD2R5B    2.40440       11.6110           0 -0.868000       1.30000    
     16575 IM1      29       IM1      DC4      DRUD     -2.28640      0.400000           0   0.00000       0.00000    
     16576 IM1      29       IM1      H6       HDR5B    0.730000E-01   1.00800           0   0.00000       0.00000    
     16577 IM1      29       IM1      N2       ND2R5B    2.24930       13.6070           0 -0.840000       1.00000    
     16578 IM1      29       IM1      DN2      DRUD     -2.24930      0.400000           0   0.00000       0.00000    
     16579 IM1      29       IM1      H7       DUMH      0.00000       1.00800           0   0.00000       0.00000    
     16580 IM1      29       IM1      LPN21    LPD     -0.474000       0.00000          -1   0.00000       0.00000    
     16581 IM1      30       IM1      C1       CD33G     2.39060       11.6110           0  -1.08100       1.00000    
     16582 IM1      30       IM1      DC1      DRUD     -2.55160      0.400000           0   0.00000       0.00000    
     16583 IM1      30       IM1      H1       HDA3A    0.940000E-01   1.00800           0   0.00000       0.00000    
     16584 IM1      30       IM1      H2       HDA3A    0.940000E-01   1.00800           0   0.00000       0.00000    
     16585 IM1      30       IM1      H3       HDA3A    0.940000E-01   1.00800           0   0.00000       0.00000    
     16586 IM1      30       IM1      N1       ND2R5A    2.67030       13.6070           0  -1.06300       1.30000    
     16587 IM1      30       IM1      DN1      DRUD     -2.53030      0.400000           0   0.00000       0.00000    
     16588 IM1      30       IM1      C2       CD2R5A    2.51190       11.6110           0  -1.37800       1.30000    
     16589 IM1      30       IM1      DC2      DRUD     -2.88090      0.400000           0   0.00000       0.00000    
     16590 IM1      30       IM1      H4       HDR5A    0.150000       1.00800           0   0.00000       0.00000    
     16591 IM1      30       IM1      C3       CD2R5A    3.06890       11.6110           0  -1.37800       1.30000    
     16592 IM1      30       IM1      DC3      DRUD     -2.88090      0.400000           0   0.00000       0.00000    
     16593 IM1      30       IM1      H5       HDR5A    0.530000E-01   1.00800           0   0.00000       0.00000    
     16594 IM1      30       IM1      C4       CD2R5B    2.40440       11.6110           0 -0.868000       1.30000    
     16595 IM1      30       IM1      DC4      DRUD     -2.28640      0.400000           0   0.00000       0.00000    
     16596 IM1      30       IM1      H6       HDR5B    0.730000E-01   1.00800           0   0.00000       0.00000    
     16597 IM1      30       IM1      N2       ND2R5B    2.24930       13.6070           0 -0.840000       1.00000    
     16598 IM1      30       IM1      DN2      DRUD     -2.24930      0.400000           0   0.00000       0.00000    
     16599 IM1      30       IM1      H7       DUMH      0.00000       1.00800           0   0.00000       0.00000    
     16600 IM1      30       IM1      LPN21    LPD     -0.474000       0.00000          -1   0.00000       0.00000    
     16601 IM1      31       IM1      C1       CD33G     2.39060       11.6110           0  -1.08100       1.00000    
     16602 IM1      31       IM1      DC1      DRUD     -2.55160      0.400000           0   0.00000       0.00000    
     16603 IM1      31       IM1      H1       HDA3A    0.940000E-01   1.00800           0   0.00000       0.00000    
     16604 IM1      31       IM1      H2       HDA3A    0.940000E-01   1.00800           0   0.00000       0.00000    
     16605 IM1      31       IM1      H3       HDA3A    0.940000E-01   1.00800           0   0.00000       0.00000    
     16606 IM1      31       IM1      N1       ND2R5A    2.67030       13.6070           0  -1.06300       1.30000    
     16607 IM1      31       IM1      DN1      DRUD     -2.53030      0.400000           0   0.00000       0.00000    
     16608 IM1      31       IM1      C2       CD2R5A    2.51190       11.6110           0  -1.37800       1.30000    
     16609 IM1      31       IM1      DC2      DRUD     -2.88090      0.400000           0   0.00000       0.00000    
     16610 IM1      31       IM1      H4       HDR5A    0.150000       1.00800           0   0.00000       0.00000    
     16611 IM1      31       IM1      C3       CD2R5A    3.06890       11.6110           0  -1.37800       1.30000    
     16612 IM1      31       IM1      DC3      DRUD     -2.88090      0.400000           0   0.00000       0.00000    
     16613 IM1      31       IM1      H5       HDR5A    0.530000E-01   1.00800           0   0.00000       0.00000    
     16614 IM1      31       IM1      C4       CD2R5B    2.40440       11.6110           0 -0.868000       1.30000    
     16615 IM1      31       IM1      DC4      DRUD     -2.28640      0.400000           0   0.00000       0.00000    
     16616 IM1      31       IM1      H6       HDR5B    0.730000E-01   1.00800           0   0.00000       0.00000    
     16617 IM1      31       IM1      N2       ND2R5B    2.24930       13.6070           0 -0.840000       1.00000    
     16618 IM1      31       IM1      DN2      DRUD     -2.24930      0.400000           0   0.00000       0.00000    
     16619 IM1      31       IM1      H7       DUMH      0.00000       1.00800           0   0.00000       0.00000    
     16620 IM1      31       IM1      LPN21    LPD     -0.474000       0.00000          -1   0.00000       0.00000    
     16621 IM1      32       IM1      C1       CD33G     2.39060       11.6110           0  -1.08100       1.00000    
     16622 IM1      32       IM1      DC1      DRUD     -2.55160      0.400000           0   0.00000       0.00000    
     16623 IM1      32       IM1      H1       HDA3A    0.940000E-01   1.00800           0   0.00000       0.00000    
     16624 IM1      32       IM1      H2       HDA3A    0.940000E-01   1.00800           0   0.00000       0.00000    
     16625 IM1      32       IM1      H3       HDA3A    0.940000E-01   1.00800           0   0.00000       0.00000    
     16626 IM1      32       IM1      N1       ND2R5A    2.67030       13.6070           0  -1.06300       1.30000    
     16627 IM1      32       IM1      DN1      DRUD     -2.53030      0.400000           0   0.00000       0.00000    
     16628 IM1      32       IM1      C2       CD2R5A    2.51190       11.6110           0  -1.37800       1.30000    
     16629 IM1      32       IM1      DC2      DRUD     -2.88090      0.400000           0   0.00000       0.00000    
     16630 IM1      32       IM1      H4       HDR5A    0.150000       1.00800           0   0.00000       0.00000    
     16631 IM1      32       IM1      C3       CD2R5A    3.06890       11.6110           0  -1.37800       1.30000    
     16632 IM1      32       IM1      DC3      DRUD     -2.88090      0.400000           0   0.00000       0.00000    
     16633 IM1      32       IM1      H5       HDR5A    0.530000E-01   1.00800           0   0.00000       0.00000    
     16634 IM1      32       IM1      C4       CD2R5B    2.40440       11.6110           0 -0.868000       1.30000    
     16635 IM1      32       IM1      DC4      DRUD     -2.28640      0.400000           0   0.00000       0.00000    
     16636 IM1      32       IM1      H6       HDR5B    0.730000E-01   1.00800           0   0.00000       0.00000    
     16637 IM1      32       IM1      N2       ND2R5B    2.24930       13.6070           0 -0.840000       1.00000    
     16638 IM1      32       IM1      DN2      DRUD     -2.24930      0.400000           0   0.00000       0.00000    
     16639 IM1      32       IM1      H7       DUMH      0.00000       1.00800           0   0.00000       0.00000    
     16640 IM1      32       IM1      LPN21    LPD     -0.474000       0.00000          -1   0.00000       0.00000    
     16641 IM1      33       IM1      C1       CD33G     2.39060       11.6110           0  -1.08100       1.00000    
     16642 IM1      33       IM1      DC1      DRUD     -2.55160      0.400000           0   0.00000       0.00000    
     16643 IM1      33       IM1      H1       HDA3A    0.940000E-01   1.00800           0   0.00000       0.00000    
     16644 IM1      33       IM1      H2       HDA3A    0.940000E-01   1.00800           0   0.00000       0.00000    
     16645 IM1      33       IM1      H3       HDA3A    0.940000E-01   1.00800           0   0.00000       0.00000    
     16646 IM1      33       IM1      N1       ND2R5A    2.67030       13.6070           0  -1.06300       1.30000    
     16647 IM1      33       IM1      DN1      DRUD     -2.53030      0.400000           0   0.00000       0.00000    
     16648 IM1      33       IM1      C2       CD2R5A    2.51190       11.6110           0  -1.37800       1.30000    
     16649 IM1      33       IM1      DC2      DRUD     -2.88090      0.400000           0   0.00000       0.00000    
     16650 IM1      33       IM1      H4       HDR5A    0.150000       1.00800           0   0.00000       0.00000    
     16651 IM1      33       IM1      C3       CD2R5A    3.06890       11.6110           0  -1.37800       1.30000    
     16652 IM1      33       IM1      DC3      DRUD     -2.88090      0.400000           0   0.00000       0.00000    
     16653 IM1      33       IM1      H5       HDR5A    0.530000E-01   1.00800           0   0.00000       0.00000    
     16654 IM1      33       IM1      C4       CD2R5B    2.40440       11.6110           0 -0.868000       1.30000    
     16655 IM1      33       IM1      DC4      DRUD     -2.28640      0.400000           0   0.00000       0.00000    
     16656 IM1      33       IM1      H6       HDR5B    0.730000E-01   1.00800           0   0.00000       0.00000    
     16657 IM1      33       IM1      N2       ND2R5B    2.24930       13.6070           0 -0.840000       1.00000    
     16658 IM1      33       IM1      DN2      DRUD     -2.24930      0.400000           0   0.00000       0.00000    
     16659 IM1      33       IM1      H7       DUMH      0.00000       1.00800           0   0.00000       0.00000    
     16660 IM1      33       IM1      LPN21    LPD     -0.474000       0.00000          -1   0.00000       0.00000    
     16661 IM1      34       IM1      C1       CD33G     2.39060       11.6110           0  -1.08100       1.00000    
     16662 IM1      34       IM1      DC1      DRUD     -2.55160      0.400000           0   0.00000       0.00000    
     16663 IM1      34       IM1      H1       HDA3A    0.940000E-01   1.00800           0   0.00000       0.00000    
     16664 IM1      34       IM1      H2       HDA3A    0.940000E-01   1.00800           0   0.00000       0.00000    
     16665 IM1      34       IM1      H3       HDA3A    0.940000E-01   1.00800           0   0.00000       0.00000    
     16666 IM1      34       IM1      N1       ND2R5A    2.67030       13.6070           0  -1.06300       1.30000    
     16667 IM1      34       IM1      DN1      DRUD     -2.53030      0.400000           0   0.00000       0.00000    
     16668 IM1      34       IM1      C2       CD2R5A    2.51190       11.6110           0  -1.37800       1.30000    
     16669 IM1      34       IM1      DC2      DRUD     -2.88090      0.400000           0   0.00000       0.00000    
     16670 IM1      34       IM1      H4       HDR5A    0.150000       1.00800           0   0.00000       0.00000    
     16671 IM1      34       IM1      C3       CD2R5A    3.06890       11.6110           0  -1.37800       1.30000    
     16672 IM1      34       IM1      DC3      DRUD     -2.88090      0.400000           0   0.00000       0.00000    
     16673 IM1      34       IM1      H5       HDR5A    0.530000E-01   1.00800           0   0.00000       0.00000    
     16674 IM1      34       IM1      C4       CD2R5B    2.40440       11.6110           0 -0.868000       1.30000    
     16675 IM1      34       IM1      DC4      DRUD     -2.28640      0.400000           0   0.00000       0.00000    
     16676 IM1      34       IM1      H6       HDR5B    0.730000E-01   1.00800           0   0.00000       0.00000    
     16677 IM1      34       IM1      N2       ND2R5B    2.24930       13.6070           0 -0.840000       1.00000    
     16678 IM1      34       IM1      DN2      DRUD     -2.24930      0.400000           0   0.00000       0.00000    
     16679 IM1      34       IM1      H7       DUMH      0.00000       1.00800           0   0.00000       0.00000    
     16680 IM1      34       IM1      LPN21    LPD     -0.474000       0.00000          -1   0.00000       0.00000    
     16681 IM1      35       IM1      C1       CD33G     2.39060       11.6110           0  -1.08100       1.00000    
     16682 IM1      35       IM1      DC1      DRUD     -2.55160      0.400000           0   0.00000       0.00000    
     16683 IM1      35       IM1      H1       HDA3A    0.940000E-01   1.00800           0   0.00000       0.00000    
     16684 IM1      35       IM1      H2       HDA3A    0.940000E-01   1.00800           0   0.00000       0.00000    
     16685 IM1      35       IM1      H3       HDA3A    0.940000E-01   1.00800           0   0.00000       0.00000    
     16686 IM1      35       IM1      N1       ND2R5A    2.67030       13.6070           0  -1.06300       1.30000    
     16687 IM1      35       IM1      DN1      DRUD     -2.53030      0.400000           0   0.00000       0.00000    
     16688 IM1      35       IM1      C2       CD2R5A    2.51190       11.6110           0  -1.37800       1.30000    
     16689 IM1      35       IM1      DC2      DRUD     -2.88090      0.400000           0   0.00000       0.00000    
     16690 IM1      35       IM1      H4       HDR5A    0.150000       1.00800           0   0.00000       0.00000    
     16691 IM1      35       IM1      C3       CD2R5A    3.06890       11.6110           0  -1.37800       1.30000    
     16692 IM1      35       IM1      DC3      DRUD     -2.88090      0.400000           0   0.00000       0.00000    
     16693 IM1      35       IM1      H5       HDR5A    0.530000E-01   1.00800           0   0.00000       0.00000    
     16694 IM1      35       IM1      C4       CD2R5B    2.40440       11.6110           0 -0.868000       1.30000    
     16695 IM1      35       IM1      DC4      DRUD     -2.28640      0.400000           0   0.00000       0.00000    
     16696 IM1      35       IM1      H6       HDR5B    0.730000E-01   1.00800           0   0.00000       0.00000    
     16697 IM1      35       IM1      N2       ND2R5B    2.24930       13.6070           0 -0.840000       1.00000    
     16698 IM1      35       IM1      DN2      DRUD     -2.24930      0.400000           0   0.00000       0.00000    
     16699 IM1      35       IM1      H7       DUMH      0.00000       1.00800           0   0.00000       0.00000    
     16700 IM1      35       IM1      LPN21    LPD     -0.474000       0.00000          -1   0.00000       0.00000    
     16701 IM1      36       IM1      C1       CD33G     2.39060       11.6110           0  -1.08100       1.00000    
     16702 IM1      36       IM1      DC1      DRUD     -2.55160      0.400000           0   0.00000       0.00000    
     16703 IM1      36       IM1      H1       HDA3A    0.940000E-01   1.00800           0   0.00000       0.00000    
     16704 IM1      36       IM1      H2       HDA3A    0.940000E-01   1.00800           0   0.00000       0.00000    
     16705 IM1      36       IM1      H3       HDA3A    0.940000E-01   1.00800           0   0.00000       0.00000    
     16706 IM1      36       IM1      N1       ND2R5A    2.67030       13.6070           0  -1.06300       1.30000    
     16707 IM1      36       IM1      DN1      DRUD     -2.53030      0.400000           0   0.00000       0.00000    
     16708 IM1      36       IM1      C2       CD2R5A    2.51190       11.6110           0  -1.37800       1.30000    
     16709 IM1      36       IM1      DC2      DRUD     -2.88090      0.400000           0   0.00000       0.00000    
     16710 IM1      36       IM1      H4       HDR5A    0.150000       1.00800           0   0.00000       0.00000    
     16711 IM1      36       IM1      C3       CD2R5A    3.06890       11.6110           0  -1.37800       1.30000    
     16712 IM1      36       IM1      DC3      DRUD     -2.88090      0.400000           0   0.00000       0.00000    
     16713 IM1      36       IM1      H5       HDR5A    0.530000E-01   1.00800           0   0.00000       0.00000    
     16714 IM1      36       IM1      C4       CD2R5B    2.40440       11.6110           0 -0.868000       1.30000    
     16715 IM1      36       IM1      DC4      DRUD     -2.28640      0.400000           0   0.00000       0.00000    
     16716 IM1      36       IM1      H6       HDR5B    0.730000E-01   1.00800           0   0.00000       0.00000    
     16717 IM1      36       IM1      N2       ND2R5B    2.24930       13.6070           0 -0.840000       1.00000    
     16718 IM1      36       IM1      DN2      DRUD     -2.24930      0.400000           0   0.00000       0.00000    
     16719 IM1      36       IM1      H7       DUMH      0.00000       1.00800           0   0.00000       0.00000    
     16720 IM1      36       IM1      LPN21    LPD     -0.474000       0.00000          -1   0.00000       0.00000    
     16721 IM1      37       IM1      C1       CD33G     2.39060       11.6110           0  -1.08100       1.00000    
     16722 IM1      37       IM1      DC1      DRUD     -2.55160      0.400000           0   0.00000       0.00000    
     16723 IM1      37       IM1      H1       HDA3A    0.940000E-01   1.00800           0   0.00000       0.00000    
     16724 IM1      37       IM1      H2       HDA3A    0.940000E-01   1.00800           0   0.00000       0.00000    
     16725 IM1      37       IM1      H3       HDA3A    0.940000E-01   1.00800           0   0.00000       0.00000    
     16726 IM1      37       IM1      N1       ND2R5A    2.67030       13.6070           0  -1.06300       1.30000    
     16727 IM1      37       IM1      DN1      DRUD     -2.53030      0.400000           0   0.00000       0.00000    
     16728 IM1      37       IM1      C2       CD2R5A    2.51190       11.6110           0  -1.37800       1.30000    
     16729 IM1      37       IM1      DC2      DRUD     -2.88090      0.400000           0   0.00000       0.00000    
     16730 IM1      37       IM1      H4       HDR5A    0.150000       1.00800           0   0.00000       0.00000    
     16731 IM1      37       IM1      C3       CD2R5A    3.06890       11.6110           0  -1.37800       1.30000    
     16732 IM1      37       IM1      DC3      DRUD     -2.88090      0.400000           0   0.00000       0.00000    
     16733 IM1      37       IM1      H5       HDR5A    0.530000E-01   1.00800           0   0.00000       0.00000    
     16734 IM1      37       IM1      C4       CD2R5B    2.40440       11.6110           0 -0.868000       1.30000    
     16735 IM1      37       IM1      DC4      DRUD     -2.28640      0.400000           0   0.00000       0.00000    
     16736 IM1      37       IM1      H6       HDR5B    0.730000E-01   1.00800           0   0.00000       0.00000    
     16737 IM1      37       IM1      N2       ND2R5B    2.24930       13.6070           0 -0.840000       1.00000    
     16738 IM1      37       IM1      DN2      DRUD     -2.24930      0.400000           0   0.00000       0.00000    
     16739 IM1      37       IM1      H7       DUMH      0.00000       1.00800           0   0.00000       0.00000    
     16740 IM1      37       IM1      LPN21    LPD     -0.474000       0.00000          -1   0.00000       0.00000    
     16741 IM1      38       IM1      C1       CD33G     2.39060       11.6110           0  -1.08100       1.00000    
     16742 IM1      38       IM1      DC1      DRUD     -2.55160      0.400000           0   0.00000       0.00000    
     16743 IM1      38       IM1      H1       HDA3A    0.940000E-01   1.00800           0   0.00000       0.00000    
     16744 IM1      38       IM1      H2       HDA3A    0.940000E-01   1.00800           0   0.00000       0.00000    
     16745 IM1      38       IM1      H3       HDA3A    0.940000E-01   1.00800           0   0.00000       0.00000    
     16746 IM1      38       IM1      N1       ND2R5A    2.67030       13.6070           0  -1.06300       1.30000    
     16747 IM1      38       IM1      DN1      DRUD     -2.53030      0.400000           0   0.00000       0.00000    
     16748 IM1      38       IM1      C2       CD2R5A    2.51190       11.6110           0  -1.37800       1.30000    
     16749 IM1      38       IM1      DC2      DRUD     -2.88090      0.400000           0   0.00000       0.00000    
     16750 IM1      38       IM1      H4       HDR5A    0.150000       1.00800           0   0.00000       0.00000    
     16751 IM1      38       IM1      C3       CD2R5A    3.06890       11.6110           0  -1.37800       1.30000    
     16752 IM1      38       IM1      DC3      DRUD     -2.88090      0.400000           0   0.00000       0.00000    
     16753 IM1      38       IM1      H5       HDR5A    0.530000E-01   1.00800           0   0.00000       0.00000    
     16754 IM1      38       IM1      C4       CD2R5B    2.40440       11.6110           0 -0.868000       1.30000    
     16755 IM1      38       IM1      DC4      DRUD     -2.28640      0.400000           0   0.00000       0.00000    
     16756 IM1      38       IM1      H6       HDR5B    0.730000E-01   1.00800           0   0.00000       0.00000    
     16757 IM1      38       IM1      N2       ND2R5B    2.24930       13.6070           0 -0.840000       1.00000    
     16758 IM1      38       IM1      DN2      DRUD     -2.24930      0.400000           0   0.00000       0.00000    
     16759 IM1      38       IM1      H7       DUMH      0.00000       1.00800           0   0.00000       0.00000    
     16760 IM1      38       IM1      LPN21    LPD     -0.474000       0.00000          -1   0.00000       0.00000    
     16761 IM1      39       IM1      C1       CD33G     2.39060       11.6110           0  -1.08100       1.00000    
     16762 IM1      39       IM1      DC1      DRUD     -2.55160      0.400000           0   0.00000       0.00000    
     16763 IM1      39       IM1      H1       HDA3A    0.940000E-01   1.00800           0   0.00000       0.00000    
     16764 IM1      39       IM1      H2       HDA3A    0.940000E-01   1.00800           0   0.00000       0.00000    
     16765 IM1      39       IM1      H3       HDA3A    0.940000E-01   1.00800           0   0.00000       0.00000    
     16766 IM1      39       IM1      N1       ND2R5A    2.67030       13.6070           0  -1.06300       1.30000    
     16767 IM1      39       IM1      DN1      DRUD     -2.53030      0.400000           0   0.00000       0.00000    
     16768 IM1      39       IM1      C2       CD2R5A    2.51190       11.6110           0  -1.37800       1.30000    
     16769 IM1      39       IM1      DC2      DRUD     -2.88090      0.400000           0   0.00000       0.00000    
     16770 IM1      39       IM1      H4       HDR5A    0.150000       1.00800           0   0.00000       0.00000    
     16771 IM1      39       IM1      C3       CD2R5A    3.06890       11.6110           0  -1.37800       1.30000    
     16772 IM1      39       IM1      DC3      DRUD     -2.88090      0.400000           0   0.00000       0.00000    
     16773 IM1      39       IM1      H5       HDR5A    0.530000E-01   1.00800           0   0.00000       0.00000    
     16774 IM1      39       IM1      C4       CD2R5B    2.40440       11.6110           0 -0.868000       1.30000    
     16775 IM1      39       IM1      DC4      DRUD     -2.28640      0.400000           0   0.00000       0.00000    
     16776 IM1      39       IM1      H6       HDR5B    0.730000E-01   1.00800           0   0.00000       0.00000    
     16777 IM1      39       IM1      N2       ND2R5B    2.24930       13.6070           0 -0.840000       1.00000    
     16778 IM1      39       IM1      DN2      DRUD     -2.24930      0.400000           0   0.00000       0.00000    
     16779 IM1      39       IM1      H7       DUMH      0.00000       1.00800           0   0.00000       0.00000    
     16780 IM1      39       IM1      LPN21    LPD     -0.474000       0.00000          -1   0.00000       0.00000    
     16781 IM1      40       IM1      C1       CD33G     2.39060       11.6110           0  -1.08100       1.00000    
     16782 IM1      40       IM1      DC1      DRUD     -2.55160      0.400000           0   0.00000       0.00000    
     16783 IM1      40       IM1      H1       HDA3A    0.940000E-01   1.00800           0   0.00000       0.00000    
     16784 IM1      40       IM1      H2       HDA3A    0.940000E-01   1.00800           0   0.00000       0.00000    
     16785 IM1      40       IM1      H3       HDA3A    0.940000E-01   1.00800           0   0.00000       0.00000    
     16786 IM1      40       IM1      N1       ND2R5A    2.67030       13.6070           0  -1.06300       1.30000    
     16787 IM1      40       IM1      DN1      DRUD     -2.53030      0.400000           0   0.00000       0.00000    
     16788 IM1      40       IM1      C2       CD2R5A    2.51190       11.6110           0  -1.37800       1.30000    
     16789 IM1      40       IM1      DC2      DRUD     -2.88090      0.400000           0   0.00000       0.00000    
     16790 IM1      40       IM1      H4       HDR5A    0.150000       1.00800           0   0.00000       0.00000    
     16791 IM1      40       IM1      C3       CD2R5A    3.06890       11.6110           0  -1.37800       1.30000    
     16792 IM1      40       IM1      DC3      DRUD     -2.88090      0.400000           0   0.00000       0.00000    
     16793 IM1      40       IM1      H5       HDR5A    0.530000E-01   1.00800           0   0.00000       0.00000    
     16794 IM1      40       IM1      C4       CD2R5B    2.40440       11.6110           0 -0.868000       1.30000    
     16795 IM1      40       IM1      DC4      DRUD     -2.28640      0.400000           0   0.00000       0.00000    
     16796 IM1      40       IM1      H6       HDR5B    0.730000E-01   1.00800           0   0.00000       0.00000    
     16797 IM1      40       IM1      N2       ND2R5B    2.24930       13.6070           0 -0.840000       1.00000    
     16798 IM1      40       IM1      DN2      DRUD     -2.24930      0.400000           0   0.00000       0.00000    
     16799 IM1      40       IM1      H7       DUMH      0.00000       1.00800           0   0.00000       0.00000    
     16800 IM1      40       IM1      LPN21    LPD     -0.474000       0.00000          -1   0.00000       0.00000    
     16801 IM1      41       IM1      C1       CD33G     2.39060       11.6110           0  -1.08100       1.00000    
     16802 IM1      41       IM1      DC1      DRUD     -2.55160      0.400000           0   0.00000       0.00000    
     16803 IM1      41       IM1      H1       HDA3A    0.940000E-01   1.00800           0   0.00000       0.00000    
     16804 IM1      41       IM1      H2       HDA3A    0.940000E-01   1.00800           0   0.00000       0.00000    
     16805 IM1      41       IM1      H3       HDA3A    0.940000E-01   1.00800           0   0.00000       0.00000    
     16806 IM1      41       IM1      N1       ND2R5A    2.67030       13.6070           0  -1.06300       1.30000    
     16807 IM1      41       IM1      DN1      DRUD     -2.53030      0.400000           0   0.00000       0.00000    
     16808 IM1      41       IM1      C2       CD2R5A    2.51190       11.6110           0  -1.37800       1.30000    
     16809 IM1      41       IM1      DC2      DRUD     -2.88090      0.400000           0   0.00000       0.00000    
     16810 IM1      41       IM1      H4       HDR5A    0.150000       1.00800           0   0.00000       0.00000    
     16811 IM1      41       IM1      C3       CD2R5A    3.06890       11.6110           0  -1.37800       1.30000    
     16812 IM1      41       IM1      DC3      DRUD     -2.88090      0.400000           0   0.00000       0.00000    
     16813 IM1      41       IM1      H5       HDR5A    0.530000E-01   1.00800           0   0.00000       0.00000    
     16814 IM1      41       IM1      C4       CD2R5B    2.40440       11.6110           0 -0.868000       1.30000    
     16815 IM1      41       IM1      DC4      DRUD     -2.28640      0.400000           0   0.00000       0.00000    
     16816 IM1      41       IM1      H6       HDR5B    0.730000E-01   1.00800           0   0.00000       0.00000    
     16817 IM1      41       IM1      N2       ND2R5B    2.24930       13.6070           0 -0.840000       1.00000    
     16818 IM1      41       IM1      DN2      DRUD     -2.24930      0.400000           0   0.00000       0.00000    
     16819 IM1      41       IM1      H7       DUMH      0.00000       1.00800           0   0.00000       0.00000    
     16820 IM1      41       IM1      LPN21    LPD     -0.474000       0.00000          -1   0.00000       0.00000    
     16821 IM1      42       IM1      C1       CD33G     2.39060       11.6110           0  -1.08100       1.00000    
     16822 IM1      42       IM1      DC1      DRUD     -2.55160      0.400000           0   0.00000       0.00000    
     16823 IM1      42       IM1      H1       HDA3A    0.940000E-01   1.00800           0   0.00000       0.00000    
     16824 IM1      42       IM1      H2       HDA3A    0.940000E-01   1.00800           0   0.00000       0.00000    
     16825 IM1      42       IM1      H3       HDA3A    0.940000E-01   1.00800           0   0.00000       0.00000    
     16826 IM1      42       IM1      N1       ND2R5A    2.67030       13.6070           0  -1.06300       1.30000    
     16827 IM1      42       IM1      DN1      DRUD     -2.53030      0.400000           0   0.00000       0.00000    
     16828 IM1      42       IM1      C2       CD2R5A    2.51190       11.6110           0  -1.37800       1.30000    
     16829 IM1      42       IM1      DC2      DRUD     -2.88090      0.400000           0   0.00000       0.00000    
     16830 IM1      42       IM1      H4       HDR5A    0.150000       1.00800           0   0.00000       0.00000    
     16831 IM1      42       IM1      C3       CD2R5A    3.06890       11.6110           0  -1.37800       1.30000    
     16832 IM1      42       IM1      DC3      DRUD     -2.88090      0.400000           0   0.00000       0.00000    
     16833 IM1      42       IM1      H5       HDR5A    0.530000E-01   1.00800           0   0.00000       0.00000    
     16834 IM1      42       IM1      C4       CD2R5B    2.40440       11.6110           0 -0.868000       1.30000    
     16835 IM1      42       IM1      DC4      DRUD     -2.28640      0.400000           0   0.00000       0.00000    
     16836 IM1      42       IM1      H6       HDR5B    0.730000E-01   1.00800           0   0.00000       0.00000    
     16837 IM1      42       IM1      N2       ND2R5B    2.24930       13.6070           0 -0.840000       1.00000    
     16838 IM1      42       IM1      DN2      DRUD     -2.24930      0.400000           0   0.00000       0.00000    
     16839 IM1      42       IM1      H7       DUMH      0.00000       1.00800           0   0.00000       0.00000    
     16840 IM1      42       IM1      LPN21    LPD     -0.474000       0.00000          -1   0.00000       0.00000    
     16841 IM1      43       IM1      C1       CD33G     2.39060       11.6110           0  -1.08100       1.00000    
     16842 IM1      43       IM1      DC1      DRUD     -2.55160      0.400000           0   0.00000       0.00000    
     16843 IM1      43       IM1      H1       HDA3A    0.940000E-01   1.00800           0   0.00000       0.00000    
     16844 IM1      43       IM1      H2       HDA3A    0.940000E-01   1.00800           0   0.00000       0.00000    
     16845 IM1      43       IM1      H3       HDA3A    0.940000E-01   1.00800           0   0.00000       0.00000    
     16846 IM1      43       IM1      N1       ND2R5A    2.67030       13.6070           0  -1.06300       1.30000    
     16847 IM1      43       IM1      DN1      DRUD     -2.53030      0.400000           0   0.00000       0.00000    
     16848 IM1      43       IM1      C2       CD2R5A    2.51190       11.6110           0  -1.37800       1.30000    
     16849 IM1      43       IM1      DC2      DRUD     -2.88090      0.400000           0   0.00000       0.00000    
     16850 IM1      43       IM1      H4       HDR5A    0.150000       1.00800           0   0.00000       0.00000    
     16851 IM1      43       IM1      C3       CD2R5A    3.06890       11.6110           0  -1.37800       1.30000    
     16852 IM1      43       IM1      DC3      DRUD     -2.88090      0.400000           0   0.00000       0.00000    
     16853 IM1      43       IM1      H5       HDR5A    0.530000E-01   1.00800           0   0.00000       0.00000    
     16854 IM1      43       IM1      C4       CD2R5B    2.40440       11.6110           0 -0.868000       1.30000    
     16855 IM1      43       IM1      DC4      DRUD     -2.28640      0.400000           0   0.00000       0.00000    
     16856 IM1      43       IM1      H6       HDR5B    0.730000E-01   1.00800           0   0.00000       0.00000    
     16857 IM1      43       IM1      N2       ND2R5B    2.24930       13.6070           0 -0.840000       1.00000    
     16858 IM1      43       IM1      DN2      DRUD     -2.24930      0.400000           0   0.00000       0.00000    
     16859 IM1      43       IM1      H7       DUMH      0.00000       1.00800           0   0.00000       0.00000    
     16860 IM1      43       IM1      LPN21    LPD     -0.474000       0.00000          -1   0.00000       0.00000    
     16861 IM1      44       IM1      C1       CD33G     2.39060       11.6110           0  -1.08100       1.00000    
     16862 IM1      44       IM1      DC1      DRUD     -2.55160      0.400000           0   0.00000       0.00000    
     16863 IM1      44       IM1      H1       HDA3A    0.940000E-01   1.00800           0   0.00000       0.00000    
     16864 IM1      44       IM1      H2       HDA3A    0.940000E-01   1.00800           0   0.00000       0.00000    
     16865 IM1      44       IM1      H3       HDA3A    0.940000E-01   1.00800           0   0.00000       0.00000    
     16866 IM1      44       IM1      N1       ND2R5A    2.67030       13.6070           0  -1.06300       1.30000    
     16867 IM1      44       IM1      DN1      DRUD     -2.53030      0.400000           0   0.00000       0.00000    
     16868 IM1      44       IM1      C2       CD2R5A    2.51190       11.6110           0  -1.37800       1.30000    
     16869 IM1      44       IM1      DC2      DRUD     -2.88090      0.400000           0   0.00000       0.00000    
     16870 IM1      44       IM1      H4       HDR5A    0.150000       1.00800           0   0.00000       0.00000    
     16871 IM1      44       IM1      C3       CD2R5A    3.06890       11.6110           0  -1.37800       1.30000    
     16872 IM1      44       IM1      DC3      DRUD     -2.88090      0.400000           0   0.00000       0.00000    
     16873 IM1      44       IM1      H5       HDR5A    0.530000E-01   1.00800           0   0.00000       0.00000    
     16874 IM1      44       IM1      C4       CD2R5B    2.40440       11.6110           0 -0.868000       1.30000    
     16875 IM1      44       IM1      DC4      DRUD     -2.28640      0.400000           0   0.00000       0.00000    
     16876 IM1      44       IM1      H6       HDR5B    0.730000E-01   1.00800           0   0.00000       0.00000    
     16877 IM1      44       IM1      N2       ND2R5B    2.24930       13.6070           0 -0.840000       1.00000    
     16878 IM1      44       IM1      DN2      DRUD     -2.24930      0.400000           0   0.00000       0.00000    
     16879 IM1      44       IM1      H7       DUMH      0.00000       1.00800           0   0.00000       0.00000    
     16880 IM1      44       IM1      LPN21    LPD     -0.474000       0.00000          -1   0.00000       0.00000    
     16881 IM1      45       IM1      C1       CD33G     2.39060       11.6110           0  -1.08100       1.00000    
     16882 IM1      45       IM1      DC1      DRUD     -2.55160      0.400000           0   0.00000       0.00000    
     16883 IM1      45       IM1      H1       HDA3A    0.940000E-01   1.00800           0   0.00000       0.00000    
     16884 IM1      45       IM1      H2       HDA3A    0.940000E-01   1.00800           0   0.00000       0.00000    
     16885 IM1      45       IM1      H3       HDA3A    0.940000E-01   1.00800           0   0.00000       0.00000    
     16886 IM1      45       IM1      N1       ND2R5A    2.67030       13.6070           0  -1.06300       1.30000    
     16887 IM1      45       IM1      DN1      DRUD     -2.53030      0.400000           0   0.00000       0.00000    
     16888 IM1      45       IM1      C2       CD2R5A    2.51190       11.6110           0  -1.37800       1.30000    
     16889 IM1      45       IM1      DC2      DRUD     -2.88090      0.400000           0   0.00000       0.00000    
     16890 IM1      45       IM1      H4       HDR5A    0.150000       1.00800           0   0.00000       0.00000    
     16891 IM1      45       IM1      C3       CD2R5A    3.06890       11.6110           0  -1.37800       1.30000    
     16892 IM1      45       IM1      DC3      DRUD     -2.88090      0.400000           0   0.00000       0.00000    
     16893 IM1      45       IM1      H5       HDR5A    0.530000E-01   1.00800           0   0.00000       0.00000    
     16894 IM1      45       IM1      C4       CD2R5B    2.40440       11.6110           0 -0.868000       1.30000    
     16895 IM1      45       IM1      DC4      DRUD     -2.28640      0.400000           0   0.00000       0.00000    
     16896 IM1      45       IM1      H6       HDR5B    0.730000E-01   1.00800           0   0.00000       0.00000    
     16897 IM1      45       IM1      N2       ND2R5B    2.24930       13.6070           0 -0.840000       1.00000    
     16898 IM1      45       IM1      DN2      DRUD     -2.24930      0.400000           0   0.00000       0.00000    
     16899 IM1      45       IM1      H7       DUMH      0.00000       1.00800           0   0.00000       0.00000    
     16900 IM1      45       IM1      LPN21    LPD     -0.474000       0.00000          -1   0.00000       0.00000    
     16901 IM1      46       IM1      C1       CD33G     2.39060       11.6110           0  -1.08100       1.00000    
     16902 IM1      46       IM1      DC1      DRUD     -2.55160      0.400000           0   0.00000       0.00000    
     16903 IM1      46       IM1      H1       HDA3A    0.940000E-01   1.00800           0   0.00000       0.00000    
     16904 IM1      46       IM1      H2       HDA3A    0.940000E-01   1.00800           0   0.00000       0.00000    
     16905 IM1      46       IM1      H3       HDA3A    0.940000E-01   1.00800           0   0.00000       0.00000    
     16906 IM1      46       IM1      N1       ND2R5A    2.67030       13.6070           0  -1.06300       1.30000    
     16907 IM1      46       IM1      DN1      DRUD     -2.53030      0.400000           0   0.00000       0.00000    
     16908 IM1      46       IM1      C2       CD2R5A    2.51190       11.6110           0  -1.37800       1.30000    
     16909 IM1      46       IM1      DC2      DRUD     -2.88090      0.400000           0   0.00000       0.00000    
     16910 IM1      46       IM1      H4       HDR5A    0.150000       1.00800           0   0.00000       0.00000    
     16911 IM1      46       IM1      C3       CD2R5A    3.06890       11.6110           0  -1.37800       1.30000    
     16912 IM1      46       IM1      DC3      DRUD     -2.88090      0.400000           0   0.00000       0.00000    
     16913 IM1      46       IM1      H5       HDR5A    0.530000E-01   1.00800           0   0.00000       0.00000    
     16914 IM1      46       IM1      C4       CD2R5B    2.40440       11.6110           0 -0.868000       1.30000    
     16915 IM1      46       IM1      DC4      DRUD     -2.28640      0.400000           0   0.00000       0.00000    
     16916 IM1      46       IM1      H6       HDR5B    0.730000E-01   1.00800           0   0.00000       0.00000    
     16917 IM1      46       IM1      N2       ND2R5B    2.24930       13.6070           0 -0.840000       1.00000    
     16918 IM1      46       IM1      DN2      DRUD     -2.24930      0.400000           0   0.00000       0.00000    
     16919 IM1      46       IM1      H7       DUMH      0.00000       1.00800           0   0.00000       0.00000    
     16920 IM1      46       IM1      LPN21    LPD     -0.474000       0.00000          -1   0.00000       0.00000    
     16921 IM1      47       IM1      C1       CD33G     2.39060       11.6110           0  -1.08100       1.00000    
     16922 IM1      47       IM1      DC1      DRUD     -2.55160      0.400000           0   0.00000       0.00000    
     16923 IM1      47       IM1      H1       HDA3A    0.940000E-01   1.00800           0   0.00000       0.00000    
     16924 IM1      47       IM1      H2       HDA3A    0.940000E-01   1.00800           0   0.00000       0.00000    
     16925 IM1      47       IM1      H3       HDA3A    0.940000E-01   1.00800           0   0.00000       0.00000    
     16926 IM1      47       IM1      N1       ND2R5A    2.67030       13.6070           0  -1.06300       1.30000    
     16927 IM1      47       IM1      DN1      DRUD     -2.53030      0.400000           0   0.00000       0.00000    
     16928 IM1      47       IM1      C2       CD2R5A    2.51190       11.6110           0  -1.37800       1.30000    
     16929 IM1      47       IM1      DC2      DRUD     -2.88090      0.400000           0   0.00000       0.00000    
     16930 IM1      47       IM1      H4       HDR5A    0.150000       1.00800           0   0.00000       0.00000    
     16931 IM1      47       IM1      C3       CD2R5A    3.06890       11.6110           0  -1.37800       1.30000    
     16932 IM1      47       IM1      DC3      DRUD     -2.88090      0.400000           0   0.00000       0.00000    
     16933 IM1      47       IM1      H5       HDR5A    0.530000E-01   1.00800           0   0.00000       0.00000    
     16934 IM1      47       IM1      C4       CD2R5B    2.40440       11.6110           0 -0.868000       1.30000    
     16935 IM1      47       IM1      DC4      DRUD     -2.28640      0.400000           0   0.00000       0.00000    
     16936 IM1      47       IM1      H6       HDR5B    0.730000E-01   1.00800           0   0.00000       0.00000    
     16937 IM1      47       IM1      N2       ND2R5B    2.24930       13.6070           0 -0.840000       1.00000    
     16938 IM1      47       IM1      DN2      DRUD     -2.24930      0.400000           0   0.00000       0.00000    
     16939 IM1      47       IM1      H7       DUMH      0.00000       1.00800           0   0.00000       0.00000    
     16940 IM1      47       IM1      LPN21    LPD     -0.474000       0.00000          -1   0.00000       0.00000    
     16941 IM1      48       IM1      C1       CD33G     2.39060       11.6110           0  -1.08100       1.00000    
     16942 IM1      48       IM1      DC1      DRUD     -2.55160      0.400000           0   0.00000       0.00000    
     16943 IM1      48       IM1      H1       HDA3A    0.940000E-01   1.00800           0   0.00000       0.00000    
     16944 IM1      48       IM1      H2       HDA3A    0.940000E-01   1.00800           0   0.00000       0.00000    
     16945 IM1      48       IM1      H3       HDA3A    0.940000E-01   1.00800           0   0.00000       0.00000    
     16946 IM1      48       IM1      N1       ND2R5A    2.67030       13.6070           0  -1.06300       1.30000    
     16947 IM1      48       IM1      DN1      DRUD     -2.53030      0.400000           0   0.00000       0.00000    
     16948 IM1      48       IM1      C2       CD2R5A    2.51190       11.6110           0  -1.37800       1.30000    
     16949 IM1      48       IM1      DC2      DRUD     -2.88090      0.400000           0   0.00000       0.00000    
     16950 IM1      48       IM1      H4       HDR5A    0.150000       1.00800           0   0.00000       0.00000    
     16951 IM1      48       IM1      C3       CD2R5A    3.06890       11.6110           0  -1.37800       1.30000    
     16952 IM1      48       IM1      DC3      DRUD     -2.88090      0.400000           0   0.00000       0.00000    
     16953 IM1      48       IM1      H5       HDR5A    0.530000E-01   1.00800           0   0.00000       0.00000    
     16954 IM1      48       IM1      C4       CD2R5B    2.40440       11.6110           0 -0.868000       1.30000    
     16955 IM1      48       IM1      DC4      DRUD     -2.28640      0.400000           0   0.00000       0.00000    
     16956 IM1      48       IM1      H6       HDR5B    0.730000E-01   1.00800           0   0.00000       0.00000    
     16957 IM1      48       IM1      N2       ND2R5B    2.24930       13.6070           0 -0.840000       1.00000    
     16958 IM1      48       IM1      DN2      DRUD     -2.24930      0.400000           0   0.00000       0.00000    
     16959 IM1      48       IM1      H7       DUMH      0.00000       1.00800           0   0.00000       0.00000    
     16960 IM1      48       IM1      LPN21    LPD     -0.474000       0.00000          -1   0.00000       0.00000    
     16961 IM1      49       IM1      C1       CD33G     2.39060       11.6110           0  -1.08100       1.00000    
     16962 IM1      49       IM1      DC1      DRUD     -2.55160      0.400000           0   0.00000       0.00000    
     16963 IM1      49       IM1      H1       HDA3A    0.940000E-01   1.00800           0   0.00000       0.00000    
     16964 IM1      49       IM1      H2       HDA3A    0.940000E-01   1.00800           0   0.00000       0.00000    
     16965 IM1      49       IM1      H3       HDA3A    0.940000E-01   1.00800           0   0.00000       0.00000    
     16966 IM1      49       IM1      N1       ND2R5A    2.67030       13.6070           0  -1.06300       1.30000    
     16967 IM1      49       IM1      DN1      DRUD     -2.53030      0.400000           0   0.00000       0.00000    
     16968 IM1      49       IM1      C2       CD2R5A    2.51190       11.6110           0  -1.37800       1.30000    
     16969 IM1      49       IM1      DC2      DRUD     -2.88090      0.400000           0   0.00000       0.00000    
     16970 IM1      49       IM1      H4       HDR5A    0.150000       1.00800           0   0.00000       0.00000    
     16971 IM1      49       IM1      C3       CD2R5A    3.06890       11.6110           0  -1.37800       1.30000    
     16972 IM1      49       IM1      DC3      DRUD     -2.88090      0.400000           0   0.00000       0.00000    
     16973 IM1      49       IM1      H5       HDR5A    0.530000E-01   1.00800           0   0.00000       0.00000    
     16974 IM1      49       IM1      C4       CD2R5B    2.40440       11.6110           0 -0.868000       1.30000    
     16975 IM1      49       IM1      DC4      DRUD     -2.28640      0.400000           0   0.00000       0.00000    
     16976 IM1      49       IM1      H6       HDR5B    0.730000E-01   1.00800           0   0.00000       0.00000    
     16977 IM1      49       IM1      N2       ND2R5B    2.24930       13.6070           0 -0.840000       1.00000    
     16978 IM1      49       IM1      DN2      DRUD     -2.24930      0.400000           0   0.00000       0.00000    
     16979 IM1      49       IM1      H7       DUMH      0.00000       1.00800           0   0.00000       0.00000    
     16980 IM1      49       IM1      LPN21    LPD     -0.474000       0.00000          -1   0.00000       0.00000    
     16981 IM1      50       IM1      C1       CD33G     2.39060       11.6110           0  -1.08100       1.00000    
     16982 IM1      50       IM1      DC1      DRUD     -2.55160      0.400000           0   0.00000       0.00000    
     16983 IM1      50       IM1      H1       HDA3A    0.940000E-01   1.00800           0   0.00000       0.00000    
     16984 IM1      50       IM1      H2       HDA3A    0.940000E-01   1.00800           0   0.00000       0.00000    
     16985 IM1      50       IM1      H3       HDA3A    0.940000E-01   1.00800           0   0.00000       0.00000    
     16986 IM1      50       IM1      N1       ND2R5A    2.67030       13.6070           0  -1.06300       1.30000    
     16987 IM1      50       IM1      DN1      DRUD     -2.53030      0.400000           0   0.00000       0.00000    
     16988 IM1      50       IM1      C2       CD2R5A    2.51190       11.6110           0  -1.37800       1.30000    
     16989 IM1      50       IM1      DC2      DRUD     -2.88090      0.400000           0   0.00000       0.00000    
     16990 IM1      50       IM1      H4       HDR5A    0.150000       1.00800           0   0.00000       0.00000    
     16991 IM1      50       IM1      C3       CD2R5A    3.06890       11.6110           0  -1.37800       1.30000    
     16992 IM1      50       IM1      DC3      DRUD     -2.88090      0.400000           0   0.00000       0.00000    
     16993 IM1      50       IM1      H5       HDR5A    0.530000E-01   1.00800           0   0.00000       0.00000    
     16994 IM1      50       IM1      C4       CD2R5B    2.40440       11.6110           0 -0.868000       1.30000    
     16995 IM1      50       IM1      DC4      DRUD     -2.28640      0.400000           0   0.00000       0.00000    
     16996 IM1      50       IM1      H6       HDR5B    0.730000E-01   1.00800           0   0.00000       0.00000    
     16997 IM1      50       IM1      N2       ND2R5B    2.24930       13.6070           0 -0.840000       1.00000    
     16998 IM1      50       IM1      DN2      DRUD     -2.24930      0.400000           0   0.00000       0.00000    
     16999 IM1      50       IM1      H7       DUMH      0.00000       1.00800           0   0.00000       0.00000    
     17000 IM1      50       IM1      LPN21    LPD     -0.474000       0.00000          -1   0.00000       0.00000    
     17001 FORH     1        FORH     C        CD2O3A    3.13620       11.6110           0  -1.26130       1.05430    
     17002 FORH     1        FORH     DC       DRUD     -2.75620      0.400000           0   0.00000       0.00000    
     17003 FORH     1        FORH     H        HDP1C    0.110000       1.00800           0   0.00000       0.00000    
     17004 FORH     1        FORH     O2       OD2C1A    2.07240       15.5994           0 -0.713100      0.569800    
     17005 FORH     1        FORH     DO2      DRUD     -2.07240      0.400000           0   0.00000       0.00000    
     17006 FORH     1        FORH     O1       OD31A     2.23780       15.5990           0 -0.831500      0.749400    
     17007 FORH     1        FORH     DO1      DRUD     -2.23780      0.400000           0   0.00000       0.00000    
     17008 FORH     1        FORH     HO1      HDP1A    0.400000       1.00800           0   0.00000       0.00000    
     17009 FORH     1        FORH     LPO21    LPDO1   -0.200000       0.00000          -1   0.00000       0.00000    
     17010 FORH     1        FORH     LPO22    LPDO1   -0.200000       0.00000          -1   0.00000       0.00000    
     17011 FORH     1        FORH     LPO11    LPD     -0.245000       0.00000          -1   0.00000       0.00000    
     17012 FORH     1        FORH     LPO12    LPD     -0.245000       0.00000          -1   0.00000       0.00000    
     17013 FORH     2        FORH     C        CD2O3A    3.13620       11.6110           0  -1.26130       1.05430    
     17014 FORH     2        FORH     DC       DRUD     -2.75620      0.400000           0   0.00000       0.00000    
     17015 FORH     2        FORH     H        HDP1C    0.110000       1.00800           0   0.00000       0.00000    
     17016 FORH     2        FORH     O2       OD2C1A    2.07240       15.5994           0 -0.713100      0.569800    
     17017 FORH     2        FORH     DO2      DRUD     -2.07240      0.400000           0   0.00000       0.00000    
     17018 FORH     2        FORH     O1       OD31A     2.23780       15.5990           0 -0.831500      0.749400    
     17019 FORH     2        FORH     DO1      DRUD     -2.23780      0.400000           0   0.00000       0.00000    
     17020 FORH     2        FORH     HO1      HDP1A    0.400000       1.00800           0   0.00000       0.00000    
     17021 FORH     2        FORH     LPO21    LPDO1   -0.200000       0.00000          -1   0.00000       0.00000    
     17022 FORH     2        FORH     LPO22    LPDO1   -0.200000       0.00000          -1   0.00000       0.00000    
     17023 FORH     2        FORH     LPO11    LPD     -0.245000       0.00000          -1   0.00000       0.00000    
     17024 FORH     2        FORH     LPO12    LPD     -0.245000       0.00000          -1   0.00000       0.00000    
     17025 FORH     3        FORH     C        CD2O3A    3.13620       11.6110           0  -1.26130       1.05430    
     17026 FORH     3        FORH     DC       DRUD     -2.75620      0.400000           0   0.00000       0.00000    
     17027 FORH     3        FORH     H        HDP1C    0.110000       1.00800           0   0.00000       0.00000    
     17028 FORH     3        FORH     O2       OD2C1A    2.07240       15.5994           0 -0.713100      0.569800    
     17029 FORH     3        FORH     DO2      DRUD     -2.07240      0.400000           0   0.00000       0.00000    
     17030 FORH     3        FORH     O1       OD31A     2.23780       15.5990           0 -0.831500      0.749400    
     17031 FORH     3        FORH     DO1      DRUD     -2.23780      0.400000           0   0.00000       0.00000    
     17032 FORH     3        FORH     HO1      HDP1A    0.400000       1.00800           0   0.00000       0.00000    
     17033 FORH     3        FORH     LPO21    LPDO1   -0.200000       0.00000          -1   0.00000       0.00000    
     17034 FORH     3        FORH     LPO22    LPDO1   -0.200000       0.00000          -1   0.00000       0.00000    
     17035 FORH     3        FORH     LPO11    LPD     -0.245000       0.00000          -1   0.00000       0.00000    
     17036 FORH     3        FORH     LPO12    LPD     -0.245000       0.00000          -1   0.00000       0.00000    
     17037 FORH     4        FORH     C        CD2O3A    3.13620       11.6110           0  -1.26130       1.05430    
     17038 FORH     4        FORH     DC       DRUD     -2.75620      0.400000           0   0.00000       0.00000    
     17039 FORH     4        FORH     H        HDP1C    0.110000       1.00800           0   0.00000       0.00000    
     17040 FORH     4        FORH     O2       OD2C1A    2.07240       15.5994           0 -0.713100      0.569800    
     17041 FORH     4        FORH     DO2      DRUD     -2.07240      0.400000           0   0.00000       0.00000    
     17042 FORH     4        FORH     O1       OD31A     2.23780       15.5990           0 -0.831500      0.749400    
     17043 FORH     4        FORH     DO1      DRUD     -2.23780      0.400000           0   0.00000       0.00000    
     17044 FORH     4        FORH     HO1      HDP1A    0.400000       1.00800           0   0.00000       0.00000    
     17045 FORH     4        FORH     LPO21    LPDO1   -0.200000       0.00000          -1   0.00000       0.00000    
     17046 FORH     4        FORH     LPO22    LPDO1   -0.200000       0.00000          -1   0.00000       0.00000    
     17047 FORH     4        FORH     LPO11    LPD     -0.245000       0.00000          -1   0.00000       0.00000    
     17048 FORH     4        FORH     LPO12    LPD     -0.245000       0.00000          -1   0.00000       0.00000    
     17049 FORH     5        FORH     C        CD2O3A    3.13620       11.6110           0  -1.26130       1.05430    
     17050 FORH     5        FORH     DC       DRUD     -2.75620      0.400000           0   0.00000       0.00000    
     17051 FORH     5        FORH     H        HDP1C    0.110000       1.00800           0   0.00000       0.00000    
     17052 FORH     5        FORH     O2       OD2C1A    2.07240       15.5994           0 -0.713100      0.569800    
     17053 FORH     5        FORH     DO2      DRUD     -2.07240      0.400000           0   0.00000       0.00000    
     17054 FORH     5        FORH     O1       OD31A     2.23780       15.5990           0 -0.831500      0.749400    
     17055 FORH     5        FORH     DO1      DRUD     -2.23780      0.400000           0   0.00000       0.00000    
     17056 FORH     5        FORH     HO1      HDP1A    0.400000       1.00800           0   0.00000       0.00000    
     17057 FORH     5        FORH     LPO21    LPDO1   -0.200000       0.00000          -1   0.00000       0.00000    
     17058 FORH     5        FORH     LPO22    LPDO1   -0.200000       0.00000          -1   0.00000       0.00000    
     17059 FORH     5        FORH     LPO11    LPD     -0.245000       0.00000          -1   0.00000       0.00000    
     17060 FORH     5        FORH     LPO12    LPD     -0.245000       0.00000          -1   0.00000       0.00000    
     17061 FORH     6        FORH     C        CD2O3A    3.13620       11.6110           0  -1.26130       1.05430    
     17062 FORH     6        FORH     DC       DRUD     -2.75620      0.400000           0   0.00000       0.00000    
     17063 FORH     6        FORH     H        HDP1C    0.110000       1.00800           0   0.00000       0.00000    
     17064 FORH     6        FORH     O2       OD2C1A    2.07240       15.5994           0 -0.713100      0.569800    
     17065 FORH     6        FORH     DO2      DRUD     -2.07240      0.400000           0   0.00000       0.00000    
     17066 FORH     6        FORH     O1       OD31A     2.23780       15.5990           0 -0.831500      0.749400    
     17067 FORH     6        FORH     DO1      DRUD     -2.23780      0.400000           0   0.00000       0.00000    
     17068 FORH     6        FORH     HO1      HDP1A    0.400000       1.00800           0   0.00000       0.00000    
     17069 FORH     6        FORH     LPO21    LPDO1   -0.200000       0.00000          -1   0.00000       0.00000    
     17070 FORH     6        FORH     LPO22    LPDO1   -0.200000       0.00000          -1   0.00000       0.00000    
     17071 FORH     6        FORH     LPO11    LPD     -0.245000       0.00000          -1   0.00000       0.00000    
     17072 FORH     6        FORH     LPO12    LPD     -0.245000       0.00000          -1   0.00000       0.00000    
     17073 FORH     7        FORH     C        CD2O3A    3.13620       11.6110           0  -1.26130       1.05430    
     17074 FORH     7        FORH     DC       DRUD     -2.75620      0.400000           0   0.00000       0.00000    
     17075 FORH     7        FORH     H        HDP1C    0.110000       1.00800           0   0.00000       0.00000    
     17076 FORH     7        FORH     O2       OD2C1A    2.07240       15.5994           0 -0.713100      0.569800    
     17077 FORH     7        FORH     DO2      DRUD     -2.07240      0.400000           0   0.00000       0.00000    
     17078 FORH     7        FORH     O1       OD31A     2.23780       15.5990           0 -0.831500      0.749400    
     17079 FORH     7        FORH     DO1      DRUD     -2.23780      0.400000           0   0.00000       0.00000    
     17080 FORH     7        FORH     HO1      HDP1A    0.400000       1.00800           0   0.00000       0.00000    
     17081 FORH     7        FORH     LPO21    LPDO1   -0.200000       0.00000          -1   0.00000       0.00000    
     17082 FORH     7        FORH     LPO22    LPDO1   -0.200000       0.00000          -1   0.00000       0.00000    
     17083 FORH     7        FORH     LPO11    LPD     -0.245000       0.00000          -1   0.00000       0.00000    
     17084 FORH     7        FORH     LPO12    LPD     -0.245000       0.00000          -1   0.00000       0.00000    
     17085 FORH     8        FORH     C        CD2O3A    3.13620       11.6110           0  -1.26130       1.05430    
     17086 FORH     8        FORH     DC       DRUD     -2.75620      0.400000           0   0.00000       0.00000    
     17087 FORH     8        FORH     H        HDP1C    0.110000       1.00800           0   0.00000       0.00000    
     17088 FORH     8        FORH     O2       OD2C1A    2.07240       15.5994           0 -0.713100      0.569800    
     17089 FORH     8        FORH     DO2      DRUD     -2.07240      0.400000           0   0.00000       0.00000    
     17090 FORH     8        FORH     O1       OD31A     2.23780       15.5990           0 -0.831500      0.749400    
     17091 FORH     8        FORH     DO1      DRUD     -2.23780      0.400000           0   0.00000       0.00000    
     17092 FORH     8        FORH     HO1      HDP1A    0.400000       1.00800           0   0.00000       0.00000    
     17093 FORH     8        FORH     LPO21    LPDO1   -0.200000       0.00000          -1   0.00000       0.00000    
     17094 FORH     8        FORH     LPO22    LPDO1   -0.200000       0.00000          -1   0.00000       0.00000    
     17095 FORH     8        FORH     LPO11    LPD     -0.245000       0.00000          -1   0.00000       0.00000    
     17096 FORH     8        FORH     LPO12    LPD     -0.245000       0.00000          -1   0.00000       0.00000    
     17097 FORH     9        FORH     C        CD2O3A    3.13620       11.6110           0  -1.26130       1.05430    
     17098 FORH     9        FORH     DC       DRUD     -2.75620      0.400000           0   0.00000       0.00000    
     17099 FORH     9        FORH     H        HDP1C    0.110000       1.00800           0   0.00000       0.00000    
     17100 FORH     9        FORH     O2       OD2C1A    2.07240       15.5994           0 -0.713100      0.569800    
     17101 FORH     9        FORH     DO2      DRUD     -2.07240      0.400000           0   0.00000       0.00000    
     17102 FORH     9        FORH     O1       OD31A     2.23780       15.5990           0 -0.831500      0.749400    
     17103 FORH     9        FORH     DO1      DRUD     -2.23780      0.400000           0   0.00000       0.00000    
     17104 FORH     9        FORH     HO1      HDP1A    0.400000       1.00800           0   0.00000       0.00000    
     17105 FORH     9        FORH     LPO21    LPDO1   -0.200000       0.00000          -1   0.00000       0.00000    
     17106 FORH     9        FORH     LPO22    LPDO1   -0.200000       0.00000          -1   0.00000       0.00000    
     17107 FORH     9        FORH     LPO11    LPD     -0.245000       0.00000          -1   0.00000       0.00000    
     17108 FORH     9        FORH     LPO12    LPD     -0.245000       0.00000          -1   0.00000       0.00000    
     17109 FORH     10       FORH     C        CD2O3A    3.13620       11.6110           0  -1.26130       1.05430    
     17110 FORH     10       FORH     DC       DRUD     -2.75620      0.400000           0   0.00000       0.00000    
     17111 FORH     10       FORH     H        HDP1C    0.110000       1.00800           0   0.00000       0.00000    
     17112 FORH     10       FORH     O2       OD2C1A    2.07240       15.5994           0 -0.713100      0.569800    
     17113 FORH     10       FORH     DO2      DRUD     -2.07240      0.400000           0   0.00000       0.00000    
     17114 FORH     10       FORH     O1       OD31A     2.23780       15.5990           0 -0.831500      0.749400    
     17115 FORH     10       FORH     DO1      DRUD     -2.23780      0.400000           0   0.00000       0.00000    
     17116 FORH     10       FORH     HO1      HDP1A    0.400000       1.00800           0   0.00000       0.00000    
     17117 FORH     10       FORH     LPO21    LPDO1   -0.200000       0.00000          -1   0.00000       0.00000    
     17118 FORH     10       FORH     LPO22    LPDO1   -0.200000       0.00000          -1   0.00000       0.00000    
     17119 FORH     10       FORH     LPO11    LPD     -0.245000       0.00000          -1   0.00000       0.00000    
     17120 FORH     10       FORH     LPO12    LPD     -0.245000       0.00000          -1   0.00000       0.00000    
     17121 FORH     11       FORH     C        CD2O3A    3.13620       11.6110           0  -1.26130       1.05430    
     17122 FORH     11       FORH     DC       DRUD     -2.75620      0.400000           0   0.00000       0.00000    
     17123 FORH     11       FORH     H        HDP1C    0.110000       1.00800           0   0.00000       0.00000    
     17124 FORH     11       FORH     O2       OD2C1A    2.07240       15.5994           0 -0.713100      0.569800    
     17125 FORH     11       FORH     DO2      DRUD     -2.07240      0.400000           0   0.00000       0.00000    
     17126 FORH     11       FORH     O1       OD31A     2.23780       15.5990           0 -0.831500      0.749400    
     17127 FORH     11       FORH     DO1      DRUD     -2.23780      0.400000           0   0.00000       0.00000    
     17128 FORH     11       FORH     HO1      HDP1A    0.400000       1.00800           0   0.00000       0.00000    
     17129 FORH     11       FORH     LPO21    LPDO1   -0.200000       0.00000          -1   0.00000       0.00000    
     17130 FORH     11       FORH     LPO22    LPDO1   -0.200000       0.00000          -1   0.00000       0.00000    
     17131 FORH     11       FORH     LPO11    LPD     -0.245000       0.00000          -1   0.00000       0.00000    
     17132 FORH     11       FORH     LPO12    LPD     -0.245000       0.00000          -1   0.00000       0.00000    
     17133 FORH     12       FORH     C        CD2O3A    3.13620       11.6110           0  -1.26130       1.05430    
     17134 FORH     12       FORH     DC       DRUD     -2.75620      0.400000           0   0.00000       0.00000    
     17135 FORH     12       FORH     H        HDP1C    0.110000       1.00800           0   0.00000       0.00000    
     17136 FORH     12       FORH     O2       OD2C1A    2.07240       15.5994           0 -0.713100      0.569800    
     17137 FORH     12       FORH     DO2      DRUD     -2.07240      0.400000           0   0.00000       0.00000    
     17138 FORH     12       FORH     O1       OD31A     2.23780       15.5990           0 -0.831500      0.749400    
     17139 FORH     12       FORH     DO1      DRUD     -2.23780      0.400000           0   0.00000       0.00000    
     17140 FORH     12       FORH     HO1      HDP1A    0.400000       1.00800           0   0.00000       0.00000    
     17141 FORH     12       FORH     LPO21    LPDO1   -0.200000       0.00000          -1   0.00000       0.00000    
     17142 FORH     12       FORH     LPO22    LPDO1   -0.200000       0.00000          -1   0.00000       0.00000    
     17143 FORH     12       FORH     LPO11    LPD     -0.245000       0.00000          -1   0.00000       0.00000    
     17144 FORH     12       FORH     LPO12    LPD     -0.245000       0.00000          -1   0.00000       0.00000    
     17145 FORH     13       FORH     C        CD2O3A    3.13620       11.6110           0  -1.26130       1.05430    
     17146 FORH     13       FORH     DC       DRUD     -2.75620      0.400000           0   0.00000       0.00000    
     17147 FORH     13       FORH     H        HDP1C    0.110000       1.00800           0   0.00000       0.00000    
     17148 FORH     13       FORH     O2       OD2C1A    2.07240       15.5994           0 -0.713100      0.569800    
     17149 FORH     13       FORH     DO2      DRUD     -2.07240      0.400000           0   0.00000       0.00000    
     17150 FORH     13       FORH     O1       OD31A     2.23780       15.5990           0 -0.831500      0.749400    
     17151 FORH     13       FORH     DO1      DRUD     -2.23780      0.400000           0   0.00000       0.00000    
     17152 FORH     13       FORH     HO1      HDP1A    0.400000       1.00800           0   0.00000       0.00000    
     17153 FORH     13       FORH     LPO21    LPDO1   -0.200000       0.00000          -1   0.00000       0.00000    
     17154 FORH     13       FORH     LPO22    LPDO1   -0.200000       0.00000          -1   0.00000       0.00000    
     17155 FORH     13       FORH     LPO11    LPD     -0.245000       0.00000          -1   0.00000       0.00000    
     17156 FORH     13       FORH     LPO12    LPD     -0.245000       0.00000          -1   0.00000       0.00000    
     17157 FORH     14       FORH     C        CD2O3A    3.13620       11.6110           0  -1.26130       1.05430    
     17158 FORH     14       FORH     DC       DRUD     -2.75620      0.400000           0   0.00000       0.00000    
     17159 FORH     14       FORH     H        HDP1C    0.110000       1.00800           0   0.00000       0.00000    
     17160 FORH     14       FORH     O2       OD2C1A    2.07240       15.5994           0 -0.713100      0.569800    
     17161 FORH     14       FORH     DO2      DRUD     -2.07240      0.400000           0   0.00000       0.00000    
     17162 FORH     14       FORH     O1       OD31A     2.23780       15.5990           0 -0.831500      0.749400    
     17163 FORH     14       FORH     DO1      DRUD     -2.23780      0.400000           0   0.00000       0.00000    
     17164 FORH     14       FORH     HO1      HDP1A    0.400000       1.00800           0   0.00000       0.00000    
     17165 FORH     14       FORH     LPO21    LPDO1   -0.200000       0.00000          -1   0.00000       0.00000    
     17166 FORH     14       FORH     LPO22    LPDO1   -0.200000       0.00000          -1   0.00000       0.00000    
     17167 FORH     14       FORH     LPO11    LPD     -0.245000       0.00000          -1   0.00000       0.00000    
     17168 FORH     14       FORH     LPO12    LPD     -0.245000       0.00000          -1   0.00000       0.00000    
     17169 FORH     15       FORH     C        CD2O3A    3.13620       11.6110           0  -1.26130       1.05430    
     17170 FORH     15       FORH     DC       DRUD     -2.75620      0.400000           0   0.00000       0.00000    
     17171 FORH     15       FORH     H        HDP1C    0.110000       1.00800           0   0.00000       0.00000    
     17172 FORH     15       FORH     O2       OD2C1A    2.07240       15.5994           0 -0.713100      0.569800    
     17173 FORH     15       FORH     DO2      DRUD     -2.07240      0.400000           0   0.00000       0.00000    
     17174 FORH     15       FORH     O1       OD31A     2.23780       15.5990           0 -0.831500      0.749400    
     17175 FORH     15       FORH     DO1      DRUD     -2.23780      0.400000           0   0.00000       0.00000    
     17176 FORH     15       FORH     HO1      HDP1A    0.400000       1.00800           0   0.00000       0.00000    
     17177 FORH     15       FORH     LPO21    LPDO1   -0.200000       0.00000          -1   0.00000       0.00000    
     17178 FORH     15       FORH     LPO22    LPDO1   -0.200000       0.00000          -1   0.00000       0.00000    
     17179 FORH     15       FORH     LPO11    LPD     -0.245000       0.00000          -1   0.00000       0.00000    
     17180 FORH     15       FORH     LPO12    LPD     -0.245000       0.00000          -1   0.00000       0.00000    
     17181 FORH     16       FORH     C        CD2O3A    3.13620       11.6110           0  -1.26130       1.05430    
     17182 FORH     16       FORH     DC       DRUD     -2.75620      0.400000           0   0.00000       0.00000    
     17183 FORH     16       FORH     H        HDP1C    0.110000       1.00800           0   0.00000       0.00000    
     17184 FORH     16       FORH     O2       OD2C1A    2.07240       15.5994           0 -0.713100      0.569800    
     17185 FORH     16       FORH     DO2      DRUD     -2.07240      0.400000           0   0.00000       0.00000    
     17186 FORH     16       FORH     O1       OD31A     2.23780       15.5990           0 -0.831500      0.749400    
     17187 FORH     16       FORH     DO1      DRUD     -2.23780      0.400000           0   0.00000       0.00000    
     17188 FORH     16       FORH     HO1      HDP1A    0.400000       1.00800           0   0.00000       0.00000    
     17189 FORH     16       FORH     LPO21    LPDO1   -0.200000       0.00000          -1   0.00000       0.00000    
     17190 FORH     16       FORH     LPO22    LPDO1   -0.200000       0.00000          -1   0.00000       0.00000    
     17191 FORH     16       FORH     LPO11    LPD     -0.245000       0.00000          -1   0.00000       0.00000    
     17192 FORH     16       FORH     LPO12    LPD     -0.245000       0.00000          -1   0.00000       0.00000    
     17193 FORH     17       FORH     C        CD2O3A    3.13620       11.6110           0  -1.26130       1.05430    
     17194 FORH     17       FORH     DC       DRUD     -2.75620      0.400000           0   0.00000       0.00000    
     17195 FORH     17       FORH     H        HDP1C    0.110000       1.00800           0   0.00000       0.00000    
     17196 FORH     17       FORH     O2       OD2C1A    2.07240       15.5994           0 -0.713100      0.569800    
     17197 FORH     17       FORH     DO2      DRUD     -2.07240      0.400000           0   0.00000       0.00000    
     17198 FORH     17       FORH     O1       OD31A     2.23780       15.5990           0 -0.831500      0.749400    
     17199 FORH     17       FORH     DO1      DRUD     -2.23780      0.400000           0   0.00000       0.00000    
     17200 FORH     17       FORH     HO1      HDP1A    0.400000       1.00800           0   0.00000       0.00000    
     17201 FORH     17       FORH     LPO21    LPDO1   -0.200000       0.00000          -1   0.00000       0.00000    
     17202 FORH     17       FORH     LPO22    LPDO1   -0.200000       0.00000          -1   0.00000       0.00000    
     17203 FORH     17       FORH     LPO11    LPD     -0.245000       0.00000          -1   0.00000       0.00000    
     17204 FORH     17       FORH     LPO12    LPD     -0.245000       0.00000          -1   0.00000       0.00000    
     17205 FORH     18       FORH     C        CD2O3A    3.13620       11.6110           0  -1.26130       1.05430    
     17206 FORH     18       FORH     DC       DRUD     -2.75620      0.400000           0   0.00000       0.00000    
     17207 FORH     18       FORH     H        HDP1C    0.110000       1.00800           0   0.00000       0.00000    
     17208 FORH     18       FORH     O2       OD2C1A    2.07240       15.5994           0 -0.713100      0.569800    
     17209 FORH     18       FORH     DO2      DRUD     -2.07240      0.400000           0   0.00000       0.00000    
     17210 FORH     18       FORH     O1       OD31A     2.23780       15.5990           0 -0.831500      0.749400    
     17211 FORH     18       FORH     DO1      DRUD     -2.23780      0.400000           0   0.00000       0.00000    
     17212 FORH     18       FORH     HO1      HDP1A    0.400000       1.00800           0   0.00000       0.00000    
     17213 FORH     18       FORH     LPO21    LPDO1   -0.200000       0.00000          -1   0.00000       0.00000    
     17214 FORH     18       FORH     LPO22    LPDO1   -0.200000       0.00000          -1   0.00000       0.00000    
     17215 FORH     18       FORH     LPO11    LPD     -0.245000       0.00000          -1   0.00000       0.00000    
     17216 FORH     18       FORH     LPO12    LPD     -0.245000       0.00000          -1   0.00000       0.00000    
     17217 FORH     19       FORH     C        CD2O3A    3.13620       11.6110           0  -1.26130       1.05430    
     17218 FORH     19       FORH     DC       DRUD     -2.75620      0.400000           0   0.00000       0.00000    
     17219 FORH     19       FORH     H        HDP1C    0.110000       1.00800           0   0.00000       0.00000    
     17220 FORH     19       FORH     O2       OD2C1A    2.07240       15.5994           0 -0.713100      0.569800    
     17221 FORH     19       FORH     DO2      DRUD     -2.07240      0.400000           0   0.00000       0.00000    
     17222 FORH     19       FORH     O1       OD31A     2.23780       15.5990           0 -0.831500      0.749400    
     17223 FORH     19       FORH     DO1      DRUD     -2.23780      0.400000           0   0.00000       0.00000    
     17224 FORH     19       FORH     HO1      HDP1A    0.400000       1.00800           0   0.00000       0.00000    
     17225 FORH     19       FORH     LPO21    LPDO1   -0.200000       0.00000          -1   0.00000       0.00000    
     17226 FORH     19       FORH     LPO22    LPDO1   -0.200000       0.00000          -1   0.00000       0.00000    
     17227 FORH     19       FORH     LPO11    LPD     -0.245000       0.00000          -1   0.00000       0.00000    
     17228 FORH     19       FORH     LPO12    LPD     -0.245000       0.00000          -1   0.00000       0.00000    
     17229 FORH     20       FORH     C        CD2O3A    3.13620       11.6110           0  -1.26130       1.05430    
     17230 FORH     20       FORH     DC       DRUD     -2.75620      0.400000           0   0.00000       0.00000    
     17231 FORH     20       FORH     H        HDP1C    0.110000       1.00800           0   0.00000       0.00000    
     17232 FORH     20       FORH     O2       OD2C1A    2.07240       15.5994           0 -0.713100      0.569800    
     17233 FORH     20       FORH     DO2      DRUD     -2.07240      0.400000           0   0.00000       0.00000    
     17234 FORH     20       FORH     O1       OD31A     2.23780       15.5990           0 -0.831500      0.749400    
     17235 FORH     20       FORH     DO1      DRUD     -2.23780      0.400000           0   0.00000       0.00000    
     17236 FORH     20       FORH     HO1      HDP1A    0.400000       1.00800           0   0.00000       0.00000    
     17237 FORH     20       FORH     LPO21    LPDO1   -0.200000       0.00000          -1   0.00000       0.00000    
     17238 FORH     20       FORH     LPO22    LPDO1   -0.200000       0.00000          -1   0.00000       0.00000    
     17239 FORH     20       FORH     LPO11    LPD     -0.245000       0.00000          -1   0.00000       0.00000    
     17240 FORH     20       FORH     LPO12    LPD     -0.245000       0.00000          -1   0.00000       0.00000    
     17241 FORH     21       FORH     C        CD2O3A    3.13620       11.6110           0  -1.26130       1.05430    
     17242 FORH     21       FORH     DC       DRUD     -2.75620      0.400000           0   0.00000       0.00000    
     17243 FORH     21       FORH     H        HDP1C    0.110000       1.00800           0   0.00000       0.00000    
     17244 FORH     21       FORH     O2       OD2C1A    2.07240       15.5994           0 -0.713100      0.569800    
     17245 FORH     21       FORH     DO2      DRUD     -2.07240      0.400000           0   0.00000       0.00000    
     17246 FORH     21       FORH     O1       OD31A     2.23780       15.5990           0 -0.831500      0.749400    
     17247 FORH     21       FORH     DO1      DRUD     -2.23780      0.400000           0   0.00000       0.00000    
     17248 FORH     21       FORH     HO1      HDP1A    0.400000       1.00800           0   0.00000       0.00000    
     17249 FORH     21       FORH     LPO21    LPDO1   -0.200000       0.00000          -1   0.00000       0.00000    
     17250 FORH     21       FORH     LPO22    LPDO1   -0.200000       0.00000          -1   0.00000       0.00000    
     17251 FORH     21       FORH     LPO11    LPD     -0.245000       0.00000          -1   0.00000       0.00000    
     17252 FORH     21       FORH     LPO12    LPD     -0.245000       0.00000          -1   0.00000       0.00000    
     17253 FORH     22       FORH     C        CD2O3A    3.13620       11.6110           0  -1.26130       1.05430    
     17254 FORH     22       FORH     DC       DRUD     -2.75620      0.400000           0   0.00000       0.00000    
     17255 FORH     22       FORH     H        HDP1C    0.110000       1.00800           0   0.00000       0.00000    
     17256 FORH     22       FORH     O2       OD2C1A    2.07240       15.5994           0 -0.713100      0.569800    
     17257 FORH     22       FORH     DO2      DRUD     -2.07240      0.400000           0   0.00000       0.00000    
     17258 FORH     22       FORH     O1       OD31A     2.23780       15.5990           0 -0.831500      0.749400    
     17259 FORH     22       FORH     DO1      DRUD     -2.23780      0.400000           0   0.00000       0.00000    
     17260 FORH     22       FORH     HO1      HDP1A    0.400000       1.00800           0   0.00000       0.00000    
     17261 FORH     22       FORH     LPO21    LPDO1   -0.200000       0.00000          -1   0.00000       0.00000    
     17262 FORH     22       FORH     LPO22    LPDO1   -0.200000       0.00000          -1   0.00000       0.00000    
     17263 FORH     22       FORH     LPO11    LPD     -0.245000       0.00000          -1   0.00000       0.00000    
     17264 FORH     22       FORH     LPO12    LPD     -0.245000       0.00000          -1   0.00000       0.00000    
     17265 FORH     23       FORH     C        CD2O3A    3.13620       11.6110           0  -1.26130       1.05430    
     17266 FORH     23       FORH     DC       DRUD     -2.75620      0.400000           0   0.00000       0.00000    
     17267 FORH     23       FORH     H        HDP1C    0.110000       1.00800           0   0.00000       0.00000    
     17268 FORH     23       FORH     O2       OD2C1A    2.07240       15.5994           0 -0.713100      0.569800    
     17269 FORH     23       FORH     DO2      DRUD     -2.07240      0.400000           0   0.00000       0.00000    
     17270 FORH     23       FORH     O1       OD31A     2.23780       15.5990           0 -0.831500      0.749400    
     17271 FORH     23       FORH     DO1      DRUD     -2.23780      0.400000           0   0.00000       0.00000    
     17272 FORH     23       FORH     HO1      HDP1A    0.400000       1.00800           0   0.00000       0.00000    
     17273 FORH     23       FORH     LPO21    LPDO1   -0.200000       0.00000          -1   0.00000       0.00000    
     17274 FORH     23       FORH     LPO22    LPDO1   -0.200000       0.00000          -1   0.00000       0.00000    
     17275 FORH     23       FORH     LPO11    LPD     -0.245000       0.00000          -1   0.00000       0.00000    
     17276 FORH     23       FORH     LPO12    LPD     -0.245000       0.00000          -1   0.00000       0.00000    
     17277 FORH     24       FORH     C        CD2O3A    3.13620       11.6110           0  -1.26130       1.05430    
     17278 FORH     24       FORH     DC       DRUD     -2.75620      0.400000           0   0.00000       0.00000    
     17279 FORH     24       FORH     H        HDP1C    0.110000       1.00800           0   0.00000       0.00000    
     17280 FORH     24       FORH     O2       OD2C1A    2.07240       15.5994           0 -0.713100      0.569800    
     17281 FORH     24       FORH     DO2      DRUD     -2.07240      0.400000           0   0.00000       0.00000    
     17282 FORH     24       FORH     O1       OD31A     2.23780       15.5990           0 -0.831500      0.749400    
     17283 FORH     24       FORH     DO1      DRUD     -2.23780      0.400000           0   0.00000       0.00000    
     17284 FORH     24       FORH     HO1      HDP1A    0.400000       1.00800           0   0.00000       0.00000    
     17285 FORH     24       FORH     LPO21    LPDO1   -0.200000       0.00000          -1   0.00000       0.00000    
     17286 FORH     24       FORH     LPO22    LPDO1   -0.200000       0.00000          -1   0.00000       0.00000    
     17287 FORH     24       FORH     LPO11    LPD     -0.245000       0.00000          -1   0.00000       0.00000    
     17288 FORH     24       FORH     LPO12    LPD     -0.245000       0.00000          -1   0.00000       0.00000    
     17289 FORH     25       FORH     C        CD2O3A    3.13620       11.6110           0  -1.26130       1.05430    
     17290 FORH     25       FORH     DC       DRUD     -2.75620      0.400000           0   0.00000       0.00000    
     17291 FORH     25       FORH     H        HDP1C    0.110000       1.00800           0   0.00000       0.00000    
     17292 FORH     25       FORH     O2       OD2C1A    2.07240       15.5994           0 -0.713100      0.569800    
     17293 FORH     25       FORH     DO2      DRUD     -2.07240      0.400000           0   0.00000       0.00000    
     17294 FORH     25       FORH     O1       OD31A     2.23780       15.5990           0 -0.831500      0.749400    
     17295 FORH     25       FORH     DO1      DRUD     -2.23780      0.400000           0   0.00000       0.00000    
     17296 FORH     25       FORH     HO1      HDP1A    0.400000       1.00800           0   0.00000       0.00000    
     17297 FORH     25       FORH     LPO21    LPDO1   -0.200000       0.00000          -1   0.00000       0.00000    
     17298 FORH     25       FORH     LPO22    LPDO1   -0.200000       0.00000          -1   0.00000       0.00000    
     17299 FORH     25       FORH     LPO11    LPD     -0.245000       0.00000          -1   0.00000       0.00000    
     17300 FORH     25       FORH     LPO12    LPD     -0.245000       0.00000          -1   0.00000       0.00000    
     17301 FORH     26       FORH     C        CD2O3A    3.13620       11.6110           0  -1.26130       1.05430    
     17302 FORH     26       FORH     DC       DRUD     -2.75620      0.400000           0   0.00000       0.00000    
     17303 FORH     26       FORH     H        HDP1C    0.110000       1.00800           0   0.00000       0.00000    
     17304 FORH     26       FORH     O2       OD2C1A    2.07240       15.5994           0 -0.713100      0.569800    
     17305 FORH     26       FORH     DO2      DRUD     -2.07240      0.400000           0   0.00000       0.00000    
     17306 FORH     26       FORH     O1       OD31A     2.23780       15.5990           0 -0.831500      0.749400    
     17307 FORH     26       FORH     DO1      DRUD     -2.23780      0.400000           0   0.00000       0.00000    
     17308 FORH     26       FORH     HO1      HDP1A    0.400000       1.00800           0   0.00000       0.00000    
     17309 FORH     26       FORH     LPO21    LPDO1   -0.200000       0.00000          -1   0.00000       0.00000    
     17310 FORH     26       FORH     LPO22    LPDO1   -0.200000       0.00000          -1   0.00000       0.00000    
     17311 FORH     26       FORH     LPO11    LPD     -0.245000       0.00000          -1   0.00000       0.00000    
     17312 FORH     26       FORH     LPO12    LPD     -0.245000       0.00000          -1   0.00000       0.00000    
     17313 FORH     27       FORH     C        CD2O3A    3.13620       11.6110           0  -1.26130       1.05430    
     17314 FORH     27       FORH     DC       DRUD     -2.75620      0.400000           0   0.00000       0.00000    
     17315 FORH     27       FORH     H        HDP1C    0.110000       1.00800           0   0.00000       0.00000    
     17316 FORH     27       FORH     O2       OD2C1A    2.07240       15.5994           0 -0.713100      0.569800    
     17317 FORH     27       FORH     DO2      DRUD     -2.07240      0.400000           0   0.00000       0.00000    
     17318 FORH     27       FORH     O1       OD31A     2.23780       15.5990           0 -0.831500      0.749400    
     17319 FORH     27       FORH     DO1      DRUD     -2.23780      0.400000           0   0.00000       0.00000    
     17320 FORH     27       FORH     HO1      HDP1A    0.400000       1.00800           0   0.00000       0.00000    
     17321 FORH     27       FORH     LPO21    LPDO1   -0.200000       0.00000          -1   0.00000       0.00000    
     17322 FORH     27       FORH     LPO22    LPDO1   -0.200000       0.00000          -1   0.00000       0.00000    
     17323 FORH     27       FORH     LPO11    LPD     -0.245000       0.00000          -1   0.00000       0.00000    
     17324 FORH     27       FORH     LPO12    LPD     -0.245000       0.00000          -1   0.00000       0.00000    
     17325 FORH     28       FORH     C        CD2O3A    3.13620       11.6110           0  -1.26130       1.05430    
     17326 FORH     28       FORH     DC       DRUD     -2.75620      0.400000           0   0.00000       0.00000    
     17327 FORH     28       FORH     H        HDP1C    0.110000       1.00800           0   0.00000       0.00000    
     17328 FORH     28       FORH     O2       OD2C1A    2.07240       15.5994           0 -0.713100      0.569800    
     17329 FORH     28       FORH     DO2      DRUD     -2.07240      0.400000           0   0.00000       0.00000    
     17330 FORH     28       FORH     O1       OD31A     2.23780       15.5990           0 -0.831500      0.749400    
     17331 FORH     28       FORH     DO1      DRUD     -2.23780      0.400000           0   0.00000       0.00000    
     17332 FORH     28       FORH     HO1      HDP1A    0.400000       1.00800           0   0.00000       0.00000    
     17333 FORH     28       FORH     LPO21    LPDO1   -0.200000       0.00000          -1   0.00000       0.00000    
     17334 FORH     28       FORH     LPO22    LPDO1   -0.200000       0.00000          -1   0.00000       0.00000    
     17335 FORH     28       FORH     LPO11    LPD     -0.245000       0.00000          -1   0.00000       0.00000    
     17336 FORH     28       FORH     LPO12    LPD     -0.245000       0.00000          -1   0.00000       0.00000    
     17337 FORH     29       FORH     C        CD2O3A    3.13620       11.6110           0  -1.26130       1.05430    
     17338 FORH     29       FORH     DC       DRUD     -2.75620      0.400000           0   0.00000       0.00000    
     17339 FORH     29       FORH     H        HDP1C    0.110000       1.00800           0   0.00000       0.00000    
     17340 FORH     29       FORH     O2       OD2C1A    2.07240       15.5994           0 -0.713100      0.569800    
     17341 FORH     29       FORH     DO2      DRUD     -2.07240      0.400000           0   0.00000       0.00000    
     17342 FORH     29       FORH     O1       OD31A     2.23780       15.5990           0 -0.831500      0.749400    
     17343 FORH     29       FORH     DO1      DRUD     -2.23780      0.400000           0   0.00000       0.00000    
     17344 FORH     29       FORH     HO1      HDP1A    0.400000       1.00800           0   0.00000       0.00000    
     17345 FORH     29       FORH     LPO21    LPDO1   -0.200000       0.00000          -1   0.00000       0.00000    
     17346 FORH     29       FORH     LPO22    LPDO1   -0.200000       0.00000          -1   0.00000       0.00000    
     17347 FORH     29       FORH     LPO11    LPD     -0.245000       0.00000          -1   0.00000       0.00000    
     17348 FORH     29       FORH     LPO12    LPD     -0.245000       0.00000          -1   0.00000       0.00000    
     17349 FORH     30       FORH     C        CD2O3A    3.13620       11.6110           0  -1.26130       1.05430    
     17350 FORH     30       FORH     DC       DRUD     -2.75620      0.400000           0   0.00000       0.00000    
     17351 FORH     30       FORH     H        HDP1C    0.110000       1.00800           0   0.00000       0.00000    
     17352 FORH     30       FORH     O2       OD2C1A    2.07240       15.5994           0 -0.713100      0.569800    
     17353 FORH     30       FORH     DO2      DRUD     -2.07240      0.400000           0   0.00000       0.00000    
     17354 FORH     30       FORH     O1       OD31A     2.23780       15.5990           0 -0.831500      0.749400    
     17355 FORH     30       FORH     DO1      DRUD     -2.23780      0.400000           0   0.00000       0.00000    
     17356 FORH     30       FORH     HO1      HDP1A    0.400000       1.00800           0   0.00000       0.00000    
     17357 FORH     30       FORH     LPO21    LPDO1   -0.200000       0.00000          -1   0.00000       0.00000    
     17358 FORH     30       FORH     LPO22    LPDO1   -0.200000       0.00000          -1   0.00000       0.00000    
     17359 FORH     30       FORH     LPO11    LPD     -0.245000       0.00000          -1   0.00000       0.00000    
     17360 FORH     30       FORH     LPO12    LPD     -0.245000       0.00000          -1   0.00000       0.00000    
     17361 FORH     31       FORH     C        CD2O3A    3.13620       11.6110           0  -1.26130       1.05430    
     17362 FORH     31       FORH     DC       DRUD     -2.75620      0.400000           0   0.00000       0.00000    
     17363 FORH     31       FORH     H        HDP1C    0.110000       1.00800           0   0.00000       0.00000    
     17364 FORH     31       FORH     O2       OD2C1A    2.07240       15.5994           0 -0.713100      0.569800    
     17365 FORH     31       FORH     DO2      DRUD     -2.07240      0.400000           0   0.00000       0.00000    
     17366 FORH     31       FORH     O1       OD31A     2.23780       15.5990           0 -0.831500      0.749400    
     17367 FORH     31       FORH     DO1      DRUD     -2.23780      0.400000           0   0.00000       0.00000    
     17368 FORH     31       FORH     HO1      HDP1A    0.400000       1.00800           0   0.00000       0.00000    
     17369 FORH     31       FORH     LPO21    LPDO1   -0.200000       0.00000          -1   0.00000       0.00000    
     17370 FORH     31       FORH     LPO22    LPDO1   -0.200000       0.00000          -1   0.00000       0.00000    
     17371 FORH     31       FORH     LPO11    LPD     -0.245000       0.00000          -1   0.00000       0.00000    
     17372 FORH     31       FORH     LPO12    LPD     -0.245000       0.00000          -1   0.00000       0.00000    
     17373 FORH     32       FORH     C        CD2O3A    3.13620       11.6110           0  -1.26130       1.05430    
     17374 FORH     32       FORH     DC       DRUD     -2.75620      0.400000           0   0.00000       0.00000    
     17375 FORH     32       FORH     H        HDP1C    0.110000       1.00800           0   0.00000       0.00000    
     17376 FORH     32       FORH     O2       OD2C1A    2.07240       15.5994           0 -0.713100      0.569800    
     17377 FORH     32       FORH     DO2      DRUD     -2.07240      0.400000           0   0.00000       0.00000    
     17378 FORH     32       FORH     O1       OD31A     2.23780       15.5990           0 -0.831500      0.749400    
     17379 FORH     32       FORH     DO1      DRUD     -2.23780      0.400000           0   0.00000       0.00000    
     17380 FORH     32       FORH     HO1      HDP1A    0.400000       1.00800           0   0.00000       0.00000    
     17381 FORH     32       FORH     LPO21    LPDO1   -0.200000       0.00000          -1   0.00000       0.00000    
     17382 FORH     32       FORH     LPO22    LPDO1   -0.200000       0.00000          -1   0.00000       0.00000    
     17383 FORH     32       FORH     LPO11    LPD     -0.245000       0.00000          -1   0.00000       0.00000    
     17384 FORH     32       FORH     LPO12    LPD     -0.245000       0.00000          -1   0.00000       0.00000    
     17385 FORH     33       FORH     C        CD2O3A    3.13620       11.6110           0  -1.26130       1.05430    
     17386 FORH     33       FORH     DC       DRUD     -2.75620      0.400000           0   0.00000       0.00000    
     17387 FORH     33       FORH     H        HDP1C    0.110000       1.00800           0   0.00000       0.00000    
     17388 FORH     33       FORH     O2       OD2C1A    2.07240       15.5994           0 -0.713100      0.569800    
     17389 FORH     33       FORH     DO2      DRUD     -2.07240      0.400000           0   0.00000       0.00000    
     17390 FORH     33       FORH     O1       OD31A     2.23780       15.5990           0 -0.831500      0.749400    
     17391 FORH     33       FORH     DO1      DRUD     -2.23780      0.400000           0   0.00000       0.00000    
     17392 FORH     33       FORH     HO1      HDP1A    0.400000       1.00800           0   0.00000       0.00000    
     17393 FORH     33       FORH     LPO21    LPDO1   -0.200000       0.00000          -1   0.00000       0.00000    
     17394 FORH     33       FORH     LPO22    LPDO1   -0.200000       0.00000          -1   0.00000       0.00000    
     17395 FORH     33       FORH     LPO11    LPD     -0.245000       0.00000          -1   0.00000       0.00000    
     17396 FORH     33       FORH     LPO12    LPD     -0.245000       0.00000          -1   0.00000       0.00000    
     17397 FORH     34       FORH     C        CD2O3A    3.13620       11.6110           0  -1.26130       1.05430    
     17398 FORH     34       FORH     DC       DRUD     -2.75620      0.400000           0   0.00000       0.00000    
     17399 FORH     34       FORH     H        HDP1C    0.110000       1.00800           0   0.00000       0.00000    
     17400 FORH     34       FORH     O2       OD2C1A    2.07240       15.5994           0 -0.713100      0.569800    
     17401 FORH     34       FORH     DO2      DRUD     -2.07240      0.400000           0   0.00000       0.00000    
     17402 FORH     34       FORH     O1       OD31A     2.23780       15.5990           0 -0.831500      0.749400    
     17403 FORH     34       FORH     DO1      DRUD     -2.23780      0.400000           0   0.00000       0.00000    
     17404 FORH     34       FORH     HO1      HDP1A    0.400000       1.00800           0   0.00000       0.00000    
     17405 FORH     34       FORH     LPO21    LPDO1   -0.200000       0.00000          -1   0.00000       0.00000    
     17406 FORH     34       FORH     LPO22    LPDO1   -0.200000       0.00000          -1   0.00000       0.00000    
     17407 FORH     34       FORH     LPO11    LPD     -0.245000       0.00000          -1   0.00000       0.00000    
     17408 FORH     34       FORH     LPO12    LPD     -0.245000       0.00000          -1   0.00000       0.00000    
     17409 FORH     35       FORH     C        CD2O3A    3.13620       11.6110           0  -1.26130       1.05430    
     17410 FORH     35       FORH     DC       DRUD     -2.75620      0.400000           0   0.00000       0.00000    
     17411 FORH     35       FORH     H        HDP1C    0.110000       1.00800           0   0.00000       0.00000    
     17412 FORH     35       FORH     O2       OD2C1A    2.07240       15.5994           0 -0.713100      0.569800    
     17413 FORH     35       FORH     DO2      DRUD     -2.07240      0.400000           0   0.00000       0.00000    
     17414 FORH     35       FORH     O1       OD31A     2.23780       15.5990           0 -0.831500      0.749400    
     17415 FORH     35       FORH     DO1      DRUD     -2.23780      0.400000           0   0.00000       0.00000    
     17416 FORH     35       FORH     HO1      HDP1A    0.400000       1.00800           0   0.00000       0.00000    
     17417 FORH     35       FORH     LPO21    LPDO1   -0.200000       0.00000          -1   0.00000       0.00000    
     17418 FORH     35       FORH     LPO22    LPDO1   -0.200000       0.00000          -1   0.00000       0.00000    
     17419 FORH     35       FORH     LPO11    LPD     -0.245000       0.00000          -1   0.00000       0.00000    
     17420 FORH     35       FORH     LPO12    LPD     -0.245000       0.00000          -1   0.00000       0.00000    
     17421 FORH     36       FORH     C        CD2O3A    3.13620       11.6110           0  -1.26130       1.05430    
     17422 FORH     36       FORH     DC       DRUD     -2.75620      0.400000           0   0.00000       0.00000    
     17423 FORH     36       FORH     H        HDP1C    0.110000       1.00800           0   0.00000       0.00000    
     17424 FORH     36       FORH     O2       OD2C1A    2.07240       15.5994           0 -0.713100      0.569800    
     17425 FORH     36       FORH     DO2      DRUD     -2.07240      0.400000           0   0.00000       0.00000    
     17426 FORH     36       FORH     O1       OD31A     2.23780       15.5990           0 -0.831500      0.749400    
     17427 FORH     36       FORH     DO1      DRUD     -2.23780      0.400000           0   0.00000       0.00000    
     17428 FORH     36       FORH     HO1      HDP1A    0.400000       1.00800           0   0.00000       0.00000    
     17429 FORH     36       FORH     LPO21    LPDO1   -0.200000       0.00000          -1   0.00000       0.00000    
     17430 FORH     36       FORH     LPO22    LPDO1   -0.200000       0.00000          -1   0.00000       0.00000    
     17431 FORH     36       FORH     LPO11    LPD     -0.245000       0.00000          -1   0.00000       0.00000    
     17432 FORH     36       FORH     LPO12    LPD     -0.245000       0.00000          -1   0.00000       0.00000    
     17433 FORH     37       FORH     C        CD2O3A    3.13620       11.6110           0  -1.26130       1.05430    
     17434 FORH     37       FORH     DC       DRUD     -2.75620      0.400000           0   0.00000       0.00000    
     17435 FORH     37       FORH     H        HDP1C    0.110000       1.00800           0   0.00000       0.00000    
     17436 FORH     37       FORH     O2       OD2C1A    2.07240       15.5994           0 -0.713100      0.569800    
     17437 FORH     37       FORH     DO2      DRUD     -2.07240      0.400000           0   0.00000       0.00000    
     17438 FORH     37       FORH     O1       OD31A     2.23780       15.5990           0 -0.831500      0.749400    
     17439 FORH     37       FORH     DO1      DRUD     -2.23780      0.400000           0   0.00000       0.00000    
     17440 FORH     37       FORH     HO1      HDP1A    0.400000       1.00800           0   0.00000       0.00000    
     17441 FORH     37       FORH     LPO21    LPDO1   -0.200000       0.00000          -1   0.00000       0.00000    
     17442 FORH     37       FORH     LPO22    LPDO1   -0.200000       0.00000          -1   0.00000       0.00000    
     17443 FORH     37       FORH     LPO11    LPD     -0.245000       0.00000          -1   0.00000       0.00000    
     17444 FORH     37       FORH     LPO12    LPD     -0.245000       0.00000          -1   0.00000       0.00000    
     17445 FORH     38       FORH     C        CD2O3A    3.13620       11.6110           0  -1.26130       1.05430    
     17446 FORH     38       FORH     DC       DRUD     -2.75620      0.400000           0   0.00000       0.00000    
     17447 FORH     38       FORH     H        HDP1C    0.110000       1.00800           0   0.00000       0.00000    
     17448 FORH     38       FORH     O2       OD2C1A    2.07240       15.5994           0 -0.713100      0.569800    
     17449 FORH     38       FORH     DO2      DRUD     -2.07240      0.400000           0   0.00000       0.00000    
     17450 FORH     38       FORH     O1       OD31A     2.23780       15.5990           0 -0.831500      0.749400    
     17451 FORH     38       FORH     DO1      DRUD     -2.23780      0.400000           0   0.00000       0.00000    
     17452 FORH     38       FORH     HO1      HDP1A    0.400000       1.00800           0   0.00000       0.00000    
     17453 FORH     38       FORH     LPO21    LPDO1   -0.200000       0.00000          -1   0.00000       0.00000    
     17454 FORH     38       FORH     LPO22    LPDO1   -0.200000       0.00000          -1   0.00000       0.00000    
     17455 FORH     38       FORH     LPO11    LPD     -0.245000       0.00000          -1   0.00000       0.00000    
     17456 FORH     38       FORH     LPO12    LPD     -0.245000       0.00000          -1   0.00000       0.00000    
     17457 FORH     39       FORH     C        CD2O3A    3.13620       11.6110           0  -1.26130       1.05430    
     17458 FORH     39       FORH     DC       DRUD     -2.75620      0.400000           0   0.00000       0.00000    
     17459 FORH     39       FORH     H        HDP1C    0.110000       1.00800           0   0.00000       0.00000    
     17460 FORH     39       FORH     O2       OD2C1A    2.07240       15.5994           0 -0.713100      0.569800    
     17461 FORH     39       FORH     DO2      DRUD     -2.07240      0.400000           0   0.00000       0.00000    
     17462 FORH     39       FORH     O1       OD31A     2.23780       15.5990           0 -0.831500      0.749400    
     17463 FORH     39       FORH     DO1      DRUD     -2.23780      0.400000           0   0.00000       0.00000    
     17464 FORH     39       FORH     HO1      HDP1A    0.400000       1.00800           0   0.00000       0.00000    
     17465 FORH     39       FORH     LPO21    LPDO1   -0.200000       0.00000          -1   0.00000       0.00000    
     17466 FORH     39       FORH     LPO22    LPDO1   -0.200000       0.00000          -1   0.00000       0.00000    
     17467 FORH     39       FORH     LPO11    LPD     -0.245000       0.00000          -1   0.00000       0.00000    
     17468 FORH     39       FORH     LPO12    LPD     -0.245000       0.00000          -1   0.00000       0.00000    
     17469 FORH     40       FORH     C        CD2O3A    3.13620       11.6110           0  -1.26130       1.05430    
     17470 FORH     40       FORH     DC       DRUD     -2.75620      0.400000           0   0.00000       0.00000    
     17471 FORH     40       FORH     H        HDP1C    0.110000       1.00800           0   0.00000       0.00000    
     17472 FORH     40       FORH     O2       OD2C1A    2.07240       15.5994           0 -0.713100      0.569800    
     17473 FORH     40       FORH     DO2      DRUD     -2.07240      0.400000           0   0.00000       0.00000    
     17474 FORH     40       FORH     O1       OD31A     2.23780       15.5990           0 -0.831500      0.749400    
     17475 FORH     40       FORH     DO1      DRUD     -2.23780      0.400000           0   0.00000       0.00000    
     17476 FORH     40       FORH     HO1      HDP1A    0.400000       1.00800           0   0.00000       0.00000    
     17477 FORH     40       FORH     LPO21    LPDO1   -0.200000       0.00000          -1   0.00000       0.00000    
     17478 FORH     40       FORH     LPO22    LPDO1   -0.200000       0.00000          -1   0.00000       0.00000    
     17479 FORH     40       FORH     LPO11    LPD     -0.245000       0.00000          -1   0.00000       0.00000    
     17480 FORH     40       FORH     LPO12    LPD     -0.245000       0.00000          -1   0.00000       0.00000    
     17481 FORH     41       FORH     C        CD2O3A    3.13620       11.6110           0  -1.26130       1.05430    
     17482 FORH     41       FORH     DC       DRUD     -2.75620      0.400000           0   0.00000       0.00000    
     17483 FORH     41       FORH     H        HDP1C    0.110000       1.00800           0   0.00000       0.00000    
     17484 FORH     41       FORH     O2       OD2C1A    2.07240       15.5994           0 -0.713100      0.569800    
     17485 FORH     41       FORH     DO2      DRUD     -2.07240      0.400000           0   0.00000       0.00000    
     17486 FORH     41       FORH     O1       OD31A     2.23780       15.5990           0 -0.831500      0.749400    
     17487 FORH     41       FORH     DO1      DRUD     -2.23780      0.400000           0   0.00000       0.00000    
     17488 FORH     41       FORH     HO1      HDP1A    0.400000       1.00800           0   0.00000       0.00000    
     17489 FORH     41       FORH     LPO21    LPDO1   -0.200000       0.00000          -1   0.00000       0.00000    
     17490 FORH     41       FORH     LPO22    LPDO1   -0.200000       0.00000          -1   0.00000       0.00000    
     17491 FORH     41       FORH     LPO11    LPD     -0.245000       0.00000          -1   0.00000       0.00000    
     17492 FORH     41       FORH     LPO12    LPD     -0.245000       0.00000          -1   0.00000       0.00000    
     17493 FORH     42       FORH     C        CD2O3A    3.13620       11.6110           0  -1.26130       1.05430    
     17494 FORH     42       FORH     DC       DRUD     -2.75620      0.400000           0   0.00000       0.00000    
     17495 FORH     42       FORH     H        HDP1C    0.110000       1.00800           0   0.00000       0.00000    
     17496 FORH     42       FORH     O2       OD2C1A    2.07240       15.5994           0 -0.713100      0.569800    
     17497 FORH     42       FORH     DO2      DRUD     -2.07240      0.400000           0   0.00000       0.00000    
     17498 FORH     42       FORH     O1       OD31A     2.23780       15.5990           0 -0.831500      0.749400    
     17499 FORH     42       FORH     DO1      DRUD     -2.23780      0.400000           0   0.00000       0.00000    
     17500 FORH     42       FORH     HO1      HDP1A    0.400000       1.00800           0   0.00000       0.00000    
     17501 FORH     42       FORH     LPO21    LPDO1   -0.200000       0.00000          -1   0.00000       0.00000    
     17502 FORH     42       FORH     LPO22    LPDO1   -0.200000       0.00000          -1   0.00000       0.00000    
     17503 FORH     42       FORH     LPO11    LPD     -0.245000       0.00000          -1   0.00000       0.00000    
     17504 FORH     42       FORH     LPO12    LPD     -0.245000       0.00000          -1   0.00000       0.00000    
     17505 FORH     43       FORH     C        CD2O3A    3.13620       11.6110           0  -1.26130       1.05430    
     17506 FORH     43       FORH     DC       DRUD     -2.75620      0.400000           0   0.00000       0.00000    
     17507 FORH     43       FORH     H        HDP1C    0.110000       1.00800           0   0.00000       0.00000    
     17508 FORH     43       FORH     O2       OD2C1A    2.07240       15.5994           0 -0.713100      0.569800    
     17509 FORH     43       FORH     DO2      DRUD     -2.07240      0.400000           0   0.00000       0.00000    
     17510 FORH     43       FORH     O1       OD31A     2.23780       15.5990           0 -0.831500      0.749400    
     17511 FORH     43       FORH     DO1      DRUD     -2.23780      0.400000           0   0.00000       0.00000    
     17512 FORH     43       FORH     HO1      HDP1A    0.400000       1.00800           0   0.00000       0.00000    
     17513 FORH     43       FORH     LPO21    LPDO1   -0.200000       0.00000          -1   0.00000       0.00000    
     17514 FORH     43       FORH     LPO22    LPDO1   -0.200000       0.00000          -1   0.00000       0.00000    
     17515 FORH     43       FORH     LPO11    LPD     -0.245000       0.00000          -1   0.00000       0.00000    
     17516 FORH     43       FORH     LPO12    LPD     -0.245000       0.00000          -1   0.00000       0.00000    
     17517 FORH     44       FORH     C        CD2O3A    3.13620       11.6110           0  -1.26130       1.05430    
     17518 FORH     44       FORH     DC       DRUD     -2.75620      0.400000           0   0.00000       0.00000    
     17519 FORH     44       FORH     H        HDP1C    0.110000       1.00800           0   0.00000       0.00000    
     17520 FORH     44       FORH     O2       OD2C1A    2.07240       15.5994           0 -0.713100      0.569800    
     17521 FORH     44       FORH     DO2      DRUD     -2.07240      0.400000           0   0.00000       0.00000    
     17522 FORH     44       FORH     O1       OD31A     2.23780       15.5990           0 -0.831500      0.749400    
     17523 FORH     44       FORH     DO1      DRUD     -2.23780      0.400000           0   0.00000       0.00000    
     17524 FORH     44       FORH     HO1      HDP1A    0.400000       1.00800           0   0.00000       0.00000    
     17525 FORH     44       FORH     LPO21    LPDO1   -0.200000       0.00000          -1   0.00000       0.00000    
     17526 FORH     44       FORH     LPO22    LPDO1   -0.200000       0.00000          -1   0.00000       0.00000    
     17527 FORH     44       FORH     LPO11    LPD     -0.245000       0.00000          -1   0.00000       0.00000    
     17528 FORH     44       FORH     LPO12    LPD     -0.245000       0.00000          -1   0.00000       0.00000    
     17529 FORH     45       FORH     C        CD2O3A    3.13620       11.6110           0  -1.26130       1.05430    
     17530 FORH     45       FORH     DC       DRUD     -2.75620      0.400000           0   0.00000       0.00000    
     17531 FORH     45       FORH     H        HDP1C    0.110000       1.00800           0   0.00000       0.00000    
     17532 FORH     45       FORH     O2       OD2C1A    2.07240       15.5994           0 -0.713100      0.569800    
     17533 FORH     45       FORH     DO2      DRUD     -2.07240      0.400000           0   0.00000       0.00000    
     17534 FORH     45       FORH     O1       OD31A     2.23780       15.5990           0 -0.831500      0.749400    
     17535 FORH     45       FORH     DO1      DRUD     -2.23780      0.400000           0   0.00000       0.00000    
     17536 FORH     45       FORH     HO1      HDP1A    0.400000       1.00800           0   0.00000       0.00000    
     17537 FORH     45       FORH     LPO21    LPDO1   -0.200000       0.00000          -1   0.00000       0.00000    
     17538 FORH     45       FORH     LPO22    LPDO1   -0.200000       0.00000          -1   0.00000       0.00000    
     17539 FORH     45       FORH     LPO11    LPD     -0.245000       0.00000          -1   0.00000       0.00000    
     17540 FORH     45       FORH     LPO12    LPD     -0.245000       0.00000          -1   0.00000       0.00000    
     17541 FORH     46       FORH     C        CD2O3A    3.13620       11.6110           0  -1.26130       1.05430    
     17542 FORH     46       FORH     DC       DRUD     -2.75620      0.400000           0   0.00000       0.00000    
     17543 FORH     46       FORH     H        HDP1C    0.110000       1.00800           0   0.00000       0.00000    
     17544 FORH     46       FORH     O2       OD2C1A    2.07240       15.5994           0 -0.713100      0.569800    
     17545 FORH     46       FORH     DO2      DRUD     -2.07240      0.400000           0   0.00000       0.00000    
     17546 FORH     46       FORH     O1       OD31A     2.23780       15.5990           0 -0.831500      0.749400    
     17547 FORH     46       FORH     DO1      DRUD     -2.23780      0.400000           0   0.00000       0.00000    
     17548 FORH     46       FORH     HO1      HDP1A    0.400000       1.00800           0   0.00000       0.00000    
     17549 FORH     46       FORH     LPO21    LPDO1   -0.200000       0.00000          -1   0.00000       0.00000    
     17550 FORH     46       FORH     LPO22    LPDO1   -0.200000       0.00000          -1   0.00000       0.00000    
     17551 FORH     46       FORH     LPO11    LPD     -0.245000       0.00000          -1   0.00000       0.00000    
     17552 FORH     46       FORH     LPO12    LPD     -0.245000       0.00000          -1   0.00000       0.00000    
     17553 FORH     47       FORH     C        CD2O3A    3.13620       11.6110           0  -1.26130       1.05430    
     17554 FORH     47       FORH     DC       DRUD     -2.75620      0.400000           0   0.00000       0.00000    
     17555 FORH     47       FORH     H        HDP1C    0.110000       1.00800           0   0.00000       0.00000    
     17556 FORH     47       FORH     O2       OD2C1A    2.07240       15.5994           0 -0.713100      0.569800    
     17557 FORH     47       FORH     DO2      DRUD     -2.07240      0.400000           0   0.00000       0.00000    
     17558 FORH     47       FORH     O1       OD31A     2.23780       15.5990           0 -0.831500      0.749400    
     17559 FORH     47       FORH     DO1      DRUD     -2.23780      0.400000           0   0.00000       0.00000    
     17560 FORH     47       FORH     HO1      HDP1A    0.400000       1.00800           0   0.00000       0.00000    
     17561 FORH     47       FORH     LPO21    LPDO1   -0.200000       0.00000          -1   0.00000       0.00000    
     17562 FORH     47       FORH     LPO22    LPDO1   -0.200000       0.00000          -1   0.00000       0.00000    
     17563 FORH     47       FORH     LPO11    LPD     -0.245000       0.00000          -1   0.00000       0.00000    
     17564 FORH     47       FORH     LPO12    LPD     -0.245000       0.00000          -1   0.00000       0.00000    
     17565 FORH     48       FORH     C        CD2O3A    3.13620       11.6110           0  -1.26130       1.05430    
     17566 FORH     48       FORH     DC       DRUD     -2.75620      0.400000           0   0.00000       0.00000    
     17567 FORH     48       FORH     H        HDP1C    0.110000       1.00800           0   0.00000       0.00000    
     17568 FORH     48       FORH     O2       OD2C1A    2.07240       15.5994           0 -0.713100      0.569800    
     17569 FORH     48       FORH     DO2      DRUD     -2.07240      0.400000           0   0.00000       0.00000    
     17570 FORH     48       FORH     O1       OD31A     2.23780       15.5990           0 -0.831500      0.749400    
     17571 FORH     48       FORH     DO1      DRUD     -2.23780      0.400000           0   0.00000       0.00000    
     17572 FORH     48       FORH     HO1      HDP1A    0.400000       1.00800           0   0.00000       0.00000    
     17573 FORH     48       FORH     LPO21    LPDO1   -0.200000       0.00000          -1   0.00000       0.00000    
     17574 FORH     48       FORH     LPO22    LPDO1   -0.200000       0.00000          -1   0.00000       0.00000    
     17575 FORH     48       FORH     LPO11    LPD     -0.245000       0.00000          -1   0.00000       0.00000    
     17576 FORH     48       FORH     LPO12    LPD     -0.245000       0.00000          -1   0.00000       0.00000    
     17577 FORH     49       FORH     C        CD2O3A    3.13620       11.6110           0  -1.26130       1.05430    
     17578 FORH     49       FORH     DC       DRUD     -2.75620      0.400000           0   0.00000       0.00000    
     17579 FORH     49       FORH     H        HDP1C    0.110000       1.00800           0   0.00000       0.00000    
     17580 FORH     49       FORH     O2       OD2C1A    2.07240       15.5994           0 -0.713100      0.569800    
     17581 FORH     49       FORH     DO2      DRUD     -2.07240      0.400000           0   0.00000       0.00000    
     17582 FORH     49       FORH     O1       OD31A     2.23780       15.5990           0 -0.831500      0.749400    
     17583 FORH     49       FORH     DO1      DRUD     -2.23780      0.400000           0   0.00000       0.00000    
     17584 FORH     49       FORH     HO1      HDP1A    0.400000       1.00800           0   0.00000       0.00000    
     17585 FORH     49       FORH     LPO21    LPDO1   -0.200000       0.00000          -1   0.00000       0.00000    
     17586 FORH     49       FORH     LPO22    LPDO1   -0.200000       0.00000          -1   0.00000       0.00000    
     17587 FORH     49       FORH     LPO11    LPD     -0.245000       0.00000          -1   0.00000       0.00000    
     17588 FORH     49       FORH     LPO12    LPD     -0.245000       0.00000          -1   0.00000       0.00000    
     17589 FORH     50       FORH     C        CD2O3A    3.13620       11.6110           0  -1.26130       1.05430    
     17590 FORH     50       FORH     DC       DRUD     -2.75620      0.400000           0   0.00000       0.00000    
     17591 FORH     50       FORH     H        HDP1C    0.110000       1.00800           0   0.00000       0.00000    
     17592 FORH     50       FORH     O2       OD2C1A    2.07240       15.5994           0 -0.713100      0.569800    
     17593 FORH     50       FORH     DO2      DRUD     -2.07240      0.400000           0   0.00000       0.00000    
     17594 FORH     50       FORH     O1       OD31A     2.23780       15.5990           0 -0.831500      0.749400    
     17595 FORH     50       FORH     DO1      DRUD     -2.23780      0.400000           0   0.00000       0.00000    
     17596 FORH     50       FORH     HO1      HDP1A    0.400000       1.00800           0   0.00000       0.00000    
     17597 FORH     50       FORH     LPO21    LPDO1   -0.200000       0.00000          -1   0.00000       0.00000    
     17598 FORH     50       FORH     LPO22    LPDO1   -0.200000       0.00000          -1   0.00000       0.00000    
     17599 FORH     50       FORH     LPO11    LPD     -0.245000       0.00000          -1   0.00000       0.00000    
     17600 FORH     50       FORH     LPO12    LPD     -0.245000       0.00000          -1   0.00000       0.00000    

     17050 !NBOND: bonds
         1         2         6         7         8         9        11        12
        14        15        17        18         1         6         1         3
         1         4         1         5         6         8         6        14
         8        11         8        10        11        13        11        17
        17        14        14        16        17        19        20        17
        21        22        26        27        28        29        31        32
        34        35        37        38        21        26        21        23
        21        24        21        25        26        28        26        34
        28        31        28        30        31        33        31        37
        37        34        34        36        37        39        40        37
        41        42        46        47        48        49        51        52
        54        55        57        58        41        46        41        43
        41        44        41        45        46        48        46        54
        48        51        48        50        51        53        51        57
        57        54        54        56        57        59        60        57
        61        62        66        67        68        69        71        72
        74        75        77        78        61        66        61        63
        61        64        61        65        66        68        66        74
        68        71        68        70        71        73        71        77
        77        74        74        76        77        79        80        77
        81        82        86        87        88        89        91        92
        94        95        97        98        81        86        81        83
        81        84        81        85        86        88        86        94
        88        91        88        90        91        93        91        97
        97        94        94        96        97        99       100        97
       101       102       106       107       108       109       111       112
       114       115       117       118       101       106       101       103
       101       104       101       105       106       108       106       114
       108       111       108       110       111       113       111       117
       117       114       114       116       117       119       120       117
       121       122       126       127       128       129       131       132
       134       135       137       138       121       126       121       123
       121       124       121       125       126       128       126       134
       128       131       128       130       131       133       131       137
       137       134       134       136       137       139       140       137
       141       142       146       147       148       149       151       152
       154       155       157       158       141       146       141       143
       141       144       141       145       146       148       146       154
       148       151       148       150       151       153       151       157
       157       154       154       156       157       159       160       157
       161       162       166       167       168       169       171       172
       174       175       177       178       161       166       161       163
       161       164       161       165       166       168       166       174
       168       171       168       170       171       173       171       177
       177       174       174       176       177       179       180       177
       181       182       186       187       188       189       191       192
       194       195       197       198       181       186       181       183
       181       184       181       185       186       188       186       194
       188       191       188       190       191       193       191       197
       197       194       194       196       197       199       200       197
       201       202       206       207       208       209       211       212
       214       215       217       218       201       206       201       203
       201       204       201       205       206       208       206       214
       208       211       208       210       211       213       211       217
       217       214       214       216       217       219       220       217
       221       222       226       227       228       229       231       232
       234       235       237       238       221       226       221       223
       221       224       221       225       226       228       226       234
       228       231       228       230       231       233       231       237
       237       234       234       236       237       239       240       237
       241       242       246       247       248       249       251       252
       254       255       257       258       241       246       241       243
       241       244       241       245       246       248       246       254
       248       251       248       250       251       253       251       257
       257       254       254       256       257       259       260       257
       261       262       266       267       268       269       271       272
       274       275       277       278       261       266       261       263
       261       264       261       265       266       268       266       274
       268       271       268       270       271       273       271       277
       277       274       274       276       277       279       280       277
       281       282       286       287       288       289       291       292
       294       295       297       298       281       286       281       283
       281       284       281       285       286       288       286       294
       288       291       288       290       291       293       291       297
       297       294       294       296       297       299       300       297
       301       302       306       307       308       309       311       312
       314       315       317       318       301       306       301       303
       301       304       301       305       306       308       306       314
       308       311       308       310       311       313       311       317
       317       314       314       316       317       319       320       317
       321       322       326       327       328       329       331       332
       334       335       337       338       321       326       321       323
       321       324       321       325       326       328       326       334
       328       331       328       330       331       333       331       337
       337       334       334       336       337       339       340       337
       341       342       346       347       348       349       351       352
       354       355       357       358       341       346       341       343
       341       344       341       345       346       348       346       354
       348       351       348       350       351       353       351       357
       357       354       354       356       357       359       360       357
       361       362       366       367       368       369       371       372
       374       375       377       378       361       366       361       363
       361       364       361       365       366       368       366       374
       368       371       368       370       371       373       371       377
       377       374       374       376       377       379       380       377
       381       382       386       387       388       389       391       392
       394       395       397       398       381       386       381       383
       381       384       381       385       386       388       386       394
       388       391       388       390       391       393       391       397
       397       394       394       396       397       399       400       397
       401       402       406       407       408       409       411       412
       414       415       417       418       401       406       401       403
       401       404       401       405       406       408       406       414
       408       411       408       410       411       413       411       417
       417       414       414       416       417       419       420       417
       421       422       426       427       428       429       431       432
       434       435       437       438       421       426       421       423
       421       424       421       425       426       428       426       434
       428       431       428       430       431       433       431       437
       437       434       434       436       437       439       440       437
       441       442       446       447       448       449       451       452
       454       455       457       458       441       446       441       443
       441       444       441       445       446       448       446       454
       448       451       448       450       451       453       451       457
       457       454       454       456       457       459       460       457
       461       462       466       467       468       469       471       472
       474       475       477       478       461       466       461       463
       461       464       461       465       466       468       466       474
       468       471       468       470       471       473       471       477
       477       474       474       476       477       479       480       477
       481       482       486       487       488       489       491       492
       494       495       497       498       481       486       481       483
       481       484       481       485       486       488       486       494
       488       491       488       490       491       493       491       497
       497       494       494       496       497       499       500       497
       501       502       506       507       508       509       511       512
       514       515       517       518       501       506       501       503
       501       504       501       505       506       508       506       514
       508       511       508       510       511       513       511       517
       517       514       514       516       517       519       520       517
       521       522       526       527       528       529       531       532
       534       535       537       538       521       526       521       523
       521       524       521       525       526       528       526       534
       528       531       528       530       531       533       531       537
       537       534       534       536       537       539       540       537
       541       542       546       547       548       549       551       552
       554       555       557       558       541       546       541       543
       541       544       541       545       546       548       546       554
       548       551       548       550       551       553       551       557
       557       554       554       556       557       559       560       557
       561       562       566       567       568       569       571       572
       574       575       577       578       561       566       561       563
       561       564       561       565       566       568       566       574
       568       571       568       570       571       573       571       577
       577       574       574       576       577       579       580       577
       581       582       586       587       588       589       591       592
       594       595       597       598       581       586       581       583
       581       584       581       585       586       588       586       594
       588       591       588       590       591       593       591       597
       597       594       594       596       597       599       600       597
       601       602       606       607       608       609       611       612
       614       615       617       618       601       606       601       603
       601       604       601       605       606       608       606       614
       608       611       608       610       611       613       611       617
       617       614       614       616       617       619       620       617
       621       622       626       627       628       629       631       632
       634       635       637       638       621       626       621       623
       621       624       621       625       626       628       626       634
       628       631       628       630       631       633       631       637
       637       634       634       636       637       639       640       637
       641       642       646       647       648       649       651       652
       654       655       657       658       641       646       641       643
       641       644       641       645       646       648       646       654
       648       651       648       650       651       653       651       657
       657       654       654       656       657       659       660       657
       661       662       666       667       668       669       671       672
       674       675       677       678       661       666       661       663
       661       664       661       665       666       668       666       674
       668       671       668       670       671       673       671       677
       677       674       674       676       677       679       680       677
       681       682       686       687       688       689       691       692
       694       695       697       698       681       686       681       683
       681       684       681       685       686       688       686       694
       688       691       688       690       691       693       691       697
       697       694       694       696       697       699       700       697
       701       702       706       707       708       709       711       712
       714       715       717       718       701       706       701       703
       701       704       701       705       706       708       706       714
       708       711       708       710       711       713       711       717
       717       714       714       716       717       719       720       717
       721       722       726       727       728       729       731       732
       734       735       737       738       721       726       721       723
       721       724       721       725       726       728       726       734
       728       731       728       730       731       733       731       737
       737       734       734       736       737       739       740       737
       741       742       746       747       748       749       751       752
       754       755       757       758       741       746       741       743
       741       744       741       745       746       748       746       754
       748       751       748       750       751       753       751       757
       757       754       754       756       757       759       760       757
       761       762       766       767       768       769       771       772
       774       775       777       778       761       766       761       763
       761       764       761       765       766       768       766       774
       768       771       768       770       771       773       771       777
       777       774       774       776       777       779       780       777
       781       782       786       787       788       789       791       792
       794       795       797       798       781       786       781       783
       781       784       781       785       786       788       786       794
       788       791       788       790       791       793       791       797
       797       794       794       796       797       799       800       797
       801       802       806       807       808       809       811       812
       814       815       817       818       801       806       801       803
       801       804       801       805       806       808       806       814
       808       811       808       810       811       813       811       817
       817       814       814       816       817       819       820       817
       821       822       826       827       828       829       831       832
       834       835       837       838       821       826       821       823
       821       824       821       825       826       828       826       834
       828       831       828       830       831       833       831       837
       837       834       834       836       837       839       840       837
       841       842       846       847       848       849       851       852
       854       855       857       858       841       846       841       843
       841       844       841       845       846       848       846       854
       848       851       848       850       851       853       851       857
       857       854       854       856       857       859       860       857
       861       862       866       867       868       869       871       872
       874       875       877       878       861       866       861       863
       861       864       861       865       866       868       866       874
       868       871       868       870       871       873       871       877
       877       874       874       876       877       879       880       877
       881       882       886       887       888       889       891       892
       894       895       897       898       881       886       881       883
       881       884       881       885       886       888       886       894
       888       891       888       890       891       893       891       897
       897       894       894       896       897       899       900       897
       901       902       906       907       908       909       911       912
       914       915       917       918       901       906       901       903
       901       904       901       905       906       908       906       914
       908       911       908       910       911       913       911       917
       917       914       914       916       917       919       920       917
       921       922       926       927       928       929       931       932
       934       935       937       938       921       926       921       923
       921       924       921       925       926       928       926       934
       928       931       928       930       931       933       931       937
       937       934       934       936       937       939       940       937
       941       942       946       947       948       949       951       952
       954       955       957       958       941       946       941       943
       941       944       941       945       946       948       946       954
       948       951       948       950       951       953       951       957
       957       954       954       956       957       959       960       957
       961       962       966       967       968       969       971       972
       974       975       977       978       961       966       961       963
       961       964       961       965       966       968       966       974
       968       971       968       970       971       973       971       977
       977       974       974       976       977       979       980       977
       981       982       986       987       988       989       991       992
       994       995       997       998       981       986       981       983
       981       984       981       985       986       988       986       994
       988       991       988       990       991       993       991       997
       997       994       994       996       997       999      1000       997
      1001      1002      1006      1007      1008      1009      1011      1012
      1014      1015      1017      1018      1001      1006      1001      1003
      1001      1004      1001      1005      1006      1008      1006      1014
      1008      1011      1008      1010      1011      1013      1011      1017
      1017      1014      1014      1016      1017      1019      1020      1017
      1021      1022      1026      1027      1028      1029      1031      1032
      1034      1035      1037      1038      1021      1026      1021      1023
      1021      1024      1021      1025      1026      1028      1026      1034
      1028      1031      1028      1030      1031      1033      1031      1037
      1037      1034      1034      1036      1037      1039      1040      1037
      1041      1042      1046      1047      1048      1049      1051      1052
      1054      1055      1057      1058      1041      1046      1041      1043
      1041      1044      1041      1045      1046      1048      1046      1054
      1048      1051      1048      1050      1051      1053      1051      1057
      1057      1054      1054      1056      1057      1059      1060      1057
      1061      1062      1066      1067      1068      1069      1071      1072
      1074      1075      1077      1078      1061      1066      1061      1063
      1061      1064      1061      1065      1066      1068      1066      1074
      1068      1071      1068      1070      1071      1073      1071      1077
      1077      1074      1074      1076      1077      1079      1080      1077
      1081      1082      1086      1087      1088      1089      1091      1092
      1094      1095      1097      1098      1081      1086      1081      1083
      1081      1084      1081      1085      1086      1088      1086      1094
      1088      1091      1088      1090      1091      1093      1091      1097
      1097      1094      1094      1096      1097      1099      1100      1097
      1101      1102      1106      1107      1108      1109      1111      1112
      1114      1115      1117      1118      1101      1106      1101      1103
      1101      1104      1101      1105      1106      1108      1106      1114
      1108      1111      1108      1110      1111      1113      1111      1117
      1117      1114      1114      1116      1117      1119      1120      1117
      1121      1122      1126      1127      1128      1129      1131      1132
      1134      1135      1137      1138      1121      1126      1121      1123
      1121      1124      1121      1125      1126      1128      1126      1134
      1128      1131      1128      1130      1131      1133      1131      1137
      1137      1134      1134      1136      1137      1139      1140      1137
      1141      1142      1146      1147      1148      1149      1151      1152
      1154      1155      1157      1158      1141      1146      1141      1143
      1141      1144      1141      1145      1146      1148      1146      1154
      1148      1151      1148      1150      1151      1153      1151      1157
      1157      1154      1154      1156      1157      1159      1160      1157
      1161      1162      1166      1167      1168      1169      1171      1172
      1174      1175      1177      1178      1161      1166      1161      1163
      1161      1164      1161      1165      1166      1168      1166      1174
      1168      1171      1168      1170      1171      1173      1171      1177
      1177      1174      1174      1176      1177      1179      1180      1177
      1181      1182      1186      1187      1188      1189      1191      1192
      1194      1195      1197      1198      1181      1186      1181      1183
      1181      1184      1181      1185      1186      1188      1186      1194
      1188      1191      1188      1190      1191      1193      1191      1197
      1197      1194      1194      1196      1197      1199      1200      1197
      1201      1202      1206      1207      1208      1209      1211      1212
      1214      1215      1217      1218      1201      1206      1201      1203
      1201      1204      1201      1205      1206      1208      1206      1214
      1208      1211      1208      1210      1211      1213      1211      1217
      1217      1214      1214      1216      1217      1219      1220      1217
      1221      1222      1226      1227      1228      1229      1231      1232
      1234      1235      1237      1238      1221      1226      1221      1223
      1221      1224      1221      1225      1226      1228      1226      1234
      1228      1231      1228      1230      1231      1233      1231      1237
      1237      1234      1234      1236      1237      1239      1240      1237
      1241      1242      1246      1247      1248      1249      1251      1252
      1254      1255      1257      1258      1241      1246      1241      1243
      1241      1244      1241      1245      1246      1248      1246      1254
      1248      1251      1248      1250      1251      1253      1251      1257
      1257      1254      1254      1256      1257      1259      1260      1257
      1261      1262      1266      1267      1268      1269      1271      1272
      1274      1275      1277      1278      1261      1266      1261      1263
      1261      1264      1261      1265      1266      1268      1266      1274
      1268      1271      1268      1270      1271      1273      1271      1277
      1277      1274      1274      1276      1277      1279      1280      1277
      1281      1282      1286      1287      1288      1289      1291      1292
      1294      1295      1297      1298      1281      1286      1281      1283
      1281      1284      1281      1285      1286      1288      1286      1294
      1288      1291      1288      1290      1291      1293      1291      1297
      1297      1294      1294      1296      1297      1299      1300      1297
      1301      1302      1306      1307      1308      1309      1311      1312
      1314      1315      1317      1318      1301      1306      1301      1303
      1301      1304      1301      1305      1306      1308      1306      1314
      1308      1311      1308      1310      1311      1313      1311      1317
      1317      1314      1314      1316      1317      1319      1320      1317
      1321      1322      1326      1327      1328      1329      1331      1332
      1334      1335      1337      1338      1321      1326      1321      1323
      1321      1324      1321      1325      1326      1328      1326      1334
      1328      1331      1328      1330      1331      1333      1331      1337
      1337      1334      1334      1336      1337      1339      1340      1337
      1341      1342      1346      1347      1348      1349      1351      1352
      1354      1355      1357      1358      1341      1346      1341      1343
      1341      1344      1341      1345      1346      1348      1346      1354
      1348      1351      1348      1350      1351      1353      1351      1357
      1357      1354      1354      1356      1357      1359      1360      1357
      1361      1362      1366      1367      1368      1369      1371      1372
      1374      1375      1377      1378      1361      1366      1361      1363
      1361      1364      1361      1365      1366      1368      1366      1374
      1368      1371      1368      1370      1371      1373      1371      1377
      1377      1374      1374      1376      1377      1379      1380      1377
      1381      1382      1386      1387      1388      1389      1391      1392
      1394      1395      1397      1398      1381      1386      1381      1383
      1381      1384      1381      1385      1386      1388      1386      1394
      1388      1391      1388      1390      1391      1393      1391      1397
      1397      1394      1394      1396      1397      1399      1400      1397
      1401      1402      1406      1407      1408      1409      1411      1412
      1414      1415      1417      1418      1401      1406      1401      1403
      1401      1404      1401      1405      1406      1408      1406      1414
      1408      1411      1408      1410      1411      1413      1411      1417
      1417      1414      1414      1416      1417      1419      1420      1417
      1421      1422      1426      1427      1428      1429      1431      1432
      1434      1435      1437      1438      1421      1426      1421      1423
      1421      1424      1421      1425      1426      1428      1426      1434
      1428      1431      1428      1430      1431      1433      1431      1437
      1437      1434      1434      1436      1437      1439      1440      1437
      1441      1442      1446      1447      1448      1449      1451      1452
      1454      1455      1457      1458      1441      1446      1441      1443
      1441      1444      1441      1445      1446      1448      1446      1454
      1448      1451      1448      1450      1451      1453      1451      1457
      1457      1454      1454      1456      1457      1459      1460      1457
      1461      1462      1466      1467      1468      1469      1471      1472
      1474      1475      1477      1478      1461      1466      1461      1463
      1461      1464      1461      1465      1466      1468      1466      1474
      1468      1471      1468      1470      1471      1473      1471      1477
      1477      1474      1474      1476      1477      1479      1480      1477
      1481      1482      1486      1487      1488      1489      1491      1492
      1494      1495      1497      1498      1481      1486      1481      1483
      1481      1484      1481      1485      1486      1488      1486      1494
      1488      1491      1488      1490      1491      1493      1491      1497
      1497      1494      1494      1496      1497      1499      1500      1497
      1501      1502      1506      1507      1508      1509      1511      1512
      1514      1515      1517      1518      1501      1506      1501      1503
      1501      1504      1501      1505      1506      1508      1506      1514
      1508      1511      1508      1510      1511      1513      1511      1517
      1517      1514      1514      1516      1517      1519      1520      1517
      1521      1522      1526      1527      1528      1529      1531      1532
      1534      1535      1537      1538      1521      1526      1521      1523
      1521      1524      1521      1525      1526      1528      1526      1534
      1528      1531      1528      1530      1531      1533      1531      1537
      1537      1534      1534      1536      1537      1539      1540      1537
      1541      1542      1546      1547      1548      1549      1551      1552
      1554      1555      1557      1558      1541      1546      1541      1543
      1541      1544      1541      1545      1546      1548      1546      1554
      1548      1551      1548      1550      1551      1553      1551      1557
      1557      1554      1554      1556      1557      1559      1560      1557
      1561      1562      1566      1567      1568      1569      1571      1572
      1574      1575      1577      1578      1561      1566      1561      1563
      1561      1564      1561      1565      1566      1568      1566      1574
      1568      1571      1568      1570      1571      1573      1571      1577
      1577      1574      1574      1576      1577      1579      1580      1577
      1581      1582      1586      1587      1588      1589      1591      1592
      1594      1595      1597      1598      1581      1586      1581      1583
      1581      1584      1581      1585      1586      1588      1586      1594
      1588      1591      1588      1590      1591      1593      1591      1597
      1597      1594      1594      1596      1597      1599      1600      1597
      1601      1602      1606      1607      1608      1609      1611      1612
      1614      1615      1617      1618      1601      1606      1601      1603
      1601      1604      1601      1605      1606      1608      1606      1614
      1608      1611      1608      1610      1611      1613      1611      1617
      1617      1614      1614      1616      1617      1619      1620      1617
      1621      1622      1626      1627      1628      1629      1631      1632
      1634      1635      1637      1638      1621      1626      1621      1623
      1621      1624      1621      1625      1626      1628      1626      1634
      1628      1631      1628      1630      1631      1633      1631      1637
      1637      1634      1634      1636      1637      1639      1640      1637
      1641      1642      1646      1647      1648      1649      1651      1652
      1654      1655      1657      1658      1641      1646      1641      1643
      1641      1644      1641      1645      1646      1648      1646      1654
      1648      1651      1648      1650      1651      1653      1651      1657
      1657      1654      1654      1656      1657      1659      1660      1657
      1661      1662      1666      1667      1668      1669      1671      1672
      1674      1675      1677      1678      1661      1666      1661      1663
      1661      1664      1661      1665      1666      1668      1666      1674
      1668      1671      1668      1670      1671      1673      1671      1677
      1677      1674      1674      1676      1677      1679      1680      1677
      1681      1682      1686      1687      1688      1689      1691      1692
      1694      1695      1697      1698      1681      1686      1681      1683
      1681      1684      1681      1685      1686      1688      1686      1694
      1688      1691      1688      1690      1691      1693      1691      1697
      1697      1694      1694      1696      1697      1699      1700      1697
      1701      1702      1706      1707      1708      1709      1711      1712
      1714      1715      1717      1718      1701      1706      1701      1703
      1701      1704      1701      1705      1706      1708      1706      1714
      1708      1711      1708      1710      1711      1713      1711      1717
      1717      1714      1714      1716      1717      1719      1720      1717
      1721      1722      1726      1727      1728      1729      1731      1732
      1734      1735      1737      1738      1721      1726      1721      1723
      1721      1724      1721      1725      1726      1728      1726      1734
      1728      1731      1728      1730      1731      1733      1731      1737
      1737      1734      1734      1736      1737      1739      1740      1737
      1741      1742      1746      1747      1748      1749      1751      1752
      1754      1755      1757      1758      1741      1746      1741      1743
      1741      1744      1741      1745      1746      1748      1746      1754
      1748      1751      1748      1750      1751      1753      1751      1757
      1757      1754      1754      1756      1757      1759      1760      1757
      1761      1762      1766      1767      1768      1769      1771      1772
      1774      1775      1777      1778      1761      1766      1761      1763
      1761      1764      1761      1765      1766      1768      1766      1774
      1768      1771      1768      1770      1771      1773      1771      1777
      1777      1774      1774      1776      1777      1779      1780      1777
      1781      1782      1786      1787      1788      1789      1791      1792
      1794      1795      1797      1798      1781      1786      1781      1783
      1781      1784      1781      1785      1786      1788      1786      1794
      1788      1791      1788      1790      1791      1793      1791      1797
      1797      1794      1794      1796      1797      1799      1800      1797
      1801      1802      1806      1807      1808      1809      1811      1812
      1814      1815      1817      1818      1801      1806      1801      1803
      1801      1804      1801      1805      1806      1808      1806      1814
      1808      1811      1808      1810      1811      1813      1811      1817
      1817      1814      1814      1816      1817      1819      1820      1817
      1821      1822      1826      1827      1828      1829      1831      1832
      1834      1835      1837      1838      1821      1826      1821      1823
      1821      1824      1821      1825      1826      1828      1826      1834
      1828      1831      1828      1830      1831      1833      1831      1837
      1837      1834      1834      1836      1837      1839      1840      1837
      1841      1842      1846      1847      1848      1849      1851      1852
      1854      1855      1857      1858      1841      1846      1841      1843
      1841      1844      1841      1845      1846      1848      1846      1854
      1848      1851      1848      1850      1851      1853      1851      1857
      1857      1854      1854      1856      1857      1859      1860      1857
      1861      1862      1866      1867      1868      1869      1871      1872
      1874      1875      1877      1878      1861      1866      1861      1863
      1861      1864      1861      1865      1866      1868      1866      1874
      1868      1871      1868      1870      1871      1873      1871      1877
      1877      1874      1874      1876      1877      1879      1880      1877
      1881      1882      1886      1887      1888      1889      1891      1892
      1894      1895      1897      1898      1881      1886      1881      1883
      1881      1884      1881      1885      1886      1888      1886      1894
      1888      1891      1888      1890      1891      1893      1891      1897
      1897      1894      1894      1896      1897      1899      1900      1897
      1901      1902      1906      1907      1908      1909      1911      1912
      1914      1915      1917      1918      1901      1906      1901      1903
      1901      1904      1901      1905      1906      1908      1906      1914
      1908      1911      1908      1910      1911      1913      1911      1917
      1917      1914      1914      1916      1917      1919      1920      1917
      1921      1922      1926      1927      1928      1929      1931      1932
      1934      1935      1937      1938      1921      1926      1921      1923
      1921      1924      1921      1925      1926      1928      1926      1934
      1928      1931      1928      1930      1931      1933      1931      1937
      1937      1934      1934      1936      1937      1939      1940      1937
      1941      1942      1946      1947      1948      1949      1951      1952
      1954      1955      1957      1958      1941      1946      1941      1943
      1941      1944      1941      1945      1946      1948      1946      1954
      1948      1951      1948      1950      1951      1953      1951      1957
      1957      1954      1954      1956      1957      1959      1960      1957
      1961      1962      1966      1967      1968      1969      1971      1972
      1974      1975      1977      1978      1961      1966      1961      1963
      1961      1964      1961      1965      1966      1968      1966      1974
      1968      1971      1968      1970      1971      1973      1971      1977
      1977      1974      1974      1976      1977      1979      1980      1977
      1981      1982      1986      1987      1988      1989      1991      1992
      1994      1995      1997      1998      1981      1986      1981      1983
      1981      1984      1981      1985      1986      1988      1986      1994
      1988      1991      1988      1990      1991      1993      1991      1997
      1997      1994      1994      1996      1997      1999      2000      1997
      2001      2002      2006      2007      2008      2009      2011      2012
      2014      2015      2017      2018      2001      2006      2001      2003
      2001      2004      2001      2005      2006      2008      2006      2014
      2008      2011      2008      2010      2011      2013      2011      2017
      2017      2014      2014      2016      2017      2019      2020      2017
      2021      2022      2026      2027      2028      2029      2031      2032
      2034      2035      2037      2038      2021      2026      2021      2023
      2021      2024      2021      2025      2026      2028      2026      2034
      2028      2031      2028      2030      2031      2033      2031      2037
      2037      2034      2034      2036      2037      2039      2040      2037
      2041      2042      2046      2047      2048      2049      2051      2052
      2054      2055      2057      2058      2041      2046      2041      2043
      2041      2044      2041      2045      2046      2048      2046      2054
      2048      2051      2048      2050      2051      2053      2051      2057
      2057      2054      2054      2056      2057      2059      2060      2057
      2061      2062      2066      2067      2068      2069      2071      2072
      2074      2075      2077      2078      2061      2066      2061      2063
      2061      2064      2061      2065      2066      2068      2066      2074
      2068      2071      2068      2070      2071      2073      2071      2077
      2077      2074      2074      2076      2077      2079      2080      2077
      2081      2082      2086      2087      2088      2089      2091      2092
      2094      2095      2097      2098      2081      2086      2081      2083
      2081      2084      2081      2085      2086      2088      2086      2094
      2088      2091      2088      2090      2091      2093      2091      2097
      2097      2094      2094      2096      2097      2099      2100      2097
      2101      2102      2106      2107      2108      2109      2111      2112
      2114      2115      2117      2118      2101      2106      2101      2103
      2101      2104      2101      2105      2106      2108      2106      2114
      2108      2111      2108      2110      2111      2113      2111      2117
      2117      2114      2114      2116      2117      2119      2120      2117
      2121      2122      2126      2127      2128      2129      2131      2132
      2134      2135      2137      2138      2121      2126      2121      2123
      2121      2124      2121      2125      2126      2128      2126      2134
      2128      2131      2128      2130      2131      2133      2131      2137
      2137      2134      2134      2136      2137      2139      2140      2137
      2141      2142      2146      2147      2148      2149      2151      2152
      2154      2155      2157      2158      2141      2146      2141      2143
      2141      2144      2141      2145      2146      2148      2146      2154
      2148      2151      2148      2150      2151      2153      2151      2157
      2157      2154      2154      2156      2157      2159      2160      2157
      2161      2162      2166      2167      2168      2169      2171      2172
      2174      2175      2177      2178      2161      2166      2161      2163
      2161      2164      2161      2165      2166      2168      2166      2174
      2168      2171      2168      2170      2171      2173      2171      2177
      2177      2174      2174      2176      2177      2179      2180      2177
      2181      2182      2186      2187      2188      2189      2191      2192
      2194      2195      2197      2198      2181      2186      2181      2183
      2181      2184      2181      2185      2186      2188      2186      2194
      2188      2191      2188      2190      2191      2193      2191      2197
      2197      2194      2194      2196      2197      2199      2200      2197
      2201      2202      2206      2207      2208      2209      2211      2212
      2214      2215      2217      2218      2201      2206      2201      2203
      2201      2204      2201      2205      2206      2208      2206      2214
      2208      2211      2208      2210      2211      2213      2211      2217
      2217      2214      2214      2216      2217      2219      2220      2217
      2221      2222      2226      2227      2228      2229      2231      2232
      2234      2235      2237      2238      2221      2226      2221      2223
      2221      2224      2221      2225      2226      2228      2226      2234
      2228      2231      2228      2230      2231      2233      2231      2237
      2237      2234      2234      2236      2237      2239      2240      2237
      2241      2242      2246      2247      2248      2249      2251      2252
      2254      2255      2257      2258      2241      2246      2241      2243
      2241      2244      2241      2245      2246      2248      2246      2254
      2248      2251      2248      2250      2251      2253      2251      2257
      2257      2254      2254      2256      2257      2259      2260      2257
      2261      2262      2266      2267      2268      2269      2271      2272
      2274      2275      2277      2278      2261      2266      2261      2263
      2261      2264      2261      2265      2266      2268      2266      2274
      2268      2271      2268      2270      2271      2273      2271      2277
      2277      2274      2274      2276      2277      2279      2280      2277
      2281      2282      2286      2287      2288      2289      2291      2292
      2294      2295      2297      2298      2281      2286      2281      2283
      2281      2284      2281      2285      2286      2288      2286      2294
      2288      2291      2288      2290      2291      2293      2291      2297
      2297      2294      2294      2296      2297      2299      2300      2297
      2301      2302      2306      2307      2308      2309      2311      2312
      2314      2315      2317      2318      2301      2306      2301      2303
      2301      2304      2301      2305      2306      2308      2306      2314
      2308      2311      2308      2310      2311      2313      2311      2317
      2317      2314      2314      2316      2317      2319      2320      2317
      2321      2322      2326      2327      2328      2329      2331      2332
      2334      2335      2337      2338      2321      2326      2321      2323
      2321      2324      2321      2325      2326      2328      2326      2334
      2328      2331      2328      2330      2331      2333      2331      2337
      2337      2334      2334      2336      2337      2339      2340      2337
      2341      2342      2346      2347      2348      2349      2351      2352
      2354      2355      2357      2358      2341      2346      2341      2343
      2341      2344      2341      2345      2346      2348      2346      2354
      2348      2351      2348      2350      2351      2353      2351      2357
      2357      2354      2354      2356      2357      2359      2360      2357
      2361      2362      2366      2367      2368      2369      2371      2372
      2374      2375      2377      2378      2361      2366      2361      2363
      2361      2364      2361      2365      2366      2368      2366      2374
      2368      2371      2368      2370      2371      2373      2371      2377
      2377      2374      2374      2376      2377      2379      2380      2377
      2381      2382      2386      2387      2388      2389      2391      2392
      2394      2395      2397      2398      2381      2386      2381      2383
      2381      2384      2381      2385      2386      2388      2386      2394
      2388      2391      2388      2390      2391      2393      2391      2397
      2397      2394      2394      2396      2397      2399      2400      2397
      2401      2402      2406      2407      2408      2409      2411      2412
      2414      2415      2417      2418      2401      2406      2401      2403
      2401      2404      2401      2405      2406      2408      2406      2414
      2408      2411      2408      2410      2411      2413      2411      2417
      2417      2414      2414      2416      2417      2419      2420      2417
      2421      2422      2426      2427      2428      2429      2431      2432
      2434      2435      2437      2438      2421      2426      2421      2423
      2421      2424      2421      2425      2426      2428      2426      2434
      2428      2431      2428      2430      2431      2433      2431      2437
      2437      2434      2434      2436      2437      2439      2440      2437
      2441      2442      2446      2447      2448      2449      2451      2452
      2454      2455      2457      2458      2441      2446      2441      2443
      2441      2444      2441      2445      2446      2448      2446      2454
      2448      2451      2448      2450      2451      2453      2451      2457
      2457      2454      2454      2456      2457      2459      2460      2457
      2461      2462      2466      2467      2468      2469      2471      2472
      2474      2475      2477      2478      2461      2466      2461      2463
      2461      2464      2461      2465      2466      2468      2466      2474
      2468      2471      2468      2470      2471      2473      2471      2477
      2477      2474      2474      2476      2477      2479      2480      2477
      2481      2482      2486      2487      2488      2489      2491      2492
      2494      2495      2497      2498      2481      2486      2481      2483
      2481      2484      2481      2485      2486      2488      2486      2494
      2488      2491      2488      2490      2491      2493      2491      2497
      2497      2494      2494      2496      2497      2499      2500      2497
      2501      2502      2506      2507      2508      2509      2511      2512
      2514      2515      2517      2518      2501      2506      2501      2503
      2501      2504      2501      2505      2506      2508      2506      2514
      2508      2511      2508      2510      2511      2513      2511      2517
      2517      2514      2514      2516      2517      2519      2520      2517
      2521      2522      2526      2527      2528      2529      2531      2532
      2534      2535      2537      2538      2521      2526      2521      2523
      2521      2524      2521      2525      2526      2528      2526      2534
      2528      2531      2528      2530      2531      2533      2531      2537
      2537      2534      2534      2536      2537      2539      2540      2537
      2541      2542      2546      2547      2548      2549      2551      2552
      2554      2555      2557      2558      2541      2546      2541      2543
      2541      2544      2541      2545      2546      2548      2546      2554
      2548      2551      2548      2550      2551      2553      2551      2557
      2557      2554      2554      2556      2557      2559      2560      2557
      2561      2562      2566      2567      2568      2569      2571      2572
      2574      2575      2577      2578      2561      2566      2561      2563
      2561      2564      2561      2565      2566      2568      2566      2574
      2568      2571      2568      2570      2571      2573      2571      2577
      2577      2574      2574      2576      2577      2579      2580      2577
      2581      2582      2586      2587      2588      2589      2591      2592
      2594      2595      2597      2598      2581      2586      2581      2583
      2581      2584      2581      2585      2586      2588      2586      2594
      2588      2591      2588      2590      2591      2593      2591      2597
      2597      2594      2594      2596      2597      2599      2600      2597
      2601      2602      2606      2607      2608      2609      2611      2612
      2614      2615      2617      2618      2601      2606      2601      2603
      2601      2604      2601      2605      2606      2608      2606      2614
      2608      2611      2608      2610      2611      2613      2611      2617
      2617      2614      2614      2616      2617      2619      2620      2617
      2621      2622      2626      2627      2628      2629      2631      2632
      2634      2635      2637      2638      2621      2626      2621      2623
      2621      2624      2621      2625      2626      2628      2626      2634
      2628      2631      2628      2630      2631      2633      2631      2637
      2637      2634      2634      2636      2637      2639      2640      2637
      2641      2642      2646      2647      2648      2649      2651      2652
      2654      2655      2657      2658      2641      2646      2641      2643
      2641      2644      2641      2645      2646      2648      2646      2654
      2648      2651      2648      2650      2651      2653      2651      2657
      2657      2654      2654      2656      2657      2659      2660      2657
      2661      2662      2666      2667      2668      2669      2671      2672
      2674      2675      2677      2678      2661      2666      2661      2663
      2661      2664      2661      2665      2666      2668      2666      2674
      2668      2671      2668      2670      2671      2673      2671      2677
      2677      2674      2674      2676      2677      2679      2680      2677
      2681      2682      2686      2687      2688      2689      2691      2692
      2694      2695      2697      2698      2681      2686      2681      2683
      2681      2684      2681      2685      2686      2688      2686      2694
      2688      2691      2688      2690      2691      2693      2691      2697
      2697      2694      2694      2696      2697      2699      2700      2697
      2701      2702      2706      2707      2708      2709      2711      2712
      2714      2715      2717      2718      2701      2706      2701      2703
      2701      2704      2701      2705      2706      2708      2706      2714
      2708      2711      2708      2710      2711      2713      2711      2717
      2717      2714      2714      2716      2717      2719      2720      2717
      2721      2722      2726      2727      2728      2729      2731      2732
      2734      2735      2737      2738      2721      2726      2721      2723
      2721      2724      2721      2725      2726      2728      2726      2734
      2728      2731      2728      2730      2731      2733      2731      2737
      2737      2734      2734      2736      2737      2739      2740      2737
      2741      2742      2746      2747      2748      2749      2751      2752
      2754      2755      2757      2758      2741      2746      2741      2743
      2741      2744      2741      2745      2746      2748      2746      2754
      2748      2751      2748      2750      2751      2753      2751      2757
      2757      2754      2754      2756      2757      2759      2760      2757
      2761      2762      2766      2767      2768      2769      2771      2772
      2774      2775      2777      2778      2761      2766      2761      2763
      2761      2764      2761      2765      2766      2768      2766      2774
      2768      2771      2768      2770      2771      2773      2771      2777
      2777      2774      2774      2776      2777      2779      2780      2777
      2781      2782      2786      2787      2788      2789      2791      2792
      2794      2795      2797      2798      2781      2786      2781      2783
      2781      2784      2781      2785      2786      2788      2786      2794
      2788      2791      2788      2790      2791      2793      2791      2797
      2797      2794      2794      2796      2797      2799      2800      2797
      2801      2802      2806      2807      2808      2809      2811      2812
      2814      2815      2817      2818      2801      2806      2801      2803
      2801      2804      2801      2805      2806      2808      2806      2814
      2808      2811      2808      2810      2811      2813      2811      2817
      2817      2814      2814      2816      2817      2819      2820      2817
      2821      2822      2826      2827      2828      2829      2831      2832
      2834      2835      2837      2838      2821      2826      2821      2823
      2821      2824      2821      2825      2826      2828      2826      2834
      2828      2831      2828      2830      2831      2833      2831      2837
      2837      2834      2834      2836      2837      2839      2840      2837
      2841      2842      2846      2847      2848      2849      2851      2852
      2854      2855      2857      2858      2841      2846      2841      2843
      2841      2844      2841      2845      2846      2848      2846      2854
      2848      2851      2848      2850      2851      2853      2851      2857
      2857      2854      2854      2856      2857      2859      2860      2857
      2861      2862      2866      2867      2868      2869      2871      2872
      2874      2875      2877      2878      2861      2866      2861      2863
      2861      2864      2861      2865      2866      2868      2866      2874
      2868      2871      2868      2870      2871      2873      2871      2877
      2877      2874      2874      2876      2877      2879      2880      2877
      2881      2882      2886      2887      2888      2889      2891      2892
      2894      2895      2897      2898      2881      2886      2881      2883
      2881      2884      2881      2885      2886      2888      2886      2894
      2888      2891      2888      2890      2891      2893      2891      2897
      2897      2894      2894      2896      2897      2899      2900      2897
      2901      2902      2906      2907      2908      2909      2911      2912
      2914      2915      2917      2918      2901      2906      2901      2903
      2901      2904      2901      2905      2906      2908      2906      2914
      2908      2911      2908      2910      2911      2913      2911      2917
      2917      2914      2914      2916      2917      2919      2920      2917
      2921      2922      2926      2927      2928      2929      2931      2932
      2934      2935      2937      2938      2921      2926      2921      2923
      2921      2924      2921      2925      2926      2928      2926      2934
      2928      2931      2928      2930      2931      2933      2931      2937
      2937      2934      2934      2936      2937      2939      2940      2937
      2941      2942      2946      2947      2948      2949      2951      2952
      2954      2955      2957      2958      2941      2946      2941      2943
      2941      2944      2941      2945      2946      2948      2946      2954
      2948      2951      2948      2950      2951      2953      2951      2957
      2957      2954      2954      2956      2957      2959      2960      2957
      2961      2962      2966      2967      2968      2969      2971      2972
      2974      2975      2977      2978      2961      2966      2961      2963
      2961      2964      2961      2965      2966      2968      2966      2974
      2968      2971      2968      2970      2971      2973      2971      2977
      2977      2974      2974      2976      2977      2979      2980      2977
      2981      2982      2986      2987      2988      2989      2991      2992
      2994      2995      2997      2998      2981      2986      2981      2983
      2981      2984      2981      2985      2986      2988      2986      2994
      2988      2991      2988      2990      2991      2993      2991      2997
      2997      2994      2994      2996      2997      2999      3000      2997
      3001      3002      3006      3007      3008      3009      3011      3012
      3014      3015      3017      3018      3001      3006      3001      3003
      3001      3004      3001      3005      3006      3008      3006      3014
      3008      3011      3008      3010      3011      3013      3011      3017
      3017      3014      3014      3016      3017      3019      3020      3017
      3021      3022      3026      3027      3028      3029      3031      3032
      3034      3035      3037      3038      3021      3026      3021      3023
      3021      3024      3021      3025      3026      3028      3026      3034
      3028      3031      3028      3030      3031      3033      3031      3037
      3037      3034      3034      3036      3037      3039      3040      3037
      3041      3042      3046      3047      3048      3049      3051      3052
      3054      3055      3057      3058      3041      3046      3041      3043
      3041      3044      3041      3045      3046      3048      3046      3054
      3048      3051      3048      3050      3051      3053      3051      3057
      3057      3054      3054      3056      3057      3059      3060      3057
      3061      3062      3066      3067      3068      3069      3071      3072
      3074      3075      3077      3078      3061      3066      3061      3063
      3061      3064      3061      3065      3066      3068      3066      3074
      3068      3071      3068      3070      3071      3073      3071      3077
      3077      3074      3074      3076      3077      3079      3080      3077
      3081      3082      3086      3087      3088      3089      3091      3092
      3094      3095      3097      3098      3081      3086      3081      3083
      3081      3084      3081      3085      3086      3088      3086      3094
      3088      3091      3088      3090      3091      3093      3091      3097
      3097      3094      3094      3096      3097      3099      3100      3097
      3101      3102      3106      3107      3108      3109      3111      3112
      3114      3115      3117      3118      3101      3106      3101      3103
      3101      3104      3101      3105      3106      3108      3106      3114
      3108      3111      3108      3110      3111      3113      3111      3117
      3117      3114      3114      3116      3117      3119      3120      3117
      3121      3122      3126      3127      3128      3129      3131      3132
      3134      3135      3137      3138      3121      3126      3121      3123
      3121      3124      3121      3125      3126      3128      3126      3134
      3128      3131      3128      3130      3131      3133      3131      3137
      3137      3134      3134      3136      3137      3139      3140      3137
      3141      3142      3146      3147      3148      3149      3151      3152
      3154      3155      3157      3158      3141      3146      3141      3143
      3141      3144      3141      3145      3146      3148      3146      3154
      3148      3151      3148      3150      3151      3153      3151      3157
      3157      3154      3154      3156      3157      3159      3160      3157
      3161      3162      3166      3167      3168      3169      3171      3172
      3174      3175      3177      3178      3161      3166      3161      3163
      3161      3164      3161      3165      3166      3168      3166      3174
      3168      3171      3168      3170      3171      3173      3171      3177
      3177      3174      3174      3176      3177      3179      3180      3177
      3181      3182      3186      3187      3188      3189      3191      3192
      3194      3195      3197      3198      3181      3186      3181      3183
      3181      3184      3181      3185      3186      3188      3186      3194
      3188      3191      3188      3190      3191      3193      3191      3197
      3197      3194      3194      3196      3197      3199      3200      3197
      3201      3202      3206      3207      3208      3209      3211      3212
      3214      3215      3217      3218      3201      3206      3201      3203
      3201      3204      3201      3205      3206      3208      3206      3214
      3208      3211      3208      3210      3211      3213      3211      3217
      3217      3214      3214      3216      3217      3219      3220      3217
      3221      3222      3226      3227      3228      3229      3231      3232
      3234      3235      3237      3238      3221      3226      3221      3223
      3221      3224      3221      3225      3226      3228      3226      3234
      3228      3231      3228      3230      3231      3233      3231      3237
      3237      3234      3234      3236      3237      3239      3240      3237
      3241      3242      3246      3247      3248      3249      3251      3252
      3254      3255      3257      3258      3241      3246      3241      3243
      3241      3244      3241      3245      3246      3248      3246      3254
      3248      3251      3248      3250      3251      3253      3251      3257
      3257      3254      3254      3256      3257      3259      3260      3257
      3261      3262      3266      3267      3268      3269      3271      3272
      3274      3275      3277      3278      3261      3266      3261      3263
      3261      3264      3261      3265      3266      3268      3266      3274
      3268      3271      3268      3270      3271      3273      3271      3277
      3277      3274      3274      3276      3277      3279      3280      3277
      3281      3282      3286      3287      3288      3289      3291      3292
      3294      3295      3297      3298      3281      3286      3281      3283
      3281      3284      3281      3285      3286      3288      3286      3294
      3288      3291      3288      3290      3291      3293      3291      3297
      3297      3294      3294      3296      3297      3299      3300      3297
      3301      3302      3306      3307      3308      3309      3311      3312
      3314      3315      3317      3318      3301      3306      3301      3303
      3301      3304      3301      3305      3306      3308      3306      3314
      3308      3311      3308      3310      3311      3313      3311      3317
      3317      3314      3314      3316      3317      3319      3320      3317
      3321      3322      3326      3327      3328      3329      3331      3332
      3334      3335      3337      3338      3321      3326      3321      3323
      3321      3324      3321      3325      3326      3328      3326      3334
      3328      3331      3328      3330      3331      3333      3331      3337
      3337      3334      3334      3336      3337      3339      3340      3337
      3341      3342      3346      3347      3348      3349      3351      3352
      3354      3355      3357      3358      3341      3346      3341      3343
      3341      3344      3341      3345      3346      3348      3346      3354
      3348      3351      3348      3350      3351      3353      3351      3357
      3357      3354      3354      3356      3357      3359      3360      3357
      3361      3362      3366      3367      3368      3369      3371      3372
      3374      3375      3377      3378      3361      3366      3361      3363
      3361      3364      3361      3365      3366      3368      3366      3374
      3368      3371      3368      3370      3371      3373      3371      3377
      3377      3374      3374      3376      3377      3379      3380      3377
      3381      3382      3386      3387      3388      3389      3391      3392
      3394      3395      3397      3398      3381      3386      3381      3383
      3381      3384      3381      3385      3386      3388      3386      3394
      3388      3391      3388      3390      3391      3393      3391      3397
      3397      3394      3394      3396      3397      3399      3400      3397
      3401      3402      3406      3407      3408      3409      3411      3412
      3414      3415      3417      3418      3401      3406      3401      3403
      3401      3404      3401      3405      3406      3408      3406      3414
      3408      3411      3408      3410      3411      3413      3411      3417
      3417      3414      3414      3416      3417      3419      3420      3417
      3421      3422      3426      3427      3428      3429      3431      3432
      3434      3435      3437      3438      3421      3426      3421      3423
      3421      3424      3421      3425      3426      3428      3426      3434
      3428      3431      3428      3430      3431      3433      3431      3437
      3437      3434      3434      3436      3437      3439      3440      3437
      3441      3442      3446      3447      3448      3449      3451      3452
      3454      3455      3457      3458      3441      3446      3441      3443
      3441      3444      3441      3445      3446      3448      3446      3454
      3448      3451      3448      3450      3451      3453      3451      3457
      3457      3454      3454      3456      3457      3459      3460      3457
      3461      3462      3466      3467      3468      3469      3471      3472
      3474      3475      3477      3478      3461      3466      3461      3463
      3461      3464      3461      3465      3466      3468      3466      3474
      3468      3471      3468      3470      3471      3473      3471      3477
      3477      3474      3474      3476      3477      3479      3480      3477
      3481      3482      3486      3487      3488      3489      3491      3492
      3494      3495      3497      3498      3481      3486      3481      3483
      3481      3484      3481      3485      3486      3488      3486      3494
      3488      3491      3488      3490      3491      3493      3491      3497
      3497      3494      3494      3496      3497      3499      3500      3497
      3501      3502      3506      3507      3508      3509      3511      3512
      3514      3515      3517      3518      3501      3506      3501      3503
      3501      3504      3501      3505      3506      3508      3506      3514
      3508      3511      3508      3510      3511      3513      3511      3517
      3517      3514      3514      3516      3517      3519      3520      3517
      3521      3522      3526      3527      3528      3529      3531      3532
      3534      3535      3537      3538      3521      3526      3521      3523
      3521      3524      3521      3525      3526      3528      3526      3534
      3528      3531      3528      3530      3531      3533      3531      3537
      3537      3534      3534      3536      3537      3539      3540      3537
      3541      3542      3546      3547      3548      3549      3551      3552
      3554      3555      3557      3558      3541      3546      3541      3543
      3541      3544      3541      3545      3546      3548      3546      3554
      3548      3551      3548      3550      3551      3553      3551      3557
      3557      3554      3554      3556      3557      3559      3560      3557
      3561      3562      3566      3567      3568      3569      3571      3572
      3574      3575      3577      3578      3561      3566      3561      3563
      3561      3564      3561      3565      3566      3568      3566      3574
      3568      3571      3568      3570      3571      3573      3571      3577
      3577      3574      3574      3576      3577      3579      3580      3577
      3581      3582      3586      3587      3588      3589      3591      3592
      3594      3595      3597      3598      3581      3586      3581      3583
      3581      3584      3581      3585      3586      3588      3586      3594
      3588      3591      3588      3590      3591      3593      3591      3597
      3597      3594      3594      3596      3597      3599      3600      3597
      3601      3602      3606      3607      3608      3609      3611      3612
      3614      3615      3617      3618      3601      3606      3601      3603
      3601      3604      3601      3605      3606      3608      3606      3614
      3608      3611      3608      3610      3611      3613      3611      3617
      3617      3614      3614      3616      3617      3619      3620      3617
      3621      3622      3626      3627      3628      3629      3631      3632
      3634      3635      3637      3638      3621      3626      3621      3623
      3621      3624      3621      3625      3626      3628      3626      3634
      3628      3631      3628      3630      3631      3633      3631      3637
      3637      3634      3634      3636      3637      3639      3640      3637
      3641      3642      3646      3647      3648      3649      3651      3652
      3654      3655      3657      3658      3641      3646      3641      3643
      3641      3644      3641      3645      3646      3648      3646      3654
      3648      3651      3648      3650      3651      3653      3651      3657
      3657      3654      3654      3656      3657      3659      3660      3657
      3661      3662      3666      3667      3668      3669      3671      3672
      3674      3675      3677      3678      3661      3666      3661      3663
      3661      3664      3661      3665      3666      3668      3666      3674
      3668      3671      3668      3670      3671      3673      3671      3677
      3677      3674      3674      3676      3677      3679      3680      3677
      3681      3682      3686      3687      3688      3689      3691      3692
      3694      3695      3697      3698      3681      3686      3681      3683
      3681      3684      3681      3685      3686      3688      3686      3694
      3688      3691      3688      3690      3691      3693      3691      3697
      3697      3694      3694      3696      3697      3699      3700      3697
      3701      3702      3706      3707      3708      3709      3711      3712
      3714      3715      3717      3718      3701      3706      3701      3703
      3701      3704      3701      3705      3706      3708      3706      3714
      3708      3711      3708      3710      3711      3713      3711      3717
      3717      3714      3714      3716      3717      3719      3720      3717
      3721      3722      3726      3727      3728      3729      3731      3732
      3734      3735      3737      3738      3721      3726      3721      3723
      3721      3724      3721      3725      3726      3728      3726      3734
      3728      3731      3728      3730      3731      3733      3731      3737
      3737      3734      3734      3736      3737      3739      3740      3737
      3741      3742      3746      3747      3748      3749      3751      3752
      3754      3755      3757      3758      3741      3746      3741      3743
      3741      3744      3741      3745      3746      3748      3746      3754
      3748      3751      3748      3750      3751      3753      3751      3757
      3757      3754      3754      3756      3757      3759      3760      3757
      3761      3762      3766      3767      3768      3769      3771      3772
      3774      3775      3777      3778      3761      3766      3761      3763
      3761      3764      3761      3765      3766      3768      3766      3774
      3768      3771      3768      3770      3771      3773      3771      3777
      3777      3774      3774      3776      3777      3779      3780      3777
      3781      3782      3786      3787      3788      3789      3791      3792
      3794      3795      3797      3798      3781      3786      3781      3783
      3781      3784      3781      3785      3786      3788      3786      3794
      3788      3791      3788      3790      3791      3793      3791      3797
      3797      3794      3794      3796      3797      3799      3800      3797
      3801      3802      3806      3807      3808      3809      3811      3812
      3814      3815      3817      3818      3801      3806      3801      3803
      3801      3804      3801      3805      3806      3808      3806      3814
      3808      3811      3808      3810      3811      3813      3811      3817
      3817      3814      3814      3816      3817      3819      3820      3817
      3821      3822      3826      3827      3828      3829      3831      3832
      3834      3835      3837      3838      3821      3826      3821      3823
      3821      3824      3821      3825      3826      3828      3826      3834
      3828      3831      3828      3830      3831      3833      3831      3837
      3837      3834      3834      3836      3837      3839      3840      3837
      3841      3842      3846      3847      3848      3849      3851      3852
      3854      3855      3857      3858      3841      3846      3841      3843
      3841      3844      3841      3845      3846      3848      3846      3854
      3848      3851      3848      3850      3851      3853      3851      3857
      3857      3854      3854      3856      3857      3859      3860      3857
      3861      3862      3866      3867      3868      3869      3871      3872
      3874      3875      3877      3878      3861      3866      3861      3863
      3861      3864      3861      3865      3866      3868      3866      3874
      3868      3871      3868      3870      3871      3873      3871      3877
      3877      3874      3874      3876      3877      3879      3880      3877
      3881      3882      3886      3887      3888      3889      3891      3892
      3894      3895      3897      3898      3881      3886      3881      3883
      3881      3884      3881      3885      3886      3888      3886      3894
      3888      3891      3888      3890      3891      3893      3891      3897
      3897      3894      3894      3896      3897      3899      3900      3897
      3901      3902      3906      3907      3908      3909      3911      3912
      3914      3915      3917      3918      3901      3906      3901      3903
      3901      3904      3901      3905      3906      3908      3906      3914
      3908      3911      3908      3910      3911      3913      3911      3917
      3917      3914      3914      3916      3917      3919      3920      3917
      3921      3922      3926      3927      3928      3929      3931      3932
      3934      3935      3937      3938      3921      3926      3921      3923
      3921      3924      3921      3925      3926      3928      3926      3934
      3928      3931      3928      3930      3931      3933      3931      3937
      3937      3934      3934      3936      3937      3939      3940      3937
      3941      3942      3946      3947      3948      3949      3951      3952
      3954      3955      3957      3958      3941      3946      3941      3943
      3941      3944      3941      3945      3946      3948      3946      3954
      3948      3951      3948      3950      3951      3953      3951      3957
      3957      3954      3954      3956      3957      3959      3960      3957
      3961      3962      3966      3967      3968      3969      3971      3972
      3974      3975      3977      3978      3961      3966      3961      3963
      3961      3964      3961      3965      3966      3968      3966      3974
      3968      3971      3968      3970      3971      3973      3971      3977
      3977      3974      3974      3976      3977      3979      3980      3977
      3981      3982      3986      3987      3988      3989      3991      3992
      3994      3995      3997      3998      3981      3986      3981      3983
      3981      3984      3981      3985      3986      3988      3986      3994
      3988      3991      3988      3990      3991      3993      3991      3997
      3997      3994      3994      3996      3997      3999      4000      3997
      4001      4002      4006      4007      4008      4009      4011      4012
      4014      4015      4017      4018      4001      4006      4001      4003
      4001      4004      4001      4005      4006      4008      4006      4014
      4008      4011      4008      4010      4011      4013      4011      4017
      4017      4014      4014      4016      4017      4019      4020      4017
      4021      4022      4026      4027      4028      4029      4031      4032
      4034      4035      4037      4038      4021      4026      4021      4023
      4021      4024      4021      4025      4026      4028      4026      4034
      4028      4031      4028      4030      4031      4033      4031      4037
      4037      4034      4034      4036      4037      4039      4040      4037
      4041      4042      4046      4047      4048      4049      4051      4052
      4054      4055      4057      4058      4041      4046      4041      4043
      4041      4044      4041      4045      4046      4048      4046      4054
      4048      4051      4048      4050      4051      4053      4051      4057
      4057      4054      4054      4056      4057      4059      4060      4057
      4061      4062      4066      4067      4068      4069      4071      4072
      4074      4075      4077      4078      4061      4066      4061      4063
      4061      4064      4061      4065      4066      4068      4066      4074
      4068      4071      4068      4070      4071      4073      4071      4077
      4077      4074      4074      4076      4077      4079      4080      4077
      4081      4082      4086      4087      4088      4089      4091      4092
      4094      4095      4097      4098      4081      4086      4081      4083
      4081      4084      4081      4085      4086      4088      4086      4094
      4088      4091      4088      4090      4091      4093      4091      4097
      4097      4094      4094      4096      4097      4099      4100      4097
      4101      4102      4106      4107      4108      4109      4111      4112
      4114      4115      4117      4118      4101      4106      4101      4103
      4101      4104      4101      4105      4106      4108      4106      4114
      4108      4111      4108      4110      4111      4113      4111      4117
      4117      4114      4114      4116      4117      4119      4120      4117
      4121      4122      4126      4127      4128      4129      4131      4132
      4134      4135      4137      4138      4121      4126      4121      4123
      4121      4124      4121      4125      4126      4128      4126      4134
      4128      4131      4128      4130      4131      4133      4131      4137
      4137      4134      4134      4136      4137      4139      4140      4137
      4141      4142      4146      4147      4148      4149      4151      4152
      4154      4155      4157      4158      4141      4146      4141      4143
      4141      4144      4141      4145      4146      4148      4146      4154
      4148      4151      4148      4150      4151      4153      4151      4157
      4157      4154      4154      4156      4157      4159      4160      4157
      4161      4162      4166      4167      4168      4169      4171      4172
      4174      4175      4177      4178      4161      4166      4161      4163
      4161      4164      4161      4165      4166      4168      4166      4174
      4168      4171      4168      4170      4171      4173      4171      4177
      4177      4174      4174      4176      4177      4179      4180      4177
      4181      4182      4186      4187      4188      4189      4191      4192
      4194      4195      4197      4198      4181      4186      4181      4183
      4181      4184      4181      4185      4186      4188      4186      4194
      4188      4191      4188      4190      4191      4193      4191      4197
      4197      4194      4194      4196      4197      4199      4200      4197
      4201      4202      4206      4207      4208      4209      4211      4212
      4214      4215      4217      4218      4201      4206      4201      4203
      4201      4204      4201      4205      4206      4208      4206      4214
      4208      4211      4208      4210      4211      4213      4211      4217
      4217      4214      4214      4216      4217      4219      4220      4217
      4221      4222      4226      4227      4228      4229      4231      4232
      4234      4235      4237      4238      4221      4226      4221      4223
      4221      4224      4221      4225      4226      4228      4226      4234
      4228      4231      4228      4230      4231      4233      4231      4237
      4237      4234      4234      4236      4237      4239      4240      4237
      4241      4242      4246      4247      4248      4249      4251      4252
      4254      4255      4257      4258      4241      4246      4241      4243
      4241      4244      4241      4245      4246      4248      4246      4254
      4248      4251      4248      4250      4251      4253      4251      4257
      4257      4254      4254      4256      4257      4259      4260      4257
      4261      4262      4266      4267      4268      4269      4271      4272
      4274      4275      4277      4278      4261      4266      4261      4263
      4261      4264      4261      4265      4266      4268      4266      4274
      4268      4271      4268      4270      4271      4273      4271      4277
      4277      4274      4274      4276      4277      4279      4280      4277
      4281      4282      4286      4287      4288      4289      4291      4292
      4294      4295      4297      4298      4281      4286      4281      4283
      4281      4284      4281      4285      4286      4288      4286      4294
      4288      4291      4288      4290      4291      4293      4291      4297
      4297      4294      4294      4296      4297      4299      4300      4297
      4301      4302      4306      4307      4308      4309      4311      4312
      4314      4315      4317      4318      4301      4306      4301      4303
      4301      4304      4301      4305      4306      4308      4306      4314
      4308      4311      4308      4310      4311      4313      4311      4317
      4317      4314      4314      4316      4317      4319      4320      4317
      4321      4322      4326      4327      4328      4329      4331      4332
      4334      4335      4337      4338      4321      4326      4321      4323
      4321      4324      4321      4325      4326      4328      4326      4334
      4328      4331      4328      4330      4331      4333      4331      4337
      4337      4334      4334      4336      4337      4339      4340      4337
      4341      4342      4346      4347      4348      4349      4351      4352
      4354      4355      4357      4358      4341      4346      4341      4343
      4341      4344      4341      4345      4346      4348      4346      4354
      4348      4351      4348      4350      4351      4353      4351      4357
      4357      4354      4354      4356      4357      4359      4360      4357
      4361      4362      4366      4367      4368      4369      4371      4372
      4374      4375      4377      4378      4361      4366      4361      4363
      4361      4364      4361      4365      4366      4368      4366      4374
      4368      4371      4368      4370      4371      4373      4371      4377
      4377      4374      4374      4376      4377      4379      4380      4377
      4381      4382      4386      4387      4388      4389      4391      4392
      4394      4395      4397      4398      4381      4386      4381      4383
      4381      4384      4381      4385      4386      4388      4386      4394
      4388      4391      4388      4390      4391      4393      4391      4397
      4397      4394      4394      4396      4397      4399      4400      4397
      4401      4402      4406      4407      4408      4409      4411      4412
      4414      4415      4417      4418      4401      4406      4401      4403
      4401      4404      4401      4405      4406      4408      4406      4414
      4408      4411      4408      4410      4411      4413      4411      4417
      4417      4414      4414      4416      4417      4419      4420      4417
      4421      4422      4426      4427      4428      4429      4431      4432
      4434      4435      4437      4438      4421      4426      4421      4423
      4421      4424      4421      4425      4426      4428      4426      4434
      4428      4431      4428      4430      4431      4433      4431      4437
      4437      4434      4434      4436      4437      4439      4440      4437
      4441      4442      4446      4447      4448      4449      4451      4452
      4454      4455      4457      4458      4441      4446      4441      4443
      4441      4444      4441      4445      4446      4448      4446      4454
      4448      4451      4448      4450      4451      4453      4451      4457
      4457      4454      4454      4456      4457      4459      4460      4457
      4461      4462      4466      4467      4468      4469      4471      4472
      4474      4475      4477      4478      4461      4466      4461      4463
      4461      4464      4461      4465      4466      4468      4466      4474
      4468      4471      4468      4470      4471      4473      4471      4477
      4477      4474      4474      4476      4477      4479      4480      4477
      4481      4482      4486      4487      4488      4489      4491      4492
      4494      4495      4497      4498      4481      4486      4481      4483
      4481      4484      4481      4485      4486      4488      4486      4494
      4488      4491      4488      4490      4491      4493      4491      4497
      4497      4494      4494      4496      4497      4499      4500      4497
      4501      4502      4506      4507      4508      4509      4511      4512
      4514      4515      4517      4518      4501      4506      4501      4503
      4501      4504      4501      4505      4506      4508      4506      4514
      4508      4511      4508      4510      4511      4513      4511      4517
      4517      4514      4514      4516      4517      4519      4520      4517
      4521      4522      4526      4527      4528      4529      4531      4532
      4534      4535      4537      4538      4521      4526      4521      4523
      4521      4524      4521      4525      4526      4528      4526      4534
      4528      4531      4528      4530      4531      4533      4531      4537
      4537      4534      4534      4536      4537      4539      4540      4537
      4541      4542      4546      4547      4548      4549      4551      4552
      4554      4555      4557      4558      4541      4546      4541      4543
      4541      4544      4541      4545      4546      4548      4546      4554
      4548      4551      4548      4550      4551      4553      4551      4557
      4557      4554      4554      4556      4557      4559      4560      4557
      4561      4562      4566      4567      4568      4569      4571      4572
      4574      4575      4577      4578      4561      4566      4561      4563
      4561      4564      4561      4565      4566      4568      4566      4574
      4568      4571      4568      4570      4571      4573      4571      4577
      4577      4574      4574      4576      4577      4579      4580      4577
      4581      4582      4586      4587      4588      4589      4591      4592
      4594      4595      4597      4598      4581      4586      4581      4583
      4581      4584      4581      4585      4586      4588      4586      4594
      4588      4591      4588      4590      4591      4593      4591      4597
      4597      4594      4594      4596      4597      4599      4600      4597
      4601      4602      4606      4607      4608      4609      4611      4612
      4614      4615      4617      4618      4601      4606      4601      4603
      4601      4604      4601      4605      4606      4608      4606      4614
      4608      4611      4608      4610      4611      4613      4611      4617
      4617      4614      4614      4616      4617      4619      4620      4617
      4621      4622      4626      4627      4628      4629      4631      4632
      4634      4635      4637      4638      4621      4626      4621      4623
      4621      4624      4621      4625      4626      4628      4626      4634
      4628      4631      4628      4630      4631      4633      4631      4637
      4637      4634      4634      4636      4637      4639      4640      4637
      4641      4642      4646      4647      4648      4649      4651      4652
      4654      4655      4657      4658      4641      4646      4641      4643
      4641      4644      4641      4645      4646      4648      4646      4654
      4648      4651      4648      4650      4651      4653      4651      4657
      4657      4654      4654      4656      4657      4659      4660      4657
      4661      4662      4666      4667      4668      4669      4671      4672
      4674      4675      4677      4678      4661      4666      4661      4663
      4661      4664      4661      4665      4666      4668      4666      4674
      4668      4671      4668      4670      4671      4673      4671      4677
      4677      4674      4674      4676      4677      4679      4680      4677
      4681      4682      4686      4687      4688      4689      4691      4692
      4694      4695      4697      4698      4681      4686      4681      4683
      4681      4684      4681      4685      4686      4688      4686      4694
      4688      4691      4688      4690      4691      4693      4691      4697
      4697      4694      4694      4696      4697      4699      4700      4697
      4701      4702      4706      4707      4708      4709      4711      4712
      4714      4715      4717      4718      4701      4706      4701      4703
      4701      4704      4701      4705      4706      4708      4706      4714
      4708      4711      4708      4710      4711      4713      4711      4717
      4717      4714      4714      4716      4717      4719      4720      4717
      4721      4722      4726      4727      4728      4729      4731      4732
      4734      4735      4737      4738      4721      4726      4721      4723
      4721      4724      4721      4725      4726      4728      4726      4734
      4728      4731      4728      4730      4731      4733      4731      4737
      4737      4734      4734      4736      4737      4739      4740      4737
      4741      4742      4746      4747      4748      4749      4751      4752
      4754      4755      4757      4758      4741      4746      4741      4743
      4741      4744      4741      4745      4746      4748      4746      4754
      4748      4751      4748      4750      4751      4753      4751      4757
      4757      4754      4754      4756      4757      4759      4760      4757
      4761      4762      4766      4767      4768      4769      4771      4772
      4774      4775      4777      4778      4761      4766      4761      4763
      4761      4764      4761      4765      4766      4768      4766      4774
      4768      4771      4768      4770      4771      4773      4771      4777
      4777      4774      4774      4776      4777      4779      4780      4777
      4781      4782      4786      4787      4788      4789      4791      4792
      4794      4795      4797      4798      4781      4786      4781      4783
      4781      4784      4781      4785      4786      4788      4786      4794
      4788      4791      4788      4790      4791      4793      4791      4797
      4797      4794      4794      4796      4797      4799      4800      4797
      4801      4802      4806      4807      4808      4809      4811      4812
      4814      4815      4817      4818      4801      4806      4801      4803
      4801      4804      4801      4805      4806      4808      4806      4814
      4808      4811      4808      4810      4811      4813      4811      4817
      4817      4814      4814      4816      4817      4819      4820      4817
      4821      4822      4826      4827      4828      4829      4831      4832
      4834      4835      4837      4838      4821      4826      4821      4823
      4821      4824      4821      4825      4826      4828      4826      4834
      4828      4831      4828      4830      4831      4833      4831      4837
      4837      4834      4834      4836      4837      4839      4840      4837
      4841      4842      4846      4847      4848      4849      4851      4852
      4854      4855      4857      4858      4841      4846      4841      4843
      4841      4844      4841      4845      4846      4848      4846      4854
      4848      4851      4848      4850      4851      4853      4851      4857
      4857      4854      4854      4856      4857      4859      4860      4857
      4861      4862      4866      4867      4868      4869      4871      4872
      4874      4875      4877      4878      4861      4866      4861      4863
      4861      4864      4861      4865      4866      4868      4866      4874
      4868      4871      4868      4870      4871      4873      4871      4877
      4877      4874      4874      4876      4877      4879      4880      4877
      4881      4882      4886      4887      4888      4889      4891      4892
      4894      4895      4897      4898      4881      4886      4881      4883
      4881      4884      4881      4885      4886      4888      4886      4894
      4888      4891      4888      4890      4891      4893      4891      4897
      4897      4894      4894      4896      4897      4899      4900      4897
      4901      4902      4906      4907      4908      4909      4911      4912
      4914      4915      4917      4918      4901      4906      4901      4903
      4901      4904      4901      4905      4906      4908      4906      4914
      4908      4911      4908      4910      4911      4913      4911      4917
      4917      4914      4914      4916      4917      4919      4920      4917
      4921      4922      4926      4927      4928      4929      4931      4932
      4934      4935      4937      4938      4921      4926      4921      4923
      4921      4924      4921      4925      4926      4928      4926      4934
      4928      4931      4928      4930      4931      4933      4931      4937
      4937      4934      4934      4936      4937      4939      4940      4937
      4941      4942      4946      4947      4948      4949      4951      4952
      4954      4955      4957      4958      4941      4946      4941      4943
      4941      4944      4941      4945      4946      4948      4946      4954
      4948      4951      4948      4950      4951      4953      4951      4957
      4957      4954      4954      4956      4957      4959      4960      4957
      4961      4962      4966      4967      4968      4969      4971      4972
      4974      4975      4977      4978      4961      4966      4961      4963
      4961      4964      4961      4965      4966      4968      4966      4974
      4968      4971      4968      4970      4971      4973      4971      4977
      4977      4974      4974      4976      4977      4979      4980      4977
      4981      4982      4986      4987      4988      4989      4991      4992
      4994      4995      4997      4998      4981      4986      4981      4983
      4981      4984      4981      4985      4986      4988      4986      4994
      4988      4991      4988      4990      4991      4993      4991      4997
      4997      4994      4994      4996      4997      4999      5000      4997
      5001      5002      5006      5007      5008      5009      5011      5012
      5014      5015      5017      5018      5001      5006      5001      5003
      5001      5004      5001      5005      5006      5008      5006      5014
      5008      5011      5008      5010      5011      5013      5011      5017
      5017      5014      5014      5016      5017      5019      5020      5017
      5021      5022      5026      5027      5028      5029      5031      5032
      5034      5035      5037      5038      5021      5026      5021      5023
      5021      5024      5021      5025      5026      5028      5026      5034
      5028      5031      5028      5030      5031      5033      5031      5037
      5037      5034      5034      5036      5037      5039      5040      5037
      5041      5042      5046      5047      5048      5049      5051      5052
      5054      5055      5057      5058      5041      5046      5041      5043
      5041      5044      5041      5045      5046      5048      5046      5054
      5048      5051      5048      5050      5051      5053      5051      5057
      5057      5054      5054      5056      5057      5059      5060      5057
      5061      5062      5066      5067      5068      5069      5071      5072
      5074      5075      5077      5078      5061      5066      5061      5063
      5061      5064      5061      5065      5066      5068      5066      5074
      5068      5071      5068      5070      5071      5073      5071      5077
      5077      5074      5074      5076      5077      5079      5080      5077
      5081      5082      5086      5087      5088      5089      5091      5092
      5094      5095      5097      5098      5081      5086      5081      5083
      5081      5084      5081      5085      5086      5088      5086      5094
      5088      5091      5088      5090      5091      5093      5091      5097
      5097      5094      5094      5096      5097      5099      5100      5097
      5101      5102      5106      5107      5108      5109      5111      5112
      5114      5115      5117      5118      5101      5106      5101      5103
      5101      5104      5101      5105      5106      5108      5106      5114
      5108      5111      5108      5110      5111      5113      5111      5117
      5117      5114      5114      5116      5117      5119      5120      5117
      5121      5122      5126      5127      5128      5129      5131      5132
      5134      5135      5137      5138      5121      5126      5121      5123
      5121      5124      5121      5125      5126      5128      5126      5134
      5128      5131      5128      5130      5131      5133      5131      5137
      5137      5134      5134      5136      5137      5139      5140      5137
      5141      5142      5146      5147      5148      5149      5151      5152
      5154      5155      5157      5158      5141      5146      5141      5143
      5141      5144      5141      5145      5146      5148      5146      5154
      5148      5151      5148      5150      5151      5153      5151      5157
      5157      5154      5154      5156      5157      5159      5160      5157
      5161      5162      5166      5167      5168      5169      5171      5172
      5174      5175      5177      5178      5161      5166      5161      5163
      5161      5164      5161      5165      5166      5168      5166      5174
      5168      5171      5168      5170      5171      5173      5171      5177
      5177      5174      5174      5176      5177      5179      5180      5177
      5181      5182      5186      5187      5188      5189      5191      5192
      5194      5195      5197      5198      5181      5186      5181      5183
      5181      5184      5181      5185      5186      5188      5186      5194
      5188      5191      5188      5190      5191      5193      5191      5197
      5197      5194      5194      5196      5197      5199      5200      5197
      5201      5202      5206      5207      5208      5209      5211      5212
      5214      5215      5217      5218      5201      5206      5201      5203
      5201      5204      5201      5205      5206      5208      5206      5214
      5208      5211      5208      5210      5211      5213      5211      5217
      5217      5214      5214      5216      5217      5219      5220      5217
      5221      5222      5226      5227      5228      5229      5231      5232
      5234      5235      5237      5238      5221      5226      5221      5223
      5221      5224      5221      5225      5226      5228      5226      5234
      5228      5231      5228      5230      5231      5233      5231      5237
      5237      5234      5234      5236      5237      5239      5240      5237
      5241      5242      5246      5247      5248      5249      5251      5252
      5254      5255      5257      5258      5241      5246      5241      5243
      5241      5244      5241      5245      5246      5248      5246      5254
      5248      5251      5248      5250      5251      5253      5251      5257
      5257      5254      5254      5256      5257      5259      5260      5257
      5261      5262      5266      5267      5268      5269      5271      5272
      5274      5275      5277      5278      5261      5266      5261      5263
      5261      5264      5261      5265      5266      5268      5266      5274
      5268      5271      5268      5270      5271      5273      5271      5277
      5277      5274      5274      5276      5277      5279      5280      5277
      5281      5282      5286      5287      5288      5289      5291      5292
      5294      5295      5297      5298      5281      5286      5281      5283
      5281      5284      5281      5285      5286      5288      5286      5294
      5288      5291      5288      5290      5291      5293      5291      5297
      5297      5294      5294      5296      5297      5299      5300      5297
      5301      5302      5306      5307      5308      5309      5311      5312
      5314      5315      5317      5318      5301      5306      5301      5303
      5301      5304      5301      5305      5306      5308      5306      5314
      5308      5311      5308      5310      5311      5313      5311      5317
      5317      5314      5314      5316      5317      5319      5320      5317
      5321      5322      5326      5327      5328      5329      5331      5332
      5334      5335      5337      5338      5321      5326      5321      5323
      5321      5324      5321      5325      5326      5328      5326      5334
      5328      5331      5328      5330      5331      5333      5331      5337
      5337      5334      5334      5336      5337      5339      5340      5337
      5341      5342      5346      5347      5348      5349      5351      5352
      5354      5355      5357      5358      5341      5346      5341      5343
      5341      5344      5341      5345      5346      5348      5346      5354
      5348      5351      5348      5350      5351      5353      5351      5357
      5357      5354      5354      5356      5357      5359      5360      5357
      5361      5362      5366      5367      5368      5369      5371      5372
      5374      5375      5377      5378      5361      5366      5361      5363
      5361      5364      5361      5365      5366      5368      5366      5374
      5368      5371      5368      5370      5371      5373      5371      5377
      5377      5374      5374      5376      5377      5379      5380      5377
      5381      5382      5386      5387      5388      5389      5391      5392
      5394      5395      5397      5398      5381      5386      5381      5383
      5381      5384      5381      5385      5386      5388      5386      5394
      5388      5391      5388      5390      5391      5393      5391      5397
      5397      5394      5394      5396      5397      5399      5400      5397
      5401      5402      5406      5407      5408      5409      5411      5412
      5414      5415      5417      5418      5401      5406      5401      5403
      5401      5404      5401      5405      5406      5408      5406      5414
      5408      5411      5408      5410      5411      5413      5411      5417
      5417      5414      5414      5416      5417      5419      5420      5417
      5421      5422      5426      5427      5428      5429      5431      5432
      5434      5435      5437      5438      5421      5426      5421      5423
      5421      5424      5421      5425      5426      5428      5426      5434
      5428      5431      5428      5430      5431      5433      5431      5437
      5437      5434      5434      5436      5437      5439      5440      5437
      5441      5442      5446      5447      5448      5449      5451      5452
      5454      5455      5457      5458      5441      5446      5441      5443
      5441      5444      5441      5445      5446      5448      5446      5454
      5448      5451      5448      5450      5451      5453      5451      5457
      5457      5454      5454      5456      5457      5459      5460      5457
      5461      5462      5466      5467      5468      5469      5471      5472
      5474      5475      5477      5478      5461      5466      5461      5463
      5461      5464      5461      5465      5466      5468      5466      5474
      5468      5471      5468      5470      5471      5473      5471      5477
      5477      5474      5474      5476      5477      5479      5480      5477
      5481      5482      5486      5487      5488      5489      5491      5492
      5494      5495      5497      5498      5481      5486      5481      5483
      5481      5484      5481      5485      5486      5488      5486      5494
      5488      5491      5488      5490      5491      5493      5491      5497
      5497      5494      5494      5496      5497      5499      5500      5497
      5501      5502      5506      5507      5508      5509      5511      5512
      5514      5515      5517      5518      5501      5506      5501      5503
      5501      5504      5501      5505      5506      5508      5506      5514
      5508      5511      5508      5510      5511      5513      5511      5517
      5517      5514      5514      5516      5517      5519      5520      5517
      5521      5522      5526      5527      5528      5529      5531      5532
      5534      5535      5537      5538      5521      5526      5521      5523
      5521      5524      5521      5525      5526      5528      5526      5534
      5528      5531      5528      5530      5531      5533      5531      5537
      5537      5534      5534      5536      5537      5539      5540      5537
      5541      5542      5546      5547      5548      5549      5551      5552
      5554      5555      5557      5558      5541      5546      5541      5543
      5541      5544      5541      5545      5546      5548      5546      5554
      5548      5551      5548      5550      5551      5553      5551      5557
      5557      5554      5554      5556      5557      5559      5560      5557
      5561      5562      5566      5567      5568      5569      5571      5572
      5574      5575      5577      5578      5561      5566      5561      5563
      5561      5564      5561      5565      5566      5568      5566      5574
      5568      5571      5568      5570      5571      5573      5571      5577
      5577      5574      5574      5576      5577      5579      5580      5577
      5581      5582      5586      5587      5588      5589      5591      5592
      5594      5595      5597      5598      5581      5586      5581      5583
      5581      5584      5581      5585      5586      5588      5586      5594
      5588      5591      5588      5590      5591      5593      5591      5597
      5597      5594      5594      5596      5597      5599      5600      5597
      5601      5602      5606      5607      5608      5609      5611      5612
      5614      5615      5617      5618      5601      5606      5601      5603
      5601      5604      5601      5605      5606      5608      5606      5614
      5608      5611      5608      5610      5611      5613      5611      5617
      5617      5614      5614      5616      5617      5619      5620      5617
      5621      5622      5626      5627      5628      5629      5631      5632
      5634      5635      5637      5638      5621      5626      5621      5623
      5621      5624      5621      5625      5626      5628      5626      5634
      5628      5631      5628      5630      5631      5633      5631      5637
      5637      5634      5634      5636      5637      5639      5640      5637
      5641      5642      5646      5647      5648      5649      5651      5652
      5654      5655      5657      5658      5641      5646      5641      5643
      5641      5644      5641      5645      5646      5648      5646      5654
      5648      5651      5648      5650      5651      5653      5651      5657
      5657      5654      5654      5656      5657      5659      5660      5657
      5661      5662      5666      5667      5668      5669      5671      5672
      5674      5675      5677      5678      5661      5666      5661      5663
      5661      5664      5661      5665      5666      5668      5666      5674
      5668      5671      5668      5670      5671      5673      5671      5677
      5677      5674      5674      5676      5677      5679      5680      5677
      5681      5682      5686      5687      5688      5689      5691      5692
      5694      5695      5697      5698      5681      5686      5681      5683
      5681      5684      5681      5685      5686      5688      5686      5694
      5688      5691      5688      5690      5691      5693      5691      5697
      5697      5694      5694      5696      5697      5699      5700      5697
      5701      5702      5706      5707      5708      5709      5711      5712
      5714      5715      5717      5718      5701      5706      5701      5703
      5701      5704      5701      5705      5706      5708      5706      5714
      5708      5711      5708      5710      5711      5713      5711      5717
      5717      5714      5714      5716      5717      5719      5720      5717
      5721      5722      5726      5727      5728      5729      5731      5732
      5734      5735      5737      5738      5721      5726      5721      5723
      5721      5724      5721      5725      5726      5728      5726      5734
      5728      5731      5728      5730      5731      5733      5731      5737
      5737      5734      5734      5736      5737      5739      5740      5737
      5741      5742      5746      5747      5748      5749      5751      5752
      5754      5755      5757      5758      5741      5746      5741      5743
      5741      5744      5741      5745      5746      5748      5746      5754
      5748      5751      5748      5750      5751      5753      5751      5757
      5757      5754      5754      5756      5757      5759      5760      5757
      5761      5762      5766      5767      5768      5769      5771      5772
      5774      5775      5777      5778      5761      5766      5761      5763
      5761      5764      5761      5765      5766      5768      5766      5774
      5768      5771      5768      5770      5771      5773      5771      5777
      5777      5774      5774      5776      5777      5779      5780      5777
      5781      5782      5786      5787      5788      5789      5791      5792
      5794      5795      5797      5798      5781      5786      5781      5783
      5781      5784      5781      5785      5786      5788      5786      5794
      5788      5791      5788      5790      5791      5793      5791      5797
      5797      5794      5794      5796      5797      5799      5800      5797
      5801      5802      5806      5807      5808      5809      5811      5812
      5814      5815      5817      5818      5801      5806      5801      5803
      5801      5804      5801      5805      5806      5808      5806      5814
      5808      5811      5808      5810      5811      5813      5811      5817
      5817      5814      5814      5816      5817      5819      5820      5817
      5821      5822      5826      5827      5828      5829      5831      5832
      5834      5835      5837      5838      5821      5826      5821      5823
      5821      5824      5821      5825      5826      5828      5826      5834
      5828      5831      5828      5830      5831      5833      5831      5837
      5837      5834      5834      5836      5837      5839      5840      5837
      5841      5842      5846      5847      5848      5849      5851      5852
      5854      5855      5857      5858      5841      5846      5841      5843
      5841      5844      5841      5845      5846      5848      5846      5854
      5848      5851      5848      5850      5851      5853      5851      5857
      5857      5854      5854      5856      5857      5859      5860      5857
      5861      5862      5866      5867      5868      5869      5871      5872
      5874      5875      5877      5878      5861      5866      5861      5863
      5861      5864      5861      5865      5866      5868      5866      5874
      5868      5871      5868      5870      5871      5873      5871      5877
      5877      5874      5874      5876      5877      5879      5880      5877
      5881      5882      5886      5887      5888      5889      5891      5892
      5894      5895      5897      5898      5881      5886      5881      5883
      5881      5884      5881      5885      5886      5888      5886      5894
      5888      5891      5888      5890      5891      5893      5891      5897
      5897      5894      5894      5896      5897      5899      5900      5897
      5901      5902      5906      5907      5908      5909      5911      5912
      5914      5915      5917      5918      5901      5906      5901      5903
      5901      5904      5901      5905      5906      5908      5906      5914
      5908      5911      5908      5910      5911      5913      5911      5917
      5917      5914      5914      5916      5917      5919      5920      5917
      5921      5922      5926      5927      5928      5929      5931      5932
      5934      5935      5937      5938      5921      5926      5921      5923
      5921      5924      5921      5925      5926      5928      5926      5934
      5928      5931      5928      5930      5931      5933      5931      5937
      5937      5934      5934      5936      5937      5939      5940      5937
      5941      5942      5946      5947      5948      5949      5951      5952
      5954      5955      5957      5958      5941      5946      5941      5943
      5941      5944      5941      5945      5946      5948      5946      5954
      5948      5951      5948      5950      5951      5953      5951      5957
      5957      5954      5954      5956      5957      5959      5960      5957
      5961      5962      5966      5967      5968      5969      5971      5972
      5974      5975      5977      5978      5961      5966      5961      5963
      5961      5964      5961      5965      5966      5968      5966      5974
      5968      5971      5968      5970      5971      5973      5971      5977
      5977      5974      5974      5976      5977      5979      5980      5977
      5981      5982      5986      5987      5988      5989      5991      5992
      5994      5995      5997      5998      5981      5986      5981      5983
      5981      5984      5981      5985      5986      5988      5986      5994
      5988      5991      5988      5990      5991      5993      5991      5997
      5997      5994      5994      5996      5997      5999      6000      5997
      6001      6002      6006      6007      6008      6009      6011      6012
      6014      6015      6017      6018      6001      6006      6001      6003
      6001      6004      6001      6005      6006      6008      6006      6014
      6008      6011      6008      6010      6011      6013      6011      6017
      6017      6014      6014      6016      6017      6019      6020      6017
      6021      6022      6026      6027      6028      6029      6031      6032
      6034      6035      6037      6038      6021      6026      6021      6023
      6021      6024      6021      6025      6026      6028      6026      6034
      6028      6031      6028      6030      6031      6033      6031      6037
      6037      6034      6034      6036      6037      6039      6040      6037
      6041      6042      6046      6047      6048      6049      6051      6052
      6054      6055      6057      6058      6041      6046      6041      6043
      6041      6044      6041      6045      6046      6048      6046      6054
      6048      6051      6048      6050      6051      6053      6051      6057
      6057      6054      6054      6056      6057      6059      6060      6057
      6061      6062      6066      6067      6068      6069      6071      6072
      6074      6075      6077      6078      6061      6066      6061      6063
      6061      6064      6061      6065      6066      6068      6066      6074
      6068      6071      6068      6070      6071      6073      6071      6077
      6077      6074      6074      6076      6077      6079      6080      6077
      6081      6082      6086      6087      6088      6089      6091      6092
      6094      6095      6097      6098      6081      6086      6081      6083
      6081      6084      6081      6085      6086      6088      6086      6094
      6088      6091      6088      6090      6091      6093      6091      6097
      6097      6094      6094      6096      6097      6099      6100      6097
      6101      6102      6106      6107      6108      6109      6111      6112
      6114      6115      6117      6118      6101      6106      6101      6103
      6101      6104      6101      6105      6106      6108      6106      6114
      6108      6111      6108      6110      6111      6113      6111      6117
      6117      6114      6114      6116      6117      6119      6120      6117
      6121      6122      6126      6127      6128      6129      6131      6132
      6134      6135      6137      6138      6121      6126      6121      6123
      6121      6124      6121      6125      6126      6128      6126      6134
      6128      6131      6128      6130      6131      6133      6131      6137
      6137      6134      6134      6136      6137      6139      6140      6137
      6141      6142      6146      6147      6148      6149      6151      6152
      6154      6155      6157      6158      6141      6146      6141      6143
      6141      6144      6141      6145      6146      6148      6146      6154
      6148      6151      6148      6150      6151      6153      6151      6157
      6157      6154      6154      6156      6157      6159      6160      6157
      6161      6162      6166      6167      6168      6169      6171      6172
      6174      6175      6177      6178      6161      6166      6161      6163
      6161      6164      6161      6165      6166      6168      6166      6174
      6168      6171      6168      6170      6171      6173      6171      6177
      6177      6174      6174      6176      6177      6179      6180      6177
      6181      6182      6186      6187      6188      6189      6191      6192
      6194      6195      6197      6198      6181      6186      6181      6183
      6181      6184      6181      6185      6186      6188      6186      6194
      6188      6191      6188      6190      6191      6193      6191      6197
      6197      6194      6194      6196      6197      6199      6200      6197
      6201      6202      6206      6207      6208      6209      6211      6212
      6214      6215      6217      6218      6201      6206      6201      6203
      6201      6204      6201      6205      6206      6208      6206      6214
      6208      6211      6208      6210      6211      6213      6211      6217
      6217      6214      6214      6216      6217      6219      6220      6217
      6221      6222      6226      6227      6228      6229      6231      6232
      6234      6235      6237      6238      6221      6226      6221      6223
      6221      6224      6221      6225      6226      6228      6226      6234
      6228      6231      6228      6230      6231      6233      6231      6237
      6237      6234      6234      6236      6237      6239      6240      6237
      6241      6242      6246      6247      6248      6249      6251      6252
      6254      6255      6257      6258      6241      6246      6241      6243
      6241      6244      6241      6245      6246      6248      6246      6254
      6248      6251      6248      6250      6251      6253      6251      6257
      6257      6254      6254      6256      6257      6259      6260      6257
      6261      6262      6266      6267      6268      6269      6271      6272
      6274      6275      6277      6278      6261      6266      6261      6263
      6261      6264      6261      6265      6266      6268      6266      6274
      6268      6271      6268      6270      6271      6273      6271      6277
      6277      6274      6274      6276      6277      6279      6280      6277
      6281      6282      6286      6287      6288      6289      6291      6292
      6294      6295      6297      6298      6281      6286      6281      6283
      6281      6284      6281      6285      6286      6288      6286      6294
      6288      6291      6288      6290      6291      6293      6291      6297
      6297      6294      6294      6296      6297      6299      6300      6297
      6301      6302      6306      6307      6308      6309      6311      6312
      6314      6315      6317      6318      6301      6306      6301      6303
      6301      6304      6301      6305      6306      6308      6306      6314
      6308      6311      6308      6310      6311      6313      6311      6317
      6317      6314      6314      6316      6317      6319      6320      6317
      6321      6322      6326      6327      6328      6329      6331      6332
      6334      6335      6337      6338      6321      6326      6321      6323
      6321      6324      6321      6325      6326      6328      6326      6334
      6328      6331      6328      6330      6331      6333      6331      6337
      6337      6334      6334      6336      6337      6339      6340      6337
      6341      6342      6346      6347      6348      6349      6351      6352
      6354      6355      6357      6358      6341      6346      6341      6343
      6341      6344      6341      6345      6346      6348      6346      6354
      6348      6351      6348      6350      6351      6353      6351      6357
      6357      6354      6354      6356      6357      6359      6360      6357
      6361      6362      6366      6367      6368      6369      6371      6372
      6374      6375      6377      6378      6361      6366      6361      6363
      6361      6364      6361      6365      6366      6368      6366      6374
      6368      6371      6368      6370      6371      6373      6371      6377
      6377      6374      6374      6376      6377      6379      6380      6377
      6381      6382      6386      6387      6388      6389      6391      6392
      6394      6395      6397      6398      6381      6386      6381      6383
      6381      6384      6381      6385      6386      6388      6386      6394
      6388      6391      6388      6390      6391      6393      6391      6397
      6397      6394      6394      6396      6397      6399      6400      6397
      6401      6402      6406      6407      6408      6409      6411      6412
      6414      6415      6417      6418      6401      6406      6401      6403
      6401      6404      6401      6405      6406      6408      6406      6414
      6408      6411      6408      6410      6411      6413      6411      6417
      6417      6414      6414      6416      6417      6419      6420      6417
      6421      6422      6426      6427      6428      6429      6431      6432
      6434      6435      6437      6438      6421      6426      6421      6423
      6421      6424      6421      6425      6426      6428      6426      6434
      6428      6431      6428      6430      6431      6433      6431      6437
      6437      6434      6434      6436      6437      6439      6440      6437
      6441      6442      6446      6447      6448      6449      6451      6452
      6454      6455      6457      6458      6441      6446      6441      6443
      6441      6444      6441      6445      6446      6448      6446      6454
      6448      6451      6448      6450      6451      6453      6451      6457
      6457      6454      6454      6456      6457      6459      6460      6457
      6461      6462      6466      6467      6468      6469      6471      6472
      6474      6475      6477      6478      6461      6466      6461      6463
      6461      6464      6461      6465      6466      6468      6466      6474
      6468      6471      6468      6470      6471      6473      6471      6477
      6477      6474      6474      6476      6477      6479      6480      6477
      6481      6482      6486      6487      6488      6489      6491      6492
      6494      6495      6497      6498      6481      6486      6481      6483
      6481      6484      6481      6485      6486      6488      6486      6494
      6488      6491      6488      6490      6491      6493      6491      6497
      6497      6494      6494      6496      6497      6499      6500      6497
      6501      6502      6506      6507      6508      6509      6511      6512
      6514      6515      6517      6518      6501      6506      6501      6503
      6501      6504      6501      6505      6506      6508      6506      6514
      6508      6511      6508      6510      6511      6513      6511      6517
      6517      6514      6514      6516      6517      6519      6520      6517
      6521      6522      6526      6527      6528      6529      6531      6532
      6534      6535      6537      6538      6521      6526      6521      6523
      6521      6524      6521      6525      6526      6528      6526      6534
      6528      6531      6528      6530      6531      6533      6531      6537
      6537      6534      6534      6536      6537      6539      6540      6537
      6541      6542      6546      6547      6548      6549      6551      6552
      6554      6555      6557      6558      6541      6546      6541      6543
      6541      6544      6541      6545      6546      6548      6546      6554
      6548      6551      6548      6550      6551      6553      6551      6557
      6557      6554      6554      6556      6557      6559      6560      6557
      6561      6562      6566      6567      6568      6569      6571      6572
      6574      6575      6577      6578      6561      6566      6561      6563
      6561      6564      6561      6565      6566      6568      6566      6574
      6568      6571      6568      6570      6571      6573      6571      6577
      6577      6574      6574      6576      6577      6579      6580      6577
      6581      6582      6586      6587      6588      6589      6591      6592
      6594      6595      6597      6598      6581      6586      6581      6583
      6581      6584      6581      6585      6586      6588      6586      6594
      6588      6591      6588      6590      6591      6593      6591      6597
      6597      6594      6594      6596      6597      6599      6600      6597
      6601      6602      6606      6607      6608      6609      6611      6612
      6614      6615      6617      6618      6601      6606      6601      6603
      6601      6604      6601      6605      6606      6608      6606      6614
      6608      6611      6608      6610      6611      6613      6611      6617
      6617      6614      6614      6616      6617      6619      6620      6617
      6621      6622      6626      6627      6628      6629      6631      6632
      6634      6635      6637      6638      6621      6626      6621      6623
      6621      6624      6621      6625      6626      6628      6626      6634
      6628      6631      6628      6630      6631      6633      6631      6637
      6637      6634      6634      6636      6637      6639      6640      6637
      6641      6642      6646      6647      6648      6649      6651      6652
      6654      6655      6657      6658      6641      6646      6641      6643
      6641      6644      6641      6645      6646      6648      6646      6654
      6648      6651      6648      6650      6651      6653      6651      6657
      6657      6654      6654      6656      6657      6659      6660      6657
      6661      6662      6666      6667      6668      6669      6671      6672
      6674      6675      6677      6678      6661      6666      6661      6663
      6661      6664      6661      6665      6666      6668      6666      6674
      6668      6671      6668      6670      6671      6673      6671      6677
      6677      6674      6674      6676      6677      6679      6680      6677
      6681      6682      6686      6687      6688      6689      6691      6692
      6694      6695      6697      6698      6681      6686      6681      6683
      6681      6684      6681      6685      6686      6688      6686      6694
      6688      6691      6688      6690      6691      6693      6691      6697
      6697      6694      6694      6696      6697      6699      6700      6697
      6701      6702      6706      6707      6708      6709      6711      6712
      6714      6715      6717      6718      6701      6706      6701      6703
      6701      6704      6701      6705      6706      6708      6706      6714
      6708      6711      6708      6710      6711      6713      6711      6717
      6717      6714      6714      6716      6717      6719      6720      6717
      6721      6722      6726      6727      6728      6729      6731      6732
      6734      6735      6737      6738      6721      6726      6721      6723
      6721      6724      6721      6725      6726      6728      6726      6734
      6728      6731      6728      6730      6731      6733      6731      6737
      6737      6734      6734      6736      6737      6739      6740      6737
      6741      6742      6746      6747      6748      6749      6751      6752
      6754      6755      6757      6758      6741      6746      6741      6743
      6741      6744      6741      6745      6746      6748      6746      6754
      6748      6751      6748      6750      6751      6753      6751      6757
      6757      6754      6754      6756      6757      6759      6760      6757
      6761      6762      6766      6767      6768      6769      6771      6772
      6774      6775      6777      6778      6761      6766      6761      6763
      6761      6764      6761      6765      6766      6768      6766      6774
      6768      6771      6768      6770      6771      6773      6771      6777
      6777      6774      6774      6776      6777      6779      6780      6777
      6781      6782      6786      6787      6788      6789      6791      6792
      6794      6795      6797      6798      6781      6786      6781      6783
      6781      6784      6781      6785      6786      6788      6786      6794
      6788      6791      6788      6790      6791      6793      6791      6797
      6797      6794      6794      6796      6797      6799      6800      6797
      6801      6802      6806      6807      6808      6809      6811      6812
      6814      6815      6817      6818      6801      6806      6801      6803
      6801      6804      6801      6805      6806      6808      6806      6814
      6808      6811      6808      6810      6811      6813      6811      6817
      6817      6814      6814      6816      6817      6819      6820      6817
      6821      6822      6826      6827      6828      6829      6831      6832
      6834      6835      6837      6838      6821      6826      6821      6823
      6821      6824      6821      6825      6826      6828      6826      6834
      6828      6831      6828      6830      6831      6833      6831      6837
      6837      6834      6834      6836      6837      6839      6840      6837
      6841      6842      6846      6847      6848      6849      6851      6852
      6854      6855      6857      6858      6841      6846      6841      6843
      6841      6844      6841      6845      6846      6848      6846      6854
      6848      6851      6848      6850      6851      6853      6851      6857
      6857      6854      6854      6856      6857      6859      6860      6857
      6861      6862      6866      6867      6868      6869      6871      6872
      6874      6875      6877      6878      6861      6866      6861      6863
      6861      6864      6861      6865      6866      6868      6866      6874
      6868      6871      6868      6870      6871      6873      6871      6877
      6877      6874      6874      6876      6877      6879      6880      6877
      6881      6882      6886      6887      6888      6889      6891      6892
      6894      6895      6897      6898      6881      6886      6881      6883
      6881      6884      6881      6885      6886      6888      6886      6894
      6888      6891      6888      6890      6891      6893      6891      6897
      6897      6894      6894      6896      6897      6899      6900      6897
      6901      6902      6906      6907      6908      6909      6911      6912
      6914      6915      6917      6918      6901      6906      6901      6903
      6901      6904      6901      6905      6906      6908      6906      6914
      6908      6911      6908      6910      6911      6913      6911      6917
      6917      6914      6914      6916      6917      6919      6920      6917
      6921      6922      6926      6927      6928      6929      6931      6932
      6934      6935      6937      6938      6921      6926      6921      6923
      6921      6924      6921      6925      6926      6928      6926      6934
      6928      6931      6928      6930      6931      6933      6931      6937
      6937      6934      6934      6936      6937      6939      6940      6937
      6941      6942      6946      6947      6948      6949      6951      6952
      6954      6955      6957      6958      6941      6946      6941      6943
      6941      6944      6941      6945      6946      6948      6946      6954
      6948      6951      6948      6950      6951      6953      6951      6957
      6957      6954      6954      6956      6957      6959      6960      6957
      6961      6962      6966      6967      6968      6969      6971      6972
      6974      6975      6977      6978      6961      6966      6961      6963
      6961      6964      6961      6965      6966      6968      6966      6974
      6968      6971      6968      6970      6971      6973      6971      6977
      6977      6974      6974      6976      6977      6979      6980      6977
      6981      6982      6986      6987      6988      6989      6991      6992
      6994      6995      6997      6998      6981      6986      6981      6983
      6981      6984      6981      6985      6986      6988      6986      6994
      6988      6991      6988      6990      6991      6993      6991      6997
      6997      6994      6994      6996      6997      6999      7000      6997
      7001      7002      7006      7007      7008      7009      7011      7012
      7014      7015      7017      7018      7001      7006      7001      7003
      7001      7004      7001      7005      7006      7008      7006      7014
      7008      7011      7008      7010      7011      7013      7011      7017
      7017      7014      7014      7016      7017      7019      7020      7017
      7021      7022      7026      7027      7028      7029      7031      7032
      7034      7035      7037      7038      7021      7026      7021      7023
      7021      7024      7021      7025      7026      7028      7026      7034
      7028      7031      7028      7030      7031      7033      7031      7037
      7037      7034      7034      7036      7037      7039      7040      7037
      7041      7042      7046      7047      7048      7049      7051      7052
      7054      7055      7057      7058      7041      7046      7041      7043
      7041      7044      7041      7045      7046      7048      7046      7054
      7048      7051      7048      7050      7051      7053      7051      7057
      7057      7054      7054      7056      7057      7059      7060      7057
      7061      7062      7066      7067      7068      7069      7071      7072
      7074      7075      7077      7078      7061      7066      7061      7063
      7061      7064      7061      7065      7066      7068      7066      7074
      7068      7071      7068      7070      7071      7073      7071      7077
      7077      7074      7074      7076      7077      7079      7080      7077
      7081      7082      7086      7087      7088      7089      7091      7092
      7094      7095      7097      7098      7081      7086      7081      7083
      7081      7084      7081      7085      7086      7088      7086      7094
      7088      7091      7088      7090      7091      7093      7091      7097
      7097      7094      7094      7096      7097      7099      7100      7097
      7101      7102      7106      7107      7108      7109      7111      7112
      7114      7115      7117      7118      7101      7106      7101      7103
      7101      7104      7101      7105      7106      7108      7106      7114
      7108      7111      7108      7110      7111      7113      7111      7117
      7117      7114      7114      7116      7117      7119      7120      7117
      7121      7122      7126      7127      7128      7129      7131      7132
      7134      7135      7137      7138      7121      7126      7121      7123
      7121      7124      7121      7125      7126      7128      7126      7134
      7128      7131      7128      7130      7131      7133      7131      7137
      7137      7134      7134      7136      7137      7139      7140      7137
      7141      7142      7146      7147      7148      7149      7151      7152
      7154      7155      7157      7158      7141      7146      7141      7143
      7141      7144      7141      7145      7146      7148      7146      7154
      7148      7151      7148      7150      7151      7153      7151      7157
      7157      7154      7154      7156      7157      7159      7160      7157
      7161      7162      7166      7167      7168      7169      7171      7172
      7174      7175      7177      7178      7161      7166      7161      7163
      7161      7164      7161      7165      7166      7168      7166      7174
      7168      7171      7168      7170      7171      7173      7171      7177
      7177      7174      7174      7176      7177      7179      7180      7177
      7181      7182      7186      7187      7188      7189      7191      7192
      7194      7195      7197      7198      7181      7186      7181      7183
      7181      7184      7181      7185      7186      7188      7186      7194
      7188      7191      7188      7190      7191      7193      7191      7197
      7197      7194      7194      7196      7197      7199      7200      7197
      7201      7202      7206      7207      7208      7209      7211      7212
      7214      7215      7217      7218      7201      7206      7201      7203
      7201      7204      7201      7205      7206      7208      7206      7214
      7208      7211      7208      7210      7211      7213      7211      7217
      7217      7214      7214      7216      7217      7219      7220      7217
      7221      7222      7226      7227      7228      7229      7231      7232
      7234      7235      7237      7238      7221      7226      7221      7223
      7221      7224      7221      7225      7226      7228      7226      7234
      7228      7231      7228      7230      7231      7233      7231      7237
      7237      7234      7234      7236      7237      7239      7240      7237
      7241      7242      7246      7247      7248      7249      7251      7252
      7254      7255      7257      7258      7241      7246      7241      7243
      7241      7244      7241      7245      7246      7248      7246      7254
      7248      7251      7248      7250      7251      7253      7251      7257
      7257      7254      7254      7256      7257      7259      7260      7257
      7261      7262      7266      7267      7268      7269      7271      7272
      7274      7275      7277      7278      7261      7266      7261      7263
      7261      7264      7261      7265      7266      7268      7266      7274
      7268      7271      7268      7270      7271      7273      7271      7277
      7277      7274      7274      7276      7277      7279      7280      7277
      7281      7282      7286      7287      7288      7289      7291      7292
      7294      7295      7297      7298      7281      7286      7281      7283
      7281      7284      7281      7285      7286      7288      7286      7294
      7288      7291      7288      7290      7291      7293      7291      7297
      7297      7294      7294      7296      7297      7299      7300      7297
      7301      7302      7306      7307      7308      7309      7311      7312
      7314      7315      7317      7318      7301      7306      7301      7303
      7301      7304      7301      7305      7306      7308      7306      7314
      7308      7311      7308      7310      7311      7313      7311      7317
      7317      7314      7314      7316      7317      7319      7320      7317
      7321      7322      7326      7327      7328      7329      7331      7332
      7334      7335      7337      7338      7321      7326      7321      7323
      7321      7324      7321      7325      7326      7328      7326      7334
      7328      7331      7328      7330      7331      7333      7331      7337
      7337      7334      7334      7336      7337      7339      7340      7337
      7341      7342      7346      7347      7348      7349      7351      7352
      7354      7355      7357      7358      7341      7346      7341      7343
      7341      7344      7341      7345      7346      7348      7346      7354
      7348      7351      7348      7350      7351      7353      7351      7357
      7357      7354      7354      7356      7357      7359      7360      7357
      7361      7362      7366      7367      7368      7369      7371      7372
      7374      7375      7377      7378      7361      7366      7361      7363
      7361      7364      7361      7365      7366      7368      7366      7374
      7368      7371      7368      7370      7371      7373      7371      7377
      7377      7374      7374      7376      7377      7379      7380      7377
      7381      7382      7386      7387      7388      7389      7391      7392
      7394      7395      7397      7398      7381      7386      7381      7383
      7381      7384      7381      7385      7386      7388      7386      7394
      7388      7391      7388      7390      7391      7393      7391      7397
      7397      7394      7394      7396      7397      7399      7400      7397
      7401      7402      7406      7407      7408      7409      7411      7412
      7414      7415      7417      7418      7401      7406      7401      7403
      7401      7404      7401      7405      7406      7408      7406      7414
      7408      7411      7408      7410      7411      7413      7411      7417
      7417      7414      7414      7416      7417      7419      7420      7417
      7421      7422      7426      7427      7428      7429      7431      7432
      7434      7435      7437      7438      7421      7426      7421      7423
      7421      7424      7421      7425      7426      7428      7426      7434
      7428      7431      7428      7430      7431      7433      7431      7437
      7437      7434      7434      7436      7437      7439      7440      7437
      7441      7442      7446      7447      7448      7449      7451      7452
      7454      7455      7457      7458      7441      7446      7441      7443
      7441      7444      7441      7445      7446      7448      7446      7454
      7448      7451      7448      7450      7451      7453      7451      7457
      7457      7454      7454      7456      7457      7459      7460      7457
      7461      7462      7466      7467      7468      7469      7471      7472
      7474      7475      7477      7478      7461      7466      7461      7463
      7461      7464      7461      7465      7466      7468      7466      7474
      7468      7471      7468      7470      7471      7473      7471      7477
      7477      7474      7474      7476      7477      7479      7480      7477
      7481      7482      7486      7487      7488      7489      7491      7492
      7494      7495      7497      7498      7481      7486      7481      7483
      7481      7484      7481      7485      7486      7488      7486      7494
      7488      7491      7488      7490      7491      7493      7491      7497
      7497      7494      7494      7496      7497      7499      7500      7497
      7501      7502      7506      7507      7508      7509      7511      7512
      7514      7515      7517      7518      7501      7506      7501      7503
      7501      7504      7501      7505      7506      7508      7506      7514
      7508      7511      7508      7510      7511      7513      7511      7517
      7517      7514      7514      7516      7517      7519      7520      7517
      7521      7522      7526      7527      7528      7529      7531      7532
      7534      7535      7537      7538      7521      7526      7521      7523
      7521      7524      7521      7525      7526      7528      7526      7534
      7528      7531      7528      7530      7531      7533      7531      7537
      7537      7534      7534      7536      7537      7539      7540      7537
      7541      7542      7546      7547      7548      7549      7551      7552
      7554      7555      7557      7558      7541      7546      7541      7543
      7541      7544      7541      7545      7546      7548      7546      7554
      7548      7551      7548      7550      7551      7553      7551      7557
      7557      7554      7554      7556      7557      7559      7560      7557
      7561      7562      7566      7567      7568      7569      7571      7572
      7574      7575      7577      7578      7561      7566      7561      7563
      7561      7564      7561      7565      7566      7568      7566      7574
      7568      7571      7568      7570      7571      7573      7571      7577
      7577      7574      7574      7576      7577      7579      7580      7577
      7581      7582      7586      7587      7588      7589      7591      7592
      7594      7595      7597      7598      7581      7586      7581      7583
      7581      7584      7581      7585      7586      7588      7586      7594
      7588      7591      7588      7590      7591      7593      7591      7597
      7597      7594      7594      7596      7597      7599      7600      7597
      7601      7602      7606      7607      7608      7609      7611      7612
      7614      7615      7617      7618      7601      7606      7601      7603
      7601      7604      7601      7605      7606      7608      7606      7614
      7608      7611      7608      7610      7611      7613      7611      7617
      7617      7614      7614      7616      7617      7619      7620      7617
      7621      7622      7626      7627      7628      7629      7631      7632
      7634      7635      7637      7638      7621      7626      7621      7623
      7621      7624      7621      7625      7626      7628      7626      7634
      7628      7631      7628      7630      7631      7633      7631      7637
      7637      7634      7634      7636      7637      7639      7640      7637
      7641      7642      7646      7647      7648      7649      7651      7652
      7654      7655      7657      7658      7641      7646      7641      7643
      7641      7644      7641      7645      7646      7648      7646      7654
      7648      7651      7648      7650      7651      7653      7651      7657
      7657      7654      7654      7656      7657      7659      7660      7657
      7661      7662      7666      7667      7668      7669      7671      7672
      7674      7675      7677      7678      7661      7666      7661      7663
      7661      7664      7661      7665      7666      7668      7666      7674
      7668      7671      7668      7670      7671      7673      7671      7677
      7677      7674      7674      7676      7677      7679      7680      7677
      7681      7682      7686      7687      7688      7689      7691      7692
      7694      7695      7697      7698      7681      7686      7681      7683
      7681      7684      7681      7685      7686      7688      7686      7694
      7688      7691      7688      7690      7691      7693      7691      7697
      7697      7694      7694      7696      7697      7699      7700      7697
      7701      7702      7706      7707      7708      7709      7711      7712
      7714      7715      7717      7718      7701      7706      7701      7703
      7701      7704      7701      7705      7706      7708      7706      7714
      7708      7711      7708      7710      7711      7713      7711      7717
      7717      7714      7714      7716      7717      7719      7720      7717
      7721      7722      7726      7727      7728      7729      7731      7732
      7734      7735      7737      7738      7721      7726      7721      7723
      7721      7724      7721      7725      7726      7728      7726      7734
      7728      7731      7728      7730      7731      7733      7731      7737
      7737      7734      7734      7736      7737      7739      7740      7737
      7741      7742      7746      7747      7748      7749      7751      7752
      7754      7755      7757      7758      7741      7746      7741      7743
      7741      7744      7741      7745      7746      7748      7746      7754
      7748      7751      7748      7750      7751      7753      7751      7757
      7757      7754      7754      7756      7757      7759      7760      7757
      7761      7762      7766      7767      7768      7769      7771      7772
      7774      7775      7777      7778      7761      7766      7761      7763
      7761      7764      7761      7765      7766      7768      7766      7774
      7768      7771      7768      7770      7771      7773      7771      7777
      7777      7774      7774      7776      7777      7779      7780      7777
      7781      7782      7786      7787      7788      7789      7791      7792
      7794      7795      7797      7798      7781      7786      7781      7783
      7781      7784      7781      7785      7786      7788      7786      7794
      7788      7791      7788      7790      7791      7793      7791      7797
      7797      7794      7794      7796      7797      7799      7800      7797
      7801      7802      7806      7807      7808      7809      7811      7812
      7814      7815      7817      7818      7801      7806      7801      7803
      7801      7804      7801      7805      7806      7808      7806      7814
      7808      7811      7808      7810      7811      7813      7811      7817
      7817      7814      7814      7816      7817      7819      7820      7817
      7821      7822      7826      7827      7828      7829      7831      7832
      7834      7835      7837      7838      7821      7826      7821      7823
      7821      7824      7821      7825      7826      7828      7826      7834
      7828      7831      7828      7830      7831      7833      7831      7837
      7837      7834      7834      7836      7837      7839      7840      7837
      7841      7842      7846      7847      7848      7849      7851      7852
      7854      7855      7857      7858      7841      7846      7841      7843
      7841      7844      7841      7845      7846      7848      7846      7854
      7848      7851      7848      7850      7851      7853      7851      7857
      7857      7854      7854      7856      7857      7859      7860      7857
      7861      7862      7866      7867      7868      7869      7871      7872
      7874      7875      7877      7878      7861      7866      7861      7863
      7861      7864      7861      7865      7866      7868      7866      7874
      7868      7871      7868      7870      7871      7873      7871      7877
      7877      7874      7874      7876      7877      7879      7880      7877
      7881      7882      7886      7887      7888      7889      7891      7892
      7894      7895      7897      7898      7881      7886      7881      7883
      7881      7884      7881      7885      7886      7888      7886      7894
      7888      7891      7888      7890      7891      7893      7891      7897
      7897      7894      7894      7896      7897      7899      7900      7897
      7901      7902      7906      7907      7908      7909      7911      7912
      7914      7915      7917      7918      7901      7906      7901      7903
      7901      7904      7901      7905      7906      7908      7906      7914
      7908      7911      7908      7910      7911      7913      7911      7917
      7917      7914      7914      7916      7917      7919      7920      7917
      7921      7922      7926      7927      7928      7929      7931      7932
      7934      7935      7937      7938      7921      7926      7921      7923
      7921      7924      7921      7925      7926      7928      7926      7934
      7928      7931      7928      7930      7931      7933      7931      7937
      7937      7934      7934      7936      7937      7939      7940      7937
      7941      7942      7946      7947      7948      7949      7951      7952
      7954      7955      7957      7958      7941      7946      7941      7943
      7941      7944      7941      7945      7946      7948      7946      7954
      7948      7951      7948      7950      7951      7953      7951      7957
      7957      7954      7954      7956      7957      7959      7960      7957
      7961      7962      7966      7967      7968      7969      7971      7972
      7974      7975      7977      7978      7961      7966      7961      7963
      7961      7964      7961      7965      7966      7968      7966      7974
      7968      7971      7968      7970      7971      7973      7971      7977
      7977      7974      7974      7976      7977      7979      7980      7977
      7981      7982      7986      7987      7988      7989      7991      7992
      7994      7995      7997      7998      7981      7986      7981      7983
      7981      7984      7981      7985      7986      7988      7986      7994
      7988      7991      7988      7990      7991      7993      7991      7997
      7997      7994      7994      7996      7997      7999      8000      7997
      8001      8002      8006      8007      8008      8009      8011      8012
      8014      8015      8017      8018      8001      8006      8001      8003
      8001      8004      8001      8005      8006      8008      8006      8014
      8008      8011      8008      8010      8011      8013      8011      8017
      8017      8014      8014      8016      8017      8019      8020      8017
      8021      8022      8026      8027      8028      8029      8031      8032
      8034      8035      8037      8038      8021      8026      8021      8023
      8021      8024      8021      8025      8026      8028      8026      8034
      8028      8031      8028      8030      8031      8033      8031      8037
      8037      8034      8034      8036      8037      8039      8040      8037
      8041      8042      8046      8047      8048      8049      8051      8052
      8054      8055      8057      8058      8041      8046      8041      8043
      8041      8044      8041      8045      8046      8048      8046      8054
      8048      8051      8048      8050      8051      8053      8051      8057
      8057      8054      8054      8056      8057      8059      8060      8057
      8061      8062      8066      8067      8068      8069      8071      8072
      8074      8075      8077      8078      8061      8066      8061      8063
      8061      8064      8061      8065      8066      8068      8066      8074
      8068      8071      8068      8070      8071      8073      8071      8077
      8077      8074      8074      8076      8077      8079      8080      8077
      8081      8082      8086      8087      8088      8089      8091      8092
      8094      8095      8097      8098      8081      8086      8081      8083
      8081      8084      8081      8085      8086      8088      8086      8094
      8088      8091      8088      8090      8091      8093      8091      8097
      8097      8094      8094      8096      8097      8099      8100      8097
      8101      8102      8106      8107      8108      8109      8111      8112
      8114      8115      8117      8118      8101      8106      8101      8103
      8101      8104      8101      8105      8106      8108      8106      8114
      8108      8111      8108      8110      8111      8113      8111      8117
      8117      8114      8114      8116      8117      8119      8120      8117
      8121      8122      8126      8127      8128      8129      8131      8132
      8134      8135      8137      8138      8121      8126      8121      8123
      8121      8124      8121      8125      8126      8128      8126      8134
      8128      8131      8128      8130      8131      8133      8131      8137
      8137      8134      8134      8136      8137      8139      8140      8137
      8141      8142      8146      8147      8148      8149      8151      8152
      8154      8155      8157      8158      8141      8146      8141      8143
      8141      8144      8141      8145      8146      8148      8146      8154
      8148      8151      8148      8150      8151      8153      8151      8157
      8157      8154      8154      8156      8157      8159      8160      8157
      8161      8162      8166      8167      8168      8169      8171      8172
      8174      8175      8177      8178      8161      8166      8161      8163
      8161      8164      8161      8165      8166      8168      8166      8174
      8168      8171      8168      8170      8171      8173      8171      8177
      8177      8174      8174      8176      8177      8179      8180      8177
      8181      8182      8186      8187      8188      8189      8191      8192
      8194      8195      8197      8198      8181      8186      8181      8183
      8181      8184      8181      8185      8186      8188      8186      8194
      8188      8191      8188      8190      8191      8193      8191      8197
      8197      8194      8194      8196      8197      8199      8200      8197
      8201      8202      8206      8207      8208      8209      8211      8212
      8214      8215      8217      8218      8201      8206      8201      8203
      8201      8204      8201      8205      8206      8208      8206      8214
      8208      8211      8208      8210      8211      8213      8211      8217
      8217      8214      8214      8216      8217      8219      8220      8217
      8221      8222      8226      8227      8228      8229      8231      8232
      8234      8235      8237      8238      8221      8226      8221      8223
      8221      8224      8221      8225      8226      8228      8226      8234
      8228      8231      8228      8230      8231      8233      8231      8237
      8237      8234      8234      8236      8237      8239      8240      8237
      8241      8242      8246      8247      8248      8249      8251      8252
      8254      8255      8257      8258      8241      8246      8241      8243
      8241      8244      8241      8245      8246      8248      8246      8254
      8248      8251      8248      8250      8251      8253      8251      8257
      8257      8254      8254      8256      8257      8259      8260      8257
      8261      8262      8266      8267      8268      8269      8271      8272
      8274      8275      8277      8278      8261      8266      8261      8263
      8261      8264      8261      8265      8266      8268      8266      8274
      8268      8271      8268      8270      8271      8273      8271      8277
      8277      8274      8274      8276      8277      8279      8280      8277
      8281      8282      8286      8287      8288      8289      8291      8292
      8294      8295      8297      8298      8281      8286      8281      8283
      8281      8284      8281      8285      8286      8288      8286      8294
      8288      8291      8288      8290      8291      8293      8291      8297
      8297      8294      8294      8296      8297      8299      8300      8297
      8301      8302      8306      8307      8308      8309      8311      8312
      8314      8315      8317      8318      8301      8306      8301      8303
      8301      8304      8301      8305      8306      8308      8306      8314
      8308      8311      8308      8310      8311      8313      8311      8317
      8317      8314      8314      8316      8317      8319      8320      8317
      8321      8322      8326      8327      8328      8329      8331      8332
      8334      8335      8337      8338      8321      8326      8321      8323
      8321      8324      8321      8325      8326      8328      8326      8334
      8328      8331      8328      8330      8331      8333      8331      8337
      8337      8334      8334      8336      8337      8339      8340      8337
      8341      8342      8346      8347      8348      8349      8351      8352
      8354      8355      8357      8358      8341      8346      8341      8343
      8341      8344      8341      8345      8346      8348      8346      8354
      8348      8351      8348      8350      8351      8353      8351      8357
      8357      8354      8354      8356      8357      8359      8360      8357
      8361      8362      8366      8367      8368      8369      8371      8372
      8374      8375      8377      8378      8361      8366      8361      8363
      8361      8364      8361      8365      8366      8368      8366      8374
      8368      8371      8368      8370      8371      8373      8371      8377
      8377      8374      8374      8376      8377      8379      8380      8377
      8381      8382      8386      8387      8388      8389      8391      8392
      8394      8395      8397      8398      8381      8386      8381      8383
      8381      8384      8381      8385      8386      8388      8386      8394
      8388      8391      8388      8390      8391      8393      8391      8397
      8397      8394      8394      8396      8397      8399      8400      8397
      8401      8402      8406      8407      8408      8409      8411      8412
      8414      8415      8417      8418      8401      8406      8401      8403
      8401      8404      8401      8405      8406      8408      8406      8414
      8408      8411      8408      8410      8411      8413      8411      8417
      8417      8414      8414      8416      8417      8419      8420      8417
      8421      8422      8426      8427      8428      8429      8431      8432
      8434      8435      8437      8438      8421      8426      8421      8423
      8421      8424      8421      8425      8426      8428      8426      8434
      8428      8431      8428      8430      8431      8433      8431      8437
      8437      8434      8434      8436      8437      8439      8440      8437
      8441      8442      8446      8447      8448      8449      8451      8452
      8454      8455      8457      8458      8441      8446      8441      8443
      8441      8444      8441      8445      8446      8448      8446      8454
      8448      8451      8448      8450      8451      8453      8451      8457
      8457      8454      8454      8456      8457      8459      8460      8457
      8461      8462      8466      8467      8468      8469      8471      8472
      8474      8475      8477      8478      8461      8466      8461      8463
      8461      8464      8461      8465      8466      8468      8466      8474
      8468      8471      8468      8470      8471      8473      8471      8477
      8477      8474      8474      8476      8477      8479      8480      8477
      8481      8482      8486      8487      8488      8489      8491      8492
      8494      8495      8497      8498      8481      8486      8481      8483
      8481      8484      8481      8485      8486      8488      8486      8494
      8488      8491      8488      8490      8491      8493      8491      8497
      8497      8494      8494      8496      8497      8499      8500      8497
      8501      8502      8506      8507      8508      8509      8511      8512
      8514      8515      8517      8518      8501      8506      8501      8503
      8501      8504      8501      8505      8506      8508      8506      8514
      8508      8511      8508      8510      8511      8513      8511      8517
      8517      8514      8514      8516      8517      8519      8520      8517
      8521      8522      8526      8527      8528      8529      8531      8532
      8534      8535      8537      8538      8521      8526      8521      8523
      8521      8524      8521      8525      8526      8528      8526      8534
      8528      8531      8528      8530      8531      8533      8531      8537
      8537      8534      8534      8536      8537      8539      8540      8537
      8541      8542      8546      8547      8548      8549      8551      8552
      8554      8555      8557      8558      8541      8546      8541      8543
      8541      8544      8541      8545      8546      8548      8546      8554
      8548      8551      8548      8550      8551      8553      8551      8557
      8557      8554      8554      8556      8557      8559      8560      8557
      8561      8562      8566      8567      8568      8569      8571      8572
      8574      8575      8577      8578      8561      8566      8561      8563
      8561      8564      8561      8565      8566      8568      8566      8574
      8568      8571      8568      8570      8571      8573      8571      8577
      8577      8574      8574      8576      8577      8579      8580      8577
      8581      8582      8586      8587      8588      8589      8591      8592
      8594      8595      8597      8598      8581      8586      8581      8583
      8581      8584      8581      8585      8586      8588      8586      8594
      8588      8591      8588      8590      8591      8593      8591      8597
      8597      8594      8594      8596      8597      8599      8600      8597
      8601      8602      8606      8607      8608      8609      8611      8612
      8614      8615      8617      8618      8601      8606      8601      8603
      8601      8604      8601      8605      8606      8608      8606      8614
      8608      8611      8608      8610      8611      8613      8611      8617
      8617      8614      8614      8616      8617      8619      8620      8617
      8621      8622      8626      8627      8628      8629      8631      8632
      8634      8635      8637      8638      8621      8626      8621      8623
      8621      8624      8621      8625      8626      8628      8626      8634
      8628      8631      8628      8630      8631      8633      8631      8637
      8637      8634      8634      8636      8637      8639      8640      8637
      8641      8642      8646      8647      8648      8649      8651      8652
      8654      8655      8657      8658      8641      8646      8641      8643
      8641      8644      8641      8645      8646      8648      8646      8654
      8648      8651      8648      8650      8651      8653      8651      8657
      8657      8654      8654      8656      8657      8659      8660      8657
      8661      8662      8666      8667      8668      8669      8671      8672
      8674      8675      8677      8678      8661      8666      8661      8663
      8661      8664      8661      8665      8666      8668      8666      8674
      8668      8671      8668      8670      8671      8673      8671      8677
      8677      8674      8674      8676      8677      8679      8680      8677
      8681      8682      8686      8687      8688      8689      8691      8692
      8694      8695      8697      8698      8681      8686      8681      8683
      8681      8684      8681      8685      8686      8688      8686      8694
      8688      8691      8688      8690      8691      8693      8691      8697
      8697      8694      8694      8696      8697      8699      8700      8697
      8701      8702      8706      8707      8708      8709      8711      8712
      8714      8715      8717      8718      8701      8706      8701      8703
      8701      8704      8701      8705      8706      8708      8706      8714
      8708      8711      8708      8710      8711      8713      8711      8717
      8717      8714      8714      8716      8717      8719      8720      8717
      8721      8722      8726      8727      8728      8729      8731      8732
      8734      8735      8737      8738      8721      8726      8721      8723
      8721      8724      8721      8725      8726      8728      8726      8734
      8728      8731      8728      8730      8731      8733      8731      8737
      8737      8734      8734      8736      8737      8739      8740      8737
      8741      8742      8746      8747      8748      8749      8751      8752
      8754      8755      8757      8758      8741      8746      8741      8743
      8741      8744      8741      8745      8746      8748      8746      8754
      8748      8751      8748      8750      8751      8753      8751      8757
      8757      8754      8754      8756      8757      8759      8760      8757
      8761      8762      8766      8767      8768      8769      8771      8772
      8774      8775      8777      8778      8761      8766      8761      8763
      8761      8764      8761      8765      8766      8768      8766      8774
      8768      8771      8768      8770      8771      8773      8771      8777
      8777      8774      8774      8776      8777      8779      8780      8777
      8781      8782      8786      8787      8788      8789      8791      8792
      8794      8795      8797      8798      8781      8786      8781      8783
      8781      8784      8781      8785      8786      8788      8786      8794
      8788      8791      8788      8790      8791      8793      8791      8797
      8797      8794      8794      8796      8797      8799      8800      8797
      8801      8802      8806      8807      8808      8809      8811      8812
      8814      8815      8817      8818      8801      8806      8801      8803
      8801      8804      8801      8805      8806      8808      8806      8814
      8808      8811      8808      8810      8811      8813      8811      8817
      8817      8814      8814      8816      8817      8819      8820      8817
      8821      8822      8826      8827      8828      8829      8831      8832
      8834      8835      8837      8838      8821      8826      8821      8823
      8821      8824      8821      8825      8826      8828      8826      8834
      8828      8831      8828      8830      8831      8833      8831      8837
      8837      8834      8834      8836      8837      8839      8840      8837
      8841      8842      8846      8847      8848      8849      8851      8852
      8854      8855      8857      8858      8841      8846      8841      8843
      8841      8844      8841      8845      8846      8848      8846      8854
      8848      8851      8848      8850      8851      8853      8851      8857
      8857      8854      8854      8856      8857      8859      8860      8857
      8861      8862      8866      8867      8868      8869      8871      8872
      8874      8875      8877      8878      8861      8866      8861      8863
      8861      8864      8861      8865      8866      8868      8866      8874
      8868      8871      8868      8870      8871      8873      8871      8877
      8877      8874      8874      8876      8877      8879      8880      8877
      8881      8882      8886      8887      8888      8889      8891      8892
      8894      8895      8897      8898      8881      8886      8881      8883
      8881      8884      8881      8885      8886      8888      8886      8894
      8888      8891      8888      8890      8891      8893      8891      8897
      8897      8894      8894      8896      8897      8899      8900      8897
      8901      8902      8906      8907      8908      8909      8911      8912
      8914      8915      8917      8918      8901      8906      8901      8903
      8901      8904      8901      8905      8906      8908      8906      8914
      8908      8911      8908      8910      8911      8913      8911      8917
      8917      8914      8914      8916      8917      8919      8920      8917
      8921      8922      8926      8927      8928      8929      8931      8932
      8934      8935      8937      8938      8921      8926      8921      8923
      8921      8924      8921      8925      8926      8928      8926      8934
      8928      8931      8928      8930      8931      8933      8931      8937
      8937      8934      8934      8936      8937      8939      8940      8937
      8941      8942      8946      8947      8948      8949      8951      8952
      8954      8955      8957      8958      8941      8946      8941      8943
      8941      8944      8941      8945      8946      8948      8946      8954
      8948      8951      8948      8950      8951      8953      8951      8957
      8957      8954      8954      8956      8957      8959      8960      8957
      8961      8962      8966      8967      8968      8969      8971      8972
      8974      8975      8977      8978      8961      8966      8961      8963
      8961      8964      8961      8965      8966      8968      8966      8974
      8968      8971      8968      8970      8971      8973      8971      8977
      8977      8974      8974      8976      8977      8979      8980      8977
      8981      8982      8986      8987      8988      8989      8991      8992
      8994      8995      8997      8998      8981      8986      8981      8983
      8981      8984      8981      8985      8986      8988      8986      8994
      8988      8991      8988      8990      8991      8993      8991      8997
      8997      8994      8994      8996      8997      8999      9000      8997
      9001      9002      9006      9007      9008      9009      9011      9012
      9014      9015      9017      9018      9001      9006      9001      9003
      9001      9004      9001      9005      9006      9008      9006      9014
      9008      9011      9008      9010      9011      9013      9011      9017
      9017      9014      9014      9016      9017      9019      9020      9017
      9021      9022      9026      9027      9028      9029      9031      9032
      9034      9035      9037      9038      9021      9026      9021      9023
      9021      9024      9021      9025      9026      9028      9026      9034
      9028      9031      9028      9030      9031      9033      9031      9037
      9037      9034      9034      9036      9037      9039      9040      9037
      9041      9042      9046      9047      9048      9049      9051      9052
      9054      9055      9057      9058      9041      9046      9041      9043
      9041      9044      9041      9045      9046      9048      9046      9054
      9048      9051      9048      9050      9051      9053      9051      9057
      9057      9054      9054      9056      9057      9059      9060      9057
      9061      9062      9066      9067      9068      9069      9071      9072
      9074      9075      9077      9078      9061      9066      9061      9063
      9061      9064      9061      9065      9066      9068      9066      9074
      9068      9071      9068      9070      9071      9073      9071      9077
      9077      9074      9074      9076      9077      9079      9080      9077
      9081      9082      9086      9087      9088      9089      9091      9092
      9094      9095      9097      9098      9081      9086      9081      9083
      9081      9084      9081      9085      9086      9088      9086      9094
      9088      9091      9088      9090      9091      9093      9091      9097
      9097      9094      9094      9096      9097      9099      9100      9097
      9101      9102      9106      9107      9108      9109      9111      9112
      9114      9115      9117      9118      9101      9106      9101      9103
      9101      9104      9101      9105      9106      9108      9106      9114
      9108      9111      9108      9110      9111      9113      9111      9117
      9117      9114      9114      9116      9117      9119      9120      9117
      9121      9122      9126      9127      9128      9129      9131      9132
      9134      9135      9137      9138      9121      9126      9121      9123
      9121      9124      9121      9125      9126      9128      9126      9134
      9128      9131      9128      9130      9131      9133      9131      9137
      9137      9134      9134      9136      9137      9139      9140      9137
      9141      9142      9146      9147      9148      9149      9151      9152
      9154      9155      9157      9158      9141      9146      9141      9143
      9141      9144      9141      9145      9146      9148      9146      9154
      9148      9151      9148      9150      9151      9153      9151      9157
      9157      9154      9154      9156      9157      9159      9160      9157
      9161      9162      9166      9167      9168      9169      9171      9172
      9174      9175      9177      9178      9161      9166      9161      9163
      9161      9164      9161      9165      9166      9168      9166      9174
      9168      9171      9168      9170      9171      9173      9171      9177
      9177      9174      9174      9176      9177      9179      9180      9177
      9181      9182      9186      9187      9188      9189      9191      9192
      9194      9195      9197      9198      9181      9186      9181      9183
      9181      9184      9181      9185      9186      9188      9186      9194
      9188      9191      9188      9190      9191      9193      9191      9197
      9197      9194      9194      9196      9197      9199      9200      9197
      9201      9202      9206      9207      9208      9209      9211      9212
      9214      9215      9217      9218      9201      9206      9201      9203
      9201      9204      9201      9205      9206      9208      9206      9214
      9208      9211      9208      9210      9211      9213      9211      9217
      9217      9214      9214      9216      9217      9219      9220      9217
      9221      9222      9226      9227      9228      9229      9231      9232
      9234      9235      9237      9238      9221      9226      9221      9223
      9221      9224      9221      9225      9226      9228      9226      9234
      9228      9231      9228      9230      9231      9233      9231      9237
      9237      9234      9234      9236      9237      9239      9240      9237
      9241      9242      9246      9247      9248      9249      9251      9252
      9254      9255      9257      9258      9241      9246      9241      9243
      9241      9244      9241      9245      9246      9248      9246      9254
      9248      9251      9248      9250      9251      9253      9251      9257
      9257      9254      9254      9256      9257      9259      9260      9257
      9261      9262      9266      9267      9268      9269      9271      9272
      9274      9275      9277      9278      9261      9266      9261      9263
      9261      9264      9261      9265      9266      9268      9266      9274
      9268      9271      9268      9270      9271      9273      9271      9277
      9277      9274      9274      9276      9277      9279      9280      9277
      9281      9282      9286      9287      9288      9289      9291      9292
      9294      9295      9297      9298      9281      9286      9281      9283
      9281      9284      9281      9285      9286      9288      9286      9294
      9288      9291      9288      9290      9291      9293      9291      9297
      9297      9294      9294      9296      9297      9299      9300      9297
      9301      9302      9306      9307      9308      9309      9311      9312
      9314      9315      9317      9318      9301      9306      9301      9303
      9301      9304      9301      9305      9306      9308      9306      9314
      9308      9311      9308      9310      9311      9313      9311      9317
      9317      9314      9314      9316      9317      9319      9320      9317
      9321      9322      9326      9327      9328      9329      9331      9332
      9334      9335      9337      9338      9321      9326      9321      9323
      9321      9324      9321      9325      9326      9328      9326      9334
      9328      9331      9328      9330      9331      9333      9331      9337
      9337      9334      9334      9336      9337      9339      9340      9337
      9341      9342      9346      9347      9348      9349      9351      9352
      9354      9355      9357      9358      9341      9346      9341      9343
      9341      9344      9341      9345      9346      9348      9346      9354
      9348      9351      9348      9350      9351      9353      9351      9357
      9357      9354      9354      9356      9357      9359      9360      9357
      9361      9362      9366      9367      9368      9369      9371      9372
      9374      9375      9377      9378      9361      9366      9361      9363
      9361      9364      9361      9365      9366      9368      9366      9374
      9368      9371      9368      9370      9371      9373      9371      9377
      9377      9374      9374      9376      9377      9379      9380      9377
      9381      9382      9386      9387      9388      9389      9391      9392
      9394      9395      9397      9398      9381      9386      9381      9383
      9381      9384      9381      9385      9386      9388      9386      9394
      9388      9391      9388      9390      9391      9393      9391      9397
      9397      9394      9394      9396      9397      9399      9400      9397
      9401      9402      9406      9407      9408      9409      9411      9412
      9414      9415      9417      9418      9401      9406      9401      9403
      9401      9404      9401      9405      9406      9408      9406      9414
      9408      9411      9408      9410      9411      9413      9411      9417
      9417      9414      9414      9416      9417      9419      9420      9417
      9421      9422      9426      9427      9428      9429      9431      9432
      9434      9435      9437      9438      9421      9426      9421      9423
      9421      9424      9421      9425      9426      9428      9426      9434
      9428      9431      9428      9430      9431      9433      9431      9437
      9437      9434      9434      9436      9437      9439      9440      9437
      9441      9442      9446      9447      9448      9449      9451      9452
      9454      9455      9457      9458      9441      9446      9441      9443
      9441      9444      9441      9445      9446      9448      9446      9454
      9448      9451      9448      9450      9451      9453      9451      9457
      9457      9454      9454      9456      9457      9459      9460      9457
      9461      9462      9466      9467      9468      9469      9471      9472
      9474      9475      9477      9478      9461      9466      9461      9463
      9461      9464      9461      9465      9466      9468      9466      9474
      9468      9471      9468      9470      9471      9473      9471      9477
      9477      9474      9474      9476      9477      9479      9480      9477
      9481      9482      9486      9487      9488      9489      9491      9492
      9494      9495      9497      9498      9481      9486      9481      9483
      9481      9484      9481      9485      9486      9488      9486      9494
      9488      9491      9488      9490      9491      9493      9491      9497
      9497      9494      9494      9496      9497      9499      9500      9497
      9501      9502      9506      9507      9508      9509      9511      9512
      9514      9515      9517      9518      9501      9506      9501      9503
      9501      9504      9501      9505      9506      9508      9506      9514
      9508      9511      9508      9510      9511      9513      9511      9517
      9517      9514      9514      9516      9517      9519      9520      9517
      9521      9522      9526      9527      9528      9529      9531      9532
      9534      9535      9537      9538      9521      9526      9521      9523
      9521      9524      9521      9525      9526      9528      9526      9534
      9528      9531      9528      9530      9531      9533      9531      9537
      9537      9534      9534      9536      9537      9539      9540      9537
      9541      9542      9546      9547      9548      9549      9551      9552
      9554      9555      9557      9558      9541      9546      9541      9543
      9541      9544      9541      9545      9546      9548      9546      9554
      9548      9551      9548      9550      9551      9553      9551      9557
      9557      9554      9554      9556      9557      9559      9560      9557
      9561      9562      9566      9567      9568      9569      9571      9572
      9574      9575      9577      9578      9561      9566      9561      9563
      9561      9564      9561      9565      9566      9568      9566      9574
      9568      9571      9568      9570      9571      9573      9571      9577
      9577      9574      9574      9576      9577      9579      9580      9577
      9581      9582      9586      9587      9588      9589      9591      9592
      9594      9595      9597      9598      9581      9586      9581      9583
      9581      9584      9581      9585      9586      9588      9586      9594
      9588      9591      9588      9590      9591      9593      9591      9597
      9597      9594      9594      9596      9597      9599      9600      9597
      9601      9602      9606      9607      9608      9609      9611      9612
      9614      9615      9617      9618      9601      9606      9601      9603
      9601      9604      9601      9605      9606      9608      9606      9614
      9608      9611      9608      9610      9611      9613      9611      9617
      9617      9614      9614      9616      9617      9619      9620      9617
      9621      9622      9626      9627      9628      9629      9631      9632
      9634      9635      9637      9638      9621      9626      9621      9623
      9621      9624      9621      9625      9626      9628      9626      9634
      9628      9631      9628      9630      9631      9633      9631      9637
      9637      9634      9634      9636      9637      9639      9640      9637
      9641      9642      9646      9647      9648      9649      9651      9652
      9654      9655      9657      9658      9641      9646      9641      9643
      9641      9644      9641      9645      9646      9648      9646      9654
      9648      9651      9648      9650      9651      9653      9651      9657
      9657      9654      9654      9656      9657      9659      9660      9657
      9661      9662      9666      9667      9668      9669      9671      9672
      9674      9675      9677      9678      9661      9666      9661      9663
      9661      9664      9661      9665      9666      9668      9666      9674
      9668      9671      9668      9670      9671      9673      9671      9677
      9677      9674      9674      9676      9677      9679      9680      9677
      9681      9682      9686      9687      9688      9689      9691      9692
      9694      9695      9697      9698      9681      9686      9681      9683
      9681      9684      9681      9685      9686      9688      9686      9694
      9688      9691      9688      9690      9691      9693      9691      9697
      9697      9694      9694      9696      9697      9699      9700      9697
      9701      9702      9706      9707      9708      9709      9711      9712
      9714      9715      9717      9718      9701      9706      9701      9703
      9701      9704      9701      9705      9706      9708      9706      9714
      9708      9711      9708      9710      9711      9713      9711      9717
      9717      9714      9714      9716      9717      9719      9720      9717
      9721      9722      9726      9727      9728      9729      9731      9732
      9734      9735      9737      9738      9721      9726      9721      9723
      9721      9724      9721      9725      9726      9728      9726      9734
      9728      9731      9728      9730      9731      9733      9731      9737
      9737      9734      9734      9736      9737      9739      9740      9737
      9741      9742      9746      9747      9748      9749      9751      9752
      9754      9755      9757      9758      9741      9746      9741      9743
      9741      9744      9741      9745      9746      9748      9746      9754
      9748      9751      9748      9750      9751      9753      9751      9757
      9757      9754      9754      9756      9757      9759      9760      9757
      9761      9762      9766      9767      9768      9769      9771      9772
      9774      9775      9777      9778      9761      9766      9761      9763
      9761      9764      9761      9765      9766      9768      9766      9774
      9768      9771      9768      9770      9771      9773      9771      9777
      9777      9774      9774      9776      9777      9779      9780      9777
      9781      9782      9786      9787      9788      9789      9791      9792
      9794      9795      9797      9798      9781      9786      9781      9783
      9781      9784      9781      9785      9786      9788      9786      9794
      9788      9791      9788      9790      9791      9793      9791      9797
      9797      9794      9794      9796      9797      9799      9800      9797
      9801      9802      9806      9807      9808      9809      9811      9812
      9814      9815      9817      9818      9801      9806      9801      9803
      9801      9804      9801      9805      9806      9808      9806      9814
      9808      9811      9808      9810      9811      9813      9811      9817
      9817      9814      9814      9816      9817      9819      9820      9817
      9821      9822      9826      9827      9828      9829      9831      9832
      9834      9835      9837      9838      9821      9826      9821      9823
      9821      9824      9821      9825      9826      9828      9826      9834
      9828      9831      9828      9830      9831      9833      9831      9837
      9837      9834      9834      9836      9837      9839      9840      9837
      9841      9842      9846      9847      9848      9849      9851      9852
      9854      9855      9857      9858      9841      9846      9841      9843
      9841      9844      9841      9845      9846      9848      9846      9854
      9848      9851      9848      9850      9851      9853      9851      9857
      9857      9854      9854      9856      9857      9859      9860      9857
      9861      9862      9866      9867      9868      9869      9871      9872
      9874      9875      9877      9878      9861      9866      9861      9863
      9861      9864      9861      9865      9866      9868      9866      9874
      9868      9871      9868      9870      9871      9873      9871      9877
      9877      9874      9874      9876      9877      9879      9880      9877
      9881      9882      9886      9887      9888      9889      9891      9892
      9894      9895      9897      9898      9881      9886      9881      9883
      9881      9884      9881      9885      9886      9888      9886      9894
      9888      9891      9888      9890      9891      9893      9891      9897
      9897      9894      9894      9896      9897      9899      9900      9897
      9901      9902      9906      9907      9908      9909      9911      9912
      9914      9915      9917      9918      9901      9906      9901      9903
      9901      9904      9901      9905      9906      9908      9906      9914
      9908      9911      9908      9910      9911      9913      9911      9917
      9917      9914      9914      9916      9917      9919      9920      9917
      9921      9922      9926      9927      9928      9929      9931      9932
      9934      9935      9937      9938      9921      9926      9921      9923
      9921      9924      9921      9925      9926      9928      9926      9934
      9928      9931      9928      9930      9931      9933      9931      9937
      9937      9934      9934      9936      9937      9939      9940      9937
      9941      9942      9946      9947      9948      9949      9951      9952
      9954      9955      9957      9958      9941      9946      9941      9943
      9941      9944      9941      9945      9946      9948      9946      9954
      9948      9951      9948      9950      9951      9953      9951      9957
      9957      9954      9954      9956      9957      9959      9960      9957
      9961      9962      9966      9967      9968      9969      9971      9972
      9974      9975      9977      9978      9961      9966      9961      9963
      9961      9964      9961      9965      9966      9968      9966      9974
      9968      9971      9968      9970      9971      9973      9971      9977
      9977      9974      9974      9976      9977      9979      9980      9977
      9981      9982      9986      9987      9988      9989      9991      9992
      9994      9995      9997      9998      9981      9986      9981      9983
      9981      9984      9981      9985      9986      9988      9986      9994
      9988      9991      9988      9990      9991      9993      9991      9997
      9997      9994      9994      9996      9997      9999     10000      9997
     10001     10002     10004     10005     10006     10007     10001     10003
     10001     10006     10001     10004     10006     10008     10009     10004
     10010     10004     10011     10006     10012     10006     10013     10014
     10016     10017     10018     10019     10013     10015     10013     10018
     10013     10016     10018     10020     10021     10016     10022     10016
     10023     10018     10024     10018     10025     10026     10028     10029
     10030     10031     10025     10027     10025     10030     10025     10028
     10030     10032     10033     10028     10034     10028     10035     10030
     10036     10030     10037     10038     10040     10041     10042     10043
     10037     10039     10037     10042     10037     10040     10042     10044
     10045     10040     10046     10040     10047     10042     10048     10042
     10049     10050     10052     10053     10054     10055     10049     10051
     10049     10054     10049     10052     10054     10056     10057     10052
     10058     10052     10059     10054     10060     10054     10061     10062
     10064     10065     10066     10067     10061     10063     10061     10066
     10061     10064     10066     10068     10069     10064     10070     10064
     10071     10066     10072     10066     10073     10074     10076     10077
     10078     10079     10073     10075     10073     10078     10073     10076
     10078     10080     10081     10076     10082     10076     10083     10078
     10084     10078     10085     10086     10088     10089     10090     10091
     10085     10087     10085     10090     10085     10088     10090     10092
     10093     10088     10094     10088     10095     10090     10096     10090
     10097     10098     10100     10101     10102     10103     10097     10099
     10097     10102     10097     10100     10102     10104     10105     10100
     10106     10100     10107     10102     10108     10102     10109     10110
     10112     10113     10114     10115     10109     10111     10109     10114
     10109     10112     10114     10116     10117     10112     10118     10112
     10119     10114     10120     10114     10121     10122     10124     10125
     10126     10127     10121     10123     10121     10126     10121     10124
     10126     10128     10129     10124     10130     10124     10131     10126
     10132     10126     10133     10134     10136     10137     10138     10139
     10133     10135     10133     10138     10133     10136     10138     10140
     10141     10136     10142     10136     10143     10138     10144     10138
     10145     10146     10148     10149     10150     10151     10145     10147
     10145     10150     10145     10148     10150     10152     10153     10148
     10154     10148     10155     10150     10156     10150     10157     10158
     10160     10161     10162     10163     10157     10159     10157     10162
     10157     10160     10162     10164     10165     10160     10166     10160
     10167     10162     10168     10162     10169     10170     10172     10173
     10174     10175     10169     10171     10169     10174     10169     10172
     10174     10176     10177     10172     10178     10172     10179     10174
     10180     10174     10181     10182     10184     10185     10186     10187
     10181     10183     10181     10186     10181     10184     10186     10188
     10189     10184     10190     10184     10191     10186     10192     10186
     10193     10194     10196     10197     10198     10199     10193     10195
     10193     10198     10193     10196     10198     10200     10201     10196
     10202     10196     10203     10198     10204     10198     10205     10206
     10208     10209     10210     10211     10205     10207     10205     10210
     10205     10208     10210     10212     10213     10208     10214     10208
     10215     10210     10216     10210     10217     10218     10220     10221
     10222     10223     10217     10219     10217     10222     10217     10220
     10222     10224     10225     10220     10226     10220     10227     10222
     10228     10222     10229     10230     10232     10233     10234     10235
     10229     10231     10229     10234     10229     10232     10234     10236
     10237     10232     10238     10232     10239     10234     10240     10234
     10241     10242     10244     10245     10246     10247     10241     10243
     10241     10246     10241     10244     10246     10248     10249     10244
     10250     10244     10251     10246     10252     10246     10253     10254
     10256     10257     10258     10259     10253     10255     10253     10258
     10253     10256     10258     10260     10261     10256     10262     10256
     10263     10258     10264     10258     10265     10266     10268     10269
     10270     10271     10265     10267     10265     10270     10265     10268
     10270     10272     10273     10268     10274     10268     10275     10270
     10276     10270     10277     10278     10280     10281     10282     10283
     10277     10279     10277     10282     10277     10280     10282     10284
     10285     10280     10286     10280     10287     10282     10288     10282
     10289     10290     10292     10293     10294     10295     10289     10291
     10289     10294     10289     10292     10294     10296     10297     10292
     10298     10292     10299     10294     10300     10294     10301     10302
     10304     10305     10306     10307     10301     10303     10301     10306
     10301     10304     10306     10308     10309     10304     10310     10304
     10311     10306     10312     10306     10313     10314     10316     10317
     10318     10319     10313     10315     10313     10318     10313     10316
     10318     10320     10321     10316     10322     10316     10323     10318
     10324     10318     10325     10326     10328     10329     10330     10331
     10325     10327     10325     10330     10325     10328     10330     10332
     10333     10328     10334     10328     10335     10330     10336     10330
     10337     10338     10340     10341     10342     10343     10337     10339
     10337     10342     10337     10340     10342     10344     10345     10340
     10346     10340     10347     10342     10348     10342     10349     10350
     10352     10353     10354     10355     10349     10351     10349     10354
     10349     10352     10354     10356     10357     10352     10358     10352
     10359     10354     10360     10354     10361     10362     10364     10365
     10366     10367     10361     10363     10361     10366     10361     10364
     10366     10368     10369     10364     10370     10364     10371     10366
     10372     10366     10373     10374     10376     10377     10378     10379
     10373     10375     10373     10378     10373     10376     10378     10380
     10381     10376     10382     10376     10383     10378     10384     10378
     10385     10386     10388     10389     10390     10391     10385     10387
     10385     10390     10385     10388     10390     10392     10393     10388
     10394     10388     10395     10390     10396     10390     10397     10398
     10400     10401     10402     10403     10397     10399     10397     10402
     10397     10400     10402     10404     10405     10400     10406     10400
     10407     10402     10408     10402     10409     10410     10412     10413
     10414     10415     10409     10411     10409     10414     10409     10412
     10414     10416     10417     10412     10418     10412     10419     10414
     10420     10414     10421     10422     10424     10425     10426     10427
     10421     10423     10421     10426     10421     10424     10426     10428
     10429     10424     10430     10424     10431     10426     10432     10426
     10433     10434     10436     10437     10438     10439     10433     10435
     10433     10438     10433     10436     10438     10440     10441     10436
     10442     10436     10443     10438     10444     10438     10445     10446
     10448     10449     10450     10451     10445     10447     10445     10450
     10445     10448     10450     10452     10453     10448     10454     10448
     10455     10450     10456     10450     10457     10458     10460     10461
     10462     10463     10457     10459     10457     10462     10457     10460
     10462     10464     10465     10460     10466     10460     10467     10462
     10468     10462     10469     10470     10472     10473     10474     10475
     10469     10471     10469     10474     10469     10472     10474     10476
     10477     10472     10478     10472     10479     10474     10480     10474
     10481     10482     10484     10485     10486     10487     10481     10483
     10481     10486     10481     10484     10486     10488     10489     10484
     10490     10484     10491     10486     10492     10486     10493     10494
     10496     10497     10498     10499     10493     10495     10493     10498
     10493     10496     10498     10500     10501     10496     10502     10496
     10503     10498     10504     10498     10505     10506     10508     10509
     10510     10511     10505     10507     10505     10510     10505     10508
     10510     10512     10513     10508     10514     10508     10515     10510
     10516     10510     10517     10518     10520     10521     10522     10523
     10517     10519     10517     10522     10517     10520     10522     10524
     10525     10520     10526     10520     10527     10522     10528     10522
     10529     10530     10532     10533     10534     10535     10529     10531
     10529     10534     10529     10532     10534     10536     10537     10532
     10538     10532     10539     10534     10540     10534     10541     10542
     10544     10545     10546     10547     10541     10543     10541     10546
     10541     10544     10546     10548     10549     10544     10550     10544
     10551     10546     10552     10546     10553     10554     10556     10557
     10558     10559     10553     10555     10553     10558     10553     10556
     10558     10560     10561     10556     10562     10556     10563     10558
     10564     10558     10565     10566     10568     10569     10570     10571
     10565     10567     10565     10570     10565     10568     10570     10572
     10573     10568     10574     10568     10575     10570     10576     10570
     10577     10578     10580     10581     10582     10583     10577     10579
     10577     10582     10577     10580     10582     10584     10585     10580
     10586     10580     10587     10582     10588     10582     10589     10590
     10592     10593     10594     10595     10589     10591     10589     10594
     10589     10592     10594     10596     10597     10592     10598     10592
     10599     10594     10600     10594     10601     10602     10604     10605
     10606     10607     10601     10603     10601     10606     10601     10604
     10606     10608     10609     10604     10610     10604     10611     10606
     10612     10606     10613     10614     10616     10617     10618     10619
     10613     10615     10613     10618     10613     10616     10618     10620
     10621     10616     10622     10616     10623     10618     10624     10618
     10625     10626     10628     10629     10630     10631     10625     10627
     10625     10630     10625     10628     10630     10632     10633     10628
     10634     10628     10635     10630     10636     10630     10637     10638
     10640     10641     10642     10643     10637     10639     10637     10642
     10637     10640     10642     10644     10645     10640     10646     10640
     10647     10642     10648     10642     10649     10650     10652     10653
     10654     10655     10649     10651     10649     10654     10649     10652
     10654     10656     10657     10652     10658     10652     10659     10654
     10660     10654     10661     10662     10664     10665     10666     10667
     10661     10663     10661     10666     10661     10664     10666     10668
     10669     10664     10670     10664     10671     10666     10672     10666
     10673     10674     10676     10677     10678     10679     10673     10675
     10673     10678     10673     10676     10678     10680     10681     10676
     10682     10676     10683     10678     10684     10678     10685     10686
     10688     10689     10690     10691     10685     10687     10685     10690
     10685     10688     10690     10692     10693     10688     10694     10688
     10695     10690     10696     10690     10697     10698     10700     10701
     10702     10703     10697     10699     10697     10702     10697     10700
     10702     10704     10705     10700     10706     10700     10707     10702
     10708     10702     10709     10710     10712     10713     10714     10715
     10709     10711     10709     10714     10709     10712     10714     10716
     10717     10712     10718     10712     10719     10714     10720     10714
     10721     10722     10724     10725     10726     10727     10721     10723
     10721     10726     10721     10724     10726     10728     10729     10724
     10730     10724     10731     10726     10732     10726     10733     10734
     10736     10737     10738     10739     10733     10735     10733     10738
     10733     10736     10738     10740     10741     10736     10742     10736
     10743     10738     10744     10738     10745     10746     10748     10749
     10750     10751     10745     10747     10745     10750     10745     10748
     10750     10752     10753     10748     10754     10748     10755     10750
     10756     10750     10757     10758     10760     10761     10762     10763
     10757     10759     10757     10762     10757     10760     10762     10764
     10765     10760     10766     10760     10767     10762     10768     10762
     10769     10770     10772     10773     10774     10775     10769     10771
     10769     10774     10769     10772     10774     10776     10777     10772
     10778     10772     10779     10774     10780     10774     10781     10782
     10784     10785     10786     10787     10781     10783     10781     10786
     10781     10784     10786     10788     10789     10784     10790     10784
     10791     10786     10792     10786     10793     10794     10796     10797
     10798     10799     10793     10795     10793     10798     10793     10796
     10798     10800     10801     10796     10802     10796     10803     10798
     10804     10798     10805     10806     10808     10809     10810     10811
     10805     10807     10805     10810     10805     10808     10810     10812
     10813     10808     10814     10808     10815     10810     10816     10810
     10817     10818     10820     10821     10822     10823     10817     10819
     10817     10822     10817     10820     10822     10824     10825     10820
     10826     10820     10827     10822     10828     10822     10829     10830
     10832     10833     10834     10835     10829     10831     10829     10834
     10829     10832     10834     10836     10837     10832     10838     10832
     10839     10834     10840     10834     10841     10842     10844     10845
     10846     10847     10841     10843     10841     10846     10841     10844
     10846     10848     10849     10844     10850     10844     10851     10846
     10852     10846     10853     10854     10856     10857     10858     10859
     10853     10855     10853     10858     10853     10856     10858     10860
     10861     10856     10862     10856     10863     10858     10864     10858
     10865     10866     10868     10869     10870     10871     10865     10867
     10865     10870     10865     10868     10870     10872     10873     10868
     10874     10868     10875     10870     10876     10870     10877     10878
     10880     10881     10882     10883     10877     10879     10877     10882
     10877     10880     10882     10884     10885     10880     10886     10880
     10887     10882     10888     10882     10889     10890     10892     10893
     10894     10895     10889     10891     10889     10894     10889     10892
     10894     10896     10897     10892     10898     10892     10899     10894
     10900     10894     10901     10902     10904     10905     10906     10907
     10901     10903     10901     10906     10901     10904     10906     10908
     10909     10904     10910     10904     10911     10906     10912     10906
     10913     10914     10916     10917     10918     10919     10913     10915
     10913     10918     10913     10916     10918     10920     10921     10916
     10922     10916     10923     10918     10924     10918     10925     10926
     10928     10929     10930     10931     10925     10927     10925     10930
     10925     10928     10930     10932     10933     10928     10934     10928
     10935     10930     10936     10930     10937     10938     10940     10941
     10942     10943     10937     10939     10937     10942     10937     10940
     10942     10944     10945     10940     10946     10940     10947     10942
     10948     10942     10949     10950     10952     10953     10954     10955
     10949     10951     10949     10954     10949     10952     10954     10956
     10957     10952     10958     10952     10959     10954     10960     10954
     10961     10962     10964     10965     10966     10967     10961     10963
     10961     10966     10961     10964     10966     10968     10969     10964
     10970     10964     10971     10966     10972     10966     10973     10974
     10976     10977     10978     10979     10973     10975     10973     10978
     10973     10976     10978     10980     10981     10976     10982     10976
     10983     10978     10984     10978     10985     10986     10988     10989
     10990     10991     10985     10987     10985     10990     10985     10988
     10990     10992     10993     10988     10994     10988     10995     10990
     10996     10990     10997     10998     11000     11001     11002     11003
     10997     10999     10997     11002     10997     11000     11002     11004
     11005     11000     11006     11000     11007     11002     11008     11002
     11009     11010     11012     11013     11014     11015     11009     11011
     11009     11014     11009     11012     11014     11016     11017     11012
     11018     11012     11019     11014     11020     11014     11021     11022
     11024     11025     11026     11027     11021     11023     11021     11026
     11021     11024     11026     11028     11029     11024     11030     11024
     11031     11026     11032     11026     11033     11034     11036     11037
     11038     11039     11033     11035     11033     11038     11033     11036
     11038     11040     11041     11036     11042     11036     11043     11038
     11044     11038     11045     11046     11048     11049     11050     11051
     11045     11047     11045     11050     11045     11048     11050     11052
     11053     11048     11054     11048     11055     11050     11056     11050
     11057     11058     11060     11061     11062     11063     11057     11059
     11057     11062     11057     11060     11062     11064     11065     11060
     11066     11060     11067     11062     11068     11062     11069     11070
     11072     11073     11074     11075     11069     11071     11069     11074
     11069     11072     11074     11076     11077     11072     11078     11072
     11079     11074     11080     11074     11081     11082     11084     11085
     11086     11087     11081     11083     11081     11086     11081     11084
     11086     11088     11089     11084     11090     11084     11091     11086
     11092     11086     11093     11094     11096     11097     11098     11099
     11093     11095     11093     11098     11093     11096     11098     11100
     11101     11096     11102     11096     11103     11098     11104     11098
     11105     11106     11108     11109     11110     11111     11105     11107
     11105     11110     11105     11108     11110     11112     11113     11108
     11114     11108     11115     11110     11116     11110     11117     11118
     11120     11121     11122     11123     11117     11119     11117     11122
     11117     11120     11122     11124     11125     11120     11126     11120
     11127     11122     11128     11122     11129     11130     11132     11133
     11134     11135     11129     11131     11129     11134     11129     11132
     11134     11136     11137     11132     11138     11132     11139     11134
     11140     11134     11141     11142     11144     11145     11146     11147
     11141     11143     11141     11146     11141     11144     11146     11148
     11149     11144     11150     11144     11151     11146     11152     11146
     11153     11154     11156     11157     11158     11159     11153     11155
     11153     11158     11153     11156     11158     11160     11161     11156
     11162     11156     11163     11158     11164     11158     11165     11166
     11168     11169     11170     11171     11165     11167     11165     11170
     11165     11168     11170     11172     11173     11168     11174     11168
     11175     11170     11176     11170     11177     11178     11180     11181
     11182     11183     11177     11179     11177     11182     11177     11180
     11182     11184     11185     11180     11186     11180     11187     11182
     11188     11182     11189     11190     11192     11193     11194     11195
     11189     11191     11189     11194     11189     11192     11194     11196
     11197     11192     11198     11192     11199     11194     11200     11194
     11201     11202     11204     11205     11206     11207     11201     11203
     11201     11206     11201     11204     11206     11208     11209     11204
     11210     11204     11211     11206     11212     11206     11213     11214
     11216     11217     11218     11219     11213     11215     11213     11218
     11213     11216     11218     11220     11221     11216     11222     11216
     11223     11218     11224     11218     11225     11226     11228     11229
     11230     11231     11225     11227     11225     11230     11225     11228
     11230     11232     11233     11228     11234     11228     11235     11230
     11236     11230     11237     11238     11240     11241     11242     11243
     11237     11239     11237     11242     11237     11240     11242     11244
     11245     11240     11246     11240     11247     11242     11248     11242
     11249     11250     11252     11253     11254     11255     11249     11251
     11249     11254     11249     11252     11254     11256     11257     11252
     11258     11252     11259     11254     11260     11254     11261     11262
     11264     11265     11266     11267     11261     11263     11261     11266
     11261     11264     11266     11268     11269     11264     11270     11264
     11271     11266     11272     11266     11273     11274     11276     11277
     11278     11279     11273     11275     11273     11278     11273     11276
     11278     11280     11281     11276     11282     11276     11283     11278
     11284     11278     11285     11286     11288     11289     11290     11291
     11285     11287     11285     11290     11285     11288     11290     11292
     11293     11288     11294     11288     11295     11290     11296     11290
     11297     11298     11300     11301     11302     11303     11297     11299
     11297     11302     11297     11300     11302     11304     11305     11300
     11306     11300     11307     11302     11308     11302     11309     11310
     11312     11313     11314     11315     11309     11311     11309     11314
     11309     11312     11314     11316     11317     11312     11318     11312
     11319     11314     11320     11314     11321     11322     11324     11325
     11326     11327     11321     11323     11321     11326     11321     11324
     11326     11328     11329     11324     11330     11324     11331     11326
     11332     11326     11333     11334     11336     11337     11338     11339
     11333     11335     11333     11338     11333     11336     11338     11340
     11341     11336     11342     11336     11343     11338     11344     11338
     11345     11346     11348     11349     11350     11351     11345     11347
     11345     11350     11345     11348     11350     11352     11353     11348
     11354     11348     11355     11350     11356     11350     11357     11358
     11360     11361     11362     11363     11357     11359     11357     11362
     11357     11360     11362     11364     11365     11360     11366     11360
     11367     11362     11368     11362     11369     11370     11372     11373
     11374     11375     11369     11371     11369     11374     11369     11372
     11374     11376     11377     11372     11378     11372     11379     11374
     11380     11374     11381     11382     11384     11385     11386     11387
     11381     11383     11381     11386     11381     11384     11386     11388
     11389     11384     11390     11384     11391     11386     11392     11386
     11393     11394     11396     11397     11398     11399     11393     11395
     11393     11398     11393     11396     11398     11400     11401     11396
     11402     11396     11403     11398     11404     11398     11405     11406
     11408     11409     11410     11411     11405     11407     11405     11410
     11405     11408     11410     11412     11413     11408     11414     11408
     11415     11410     11416     11410     11417     11418     11420     11421
     11422     11423     11417     11419     11417     11422     11417     11420
     11422     11424     11425     11420     11426     11420     11427     11422
     11428     11422     11429     11430     11432     11433     11434     11435
     11429     11431     11429     11434     11429     11432     11434     11436
     11437     11432     11438     11432     11439     11434     11440     11434
     11441     11442     11444     11445     11446     11447     11441     11443
     11441     11446     11441     11444     11446     11448     11449     11444
     11450     11444     11451     11446     11452     11446     11453     11454
     11456     11457     11458     11459     11453     11455     11453     11458
     11453     11456     11458     11460     11461     11456     11462     11456
     11463     11458     11464     11458     11465     11466     11468     11469
     11470     11471     11465     11467     11465     11470     11465     11468
     11470     11472     11473     11468     11474     11468     11475     11470
     11476     11470     11477     11478     11480     11481     11482     11483
     11477     11479     11477     11482     11477     11480     11482     11484
     11485     11480     11486     11480     11487     11482     11488     11482
     11489     11490     11492     11493     11494     11495     11489     11491
     11489     11494     11489     11492     11494     11496     11497     11492
     11498     11492     11499     11494     11500     11494     11501     11502
     11504     11505     11506     11507     11501     11503     11501     11506
     11501     11504     11506     11508     11509     11504     11510     11504
     11511     11506     11512     11506     11513     11514     11516     11517
     11518     11519     11513     11515     11513     11518     11513     11516
     11518     11520     11521     11516     11522     11516     11523     11518
     11524     11518     11525     11526     11528     11529     11530     11531
     11525     11527     11525     11530     11525     11528     11530     11532
     11533     11528     11534     11528     11535     11530     11536     11530
     11537     11538     11540     11541     11542     11543     11537     11539
     11537     11542     11537     11540     11542     11544     11545     11540
     11546     11540     11547     11542     11548     11542     11549     11550
     11552     11553     11554     11555     11549     11551     11549     11554
     11549     11552     11554     11556     11557     11552     11558     11552
     11559     11554     11560     11554     11561     11562     11564     11565
     11566     11567     11561     11563     11561     11566     11561     11564
     11566     11568     11569     11564     11570     11564     11571     11566
     11572     11566     11573     11574     11576     11577     11578     11579
     11573     11575     11573     11578     11573     11576     11578     11580
     11581     11576     11582     11576     11583     11578     11584     11578
     11585     11586     11588     11589     11590     11591     11585     11587
     11585     11590     11585     11588     11590     11592     11593     11588
     11594     11588     11595     11590     11596     11590     11597     11598
     11600     11601     11602     11603     11597     11599     11597     11602
     11597     11600     11602     11604     11605     11600     11606     11600
     11607     11602     11608     11602     11609     11610     11612     11613
     11614     11615     11609     11611     11609     11614     11609     11612
     11614     11616     11617     11612     11618     11612     11619     11614
     11620     11614     11621     11622     11624     11625     11626     11627
     11621     11623     11621     11626     11621     11624     11626     11628
     11629     11624     11630     11624     11631     11626     11632     11626
     11633     11634     11636     11637     11638     11639     11633     11635
     11633     11638     11633     11636     11638     11640     11641     11636
     11642     11636     11643     11638     11644     11638     11645     11646
     11648     11649     11650     11651     11645     11647     11645     11650
     11645     11648     11650     11652     11653     11648     11654     11648
     11655     11650     11656     11650     11657     11658     11660     11661
     11662     11663     11657     11659     11657     11662     11657     11660
     11662     11664     11665     11660     11666     11660     11667     11662
     11668     11662     11669     11670     11672     11673     11674     11675
     11669     11671     11669     11674     11669     11672     11674     11676
     11677     11672     11678     11672     11679     11674     11680     11674
     11681     11682     11684     11685     11686     11687     11681     11683
     11681     11686     11681     11684     11686     11688     11689     11684
     11690     11684     11691     11686     11692     11686     11693     11694
     11696     11697     11698     11699     11693     11695     11693     11698
     11693     11696     11698     11700     11701     11696     11702     11696
     11703     11698     11704     11698     11705     11706     11708     11709
     11710     11711     11705     11707     11705     11710     11705     11708
     11710     11712     11713     11708     11714     11708     11715     11710
     11716     11710     11717     11718     11720     11721     11722     11723
     11717     11719     11717     11722     11717     11720     11722     11724
     11725     11720     11726     11720     11727     11722     11728     11722
     11729     11730     11732     11733     11734     11735     11729     11731
     11729     11734     11729     11732     11734     11736     11737     11732
     11738     11732     11739     11734     11740     11734     11741     11742
     11744     11745     11746     11747     11741     11743     11741     11746
     11741     11744     11746     11748     11749     11744     11750     11744
     11751     11746     11752     11746     11753     11754     11756     11757
     11758     11759     11753     11755     11753     11758     11753     11756
     11758     11760     11761     11756     11762     11756     11763     11758
     11764     11758     11765     11766     11768     11769     11770     11771
     11765     11767     11765     11770     11765     11768     11770     11772
     11773     11768     11774     11768     11775     11770     11776     11770
     11777     11778     11780     11781     11782     11783     11777     11779
     11777     11782     11777     11780     11782     11784     11785     11780
     11786     11780     11787     11782     11788     11782     11789     11790
     11792     11793     11794     11795     11789     11791     11789     11794
     11789     11792     11794     11796     11797     11792     11798     11792
     11799     11794     11800     11794     11801     11802     11804     11805
     11806     11807     11801     11803     11801     11806     11801     11804
     11806     11808     11809     11804     11810     11804     11811     11806
     11812     11806     11813     11814     11816     11817     11818     11819
     11813     11815     11813     11818     11813     11816     11818     11820
     11821     11816     11822     11816     11823     11818     11824     11818
     11825     11826     11828     11829     11830     11831     11825     11827
     11825     11830     11825     11828     11830     11832     11833     11828
     11834     11828     11835     11830     11836     11830     11837     11838
     11840     11841     11842     11843     11837     11839     11837     11842
     11837     11840     11842     11844     11845     11840     11846     11840
     11847     11842     11848     11842     11849     11850     11852     11853
     11854     11855     11849     11851     11849     11854     11849     11852
     11854     11856     11857     11852     11858     11852     11859     11854
     11860     11854     11861     11862     11864     11865     11866     11867
     11861     11863     11861     11866     11861     11864     11866     11868
     11869     11864     11870     11864     11871     11866     11872     11866
     11873     11874     11876     11877     11878     11879     11873     11875
     11873     11878     11873     11876     11878     11880     11881     11876
     11882     11876     11883     11878     11884     11878     11885     11886
     11888     11889     11890     11891     11885     11887     11885     11890
     11885     11888     11890     11892     11893     11888     11894     11888
     11895     11890     11896     11890     11897     11898     11900     11901
     11902     11903     11897     11899     11897     11902     11897     11900
     11902     11904     11905     11900     11906     11900     11907     11902
     11908     11902     11909     11910     11912     11913     11914     11915
     11909     11911     11909     11914     11909     11912     11914     11916
     11917     11912     11918     11912     11919     11914     11920     11914
     11921     11922     11924     11925     11926     11927     11921     11923
     11921     11926     11921     11924     11926     11928     11929     11924
     11930     11924     11931     11926     11932     11926     11933     11934
     11936     11937     11938     11939     11933     11935     11933     11938
     11933     11936     11938     11940     11941     11936     11942     11936
     11943     11938     11944     11938     11945     11946     11948     11949
     11950     11951     11945     11947     11945     11950     11945     11948
     11950     11952     11953     11948     11954     11948     11955     11950
     11956     11950     11957     11958     11960     11961     11962     11963
     11957     11959     11957     11962     11957     11960     11962     11964
     11965     11960     11966     11960     11967     11962     11968     11962
     11969     11970     11972     11973     11974     11975     11969     11971
     11969     11974     11969     11972     11974     11976     11977     11972
     11978     11972     11979     11974     11980     11974     11981     11982
     11984     11985     11986     11987     11981     11983     11981     11986
     11981     11984     11986     11988     11989     11984     11990     11984
     11991     11986     11992     11986     11993     11994     11996     11997
     11998     11999     11993     11995     11993     11998     11993     11996
     11998     12000     12001     11996     12002     11996     12003     11998
     12004     11998     12005     12006     12008     12009     12010     12011
     12005     12007     12005     12010     12005     12008     12010     12012
     12013     12008     12014     12008     12015     12010     12016     12010
     12017     12018     12020     12021     12022     12023     12017     12019
     12017     12022     12017     12020     12022     12024     12025     12020
     12026     12020     12027     12022     12028     12022     12029     12030
     12032     12033     12034     12035     12029     12031     12029     12034
     12029     12032     12034     12036     12037     12032     12038     12032
     12039     12034     12040     12034     12041     12042     12044     12045
     12046     12047     12041     12043     12041     12046     12041     12044
     12046     12048     12049     12044     12050     12044     12051     12046
     12052     12046     12053     12054     12056     12057     12058     12059
     12053     12055     12053     12058     12053     12056     12058     12060
     12061     12056     12062     12056     12063     12058     12064     12058
     12065     12066     12068     12069     12070     12071     12065     12067
     12065     12070     12065     12068     12070     12072     12073     12068
     12074     12068     12075     12070     12076     12070     12077     12078
     12080     12081     12082     12083     12077     12079     12077     12082
     12077     12080     12082     12084     12085     12080     12086     12080
     12087     12082     12088     12082     12089     12090     12092     12093
     12094     12095     12089     12091     12089     12094     12089     12092
     12094     12096     12097     12092     12098     12092     12099     12094
     12100     12094     12101     12102     12104     12105     12106     12107
     12101     12103     12101     12106     12101     12104     12106     12108
     12109     12104     12110     12104     12111     12106     12112     12106
     12113     12114     12116     12117     12118     12119     12113     12115
     12113     12118     12113     12116     12118     12120     12121     12116
     12122     12116     12123     12118     12124     12118     12125     12126
     12128     12129     12130     12131     12125     12127     12125     12130
     12125     12128     12130     12132     12133     12128     12134     12128
     12135     12130     12136     12130     12137     12138     12140     12141
     12142     12143     12137     12139     12137     12142     12137     12140
     12142     12144     12145     12140     12146     12140     12147     12142
     12148     12142     12149     12150     12152     12153     12154     12155
     12149     12151     12149     12154     12149     12152     12154     12156
     12157     12152     12158     12152     12159     12154     12160     12154
     12161     12162     12164     12165     12166     12167     12161     12163
     12161     12166     12161     12164     12166     12168     12169     12164
     12170     12164     12171     12166     12172     12166     12173     12174
     12176     12177     12178     12179     12173     12175     12173     12178
     12173     12176     12178     12180     12181     12176     12182     12176
     12183     12178     12184     12178     12185     12186     12188     12189
     12190     12191     12185     12187     12185     12190     12185     12188
     12190     12192     12193     12188     12194     12188     12195     12190
     12196     12190     12197     12198     12200     12201     12202     12203
     12197     12199     12197     12202     12197     12200     12202     12204
     12205     12200     12206     12200     12207     12202     12208     12202
     12209     12210     12212     12213     12214     12215     12209     12211
     12209     12214     12209     12212     12214     12216     12217     12212
     12218     12212     12219     12214     12220     12214     12221     12222
     12224     12225     12226     12227     12221     12223     12221     12226
     12221     12224     12226     12228     12229     12224     12230     12224
     12231     12226     12232     12226     12233     12234     12236     12237
     12238     12239     12233     12235     12233     12238     12233     12236
     12238     12240     12241     12236     12242     12236     12243     12238
     12244     12238     12245     12246     12248     12249     12250     12251
     12245     12247     12245     12250     12245     12248     12250     12252
     12253     12248     12254     12248     12255     12250     12256     12250
     12257     12258     12260     12261     12262     12263     12257     12259
     12257     12262     12257     12260     12262     12264     12265     12260
     12266     12260     12267     12262     12268     12262     12269     12270
     12272     12273     12274     12275     12269     12271     12269     12274
     12269     12272     12274     12276     12277     12272     12278     12272
     12279     12274     12280     12274     12281     12282     12284     12285
     12286     12287     12281     12283     12281     12286     12281     12284
     12286     12288     12289     12284     12290     12284     12291     12286
     12292     12286     12293     12294     12296     12297     12298     12299
     12293     12295     12293     12298     12293     12296     12298     12300
     12301     12296     12302     12296     12303     12298     12304     12298
     12305     12306     12308     12309     12310     12311     12305     12307
     12305     12310     12305     12308     12310     12312     12313     12308
     12314     12308     12315     12310     12316     12310     12317     12318
     12320     12321     12322     12323     12317     12319     12317     12322
     12317     12320     12322     12324     12325     12320     12326     12320
     12327     12322     12328     12322     12329     12330     12332     12333
     12334     12335     12329     12331     12329     12334     12329     12332
     12334     12336     12337     12332     12338     12332     12339     12334
     12340     12334     12341     12342     12344     12345     12346     12347
     12341     12343     12341     12346     12341     12344     12346     12348
     12349     12344     12350     12344     12351     12346     12352     12346
     12353     12354     12356     12357     12358     12359     12353     12355
     12353     12358     12353     12356     12358     12360     12361     12356
     12362     12356     12363     12358     12364     12358     12365     12366
     12368     12369     12370     12371     12365     12367     12365     12370
     12365     12368     12370     12372     12373     12368     12374     12368
     12375     12370     12376     12370     12377     12378     12380     12381
     12382     12383     12377     12379     12377     12382     12377     12380
     12382     12384     12385     12380     12386     12380     12387     12382
     12388     12382     12389     12390     12392     12393     12394     12395
     12389     12391     12389     12394     12389     12392     12394     12396
     12397     12392     12398     12392     12399     12394     12400     12394
     12401     12402     12404     12405     12406     12407     12401     12403
     12401     12406     12401     12404     12406     12408     12409     12404
     12410     12404     12411     12406     12412     12406     12413     12414
     12416     12417     12418     12419     12413     12415     12413     12418
     12413     12416     12418     12420     12421     12416     12422     12416
     12423     12418     12424     12418     12425     12426     12428     12429
     12430     12431     12425     12427     12425     12430     12425     12428
     12430     12432     12433     12428     12434     12428     12435     12430
     12436     12430     12437     12438     12440     12441     12442     12443
     12437     12439     12437     12442     12437     12440     12442     12444
     12445     12440     12446     12440     12447     12442     12448     12442
     12449     12450     12452     12453     12454     12455     12449     12451
     12449     12454     12449     12452     12454     12456     12457     12452
     12458     12452     12459     12454     12460     12454     12461     12462
     12464     12465     12466     12467     12461     12463     12461     12466
     12461     12464     12466     12468     12469     12464     12470     12464
     12471     12466     12472     12466     12473     12474     12476     12477
     12478     12479     12473     12475     12473     12478     12473     12476
     12478     12480     12481     12476     12482     12476     12483     12478
     12484     12478     12485     12486     12488     12489     12490     12491
     12485     12487     12485     12490     12485     12488     12490     12492
     12493     12488     12494     12488     12495     12490     12496     12490
     12497     12498     12500     12501     12502     12503     12497     12499
     12497     12502     12497     12500     12502     12504     12505     12500
     12506     12500     12507     12502     12508     12502     12509     12510
     12512     12513     12514     12515     12509     12511     12509     12514
     12509     12512     12514     12516     12517     12512     12518     12512
     12519     12514     12520     12514     12521     12522     12524     12525
     12526     12527     12521     12523     12521     12526     12521     12524
     12526     12528     12529     12524     12530     12524     12531     12526
     12532     12526     12533     12534     12536     12537     12538     12539
     12533     12535     12533     12538     12533     12536     12538     12540
     12541     12536     12542     12536     12543     12538     12544     12538
     12545     12546     12548     12549     12550     12551     12545     12547
     12545     12550     12545     12548     12550     12552     12553     12548
     12554     12548     12555     12550     12556     12550     12557     12558
     12560     12561     12562     12563     12557     12559     12557     12562
     12557     12560     12562     12564     12565     12560     12566     12560
     12567     12562     12568     12562     12569     12570     12572     12573
     12574     12575     12569     12571     12569     12574     12569     12572
     12574     12576     12577     12572     12578     12572     12579     12574
     12580     12574     12581     12582     12584     12585     12586     12587
     12581     12583     12581     12586     12581     12584     12586     12588
     12589     12584     12590     12584     12591     12586     12592     12586
     12593     12594     12596     12597     12598     12599     12593     12595
     12593     12598     12593     12596     12598     12600     12601     12596
     12602     12596     12603     12598     12604     12598     12605     12606
     12608     12609     12610     12611     12605     12607     12605     12610
     12605     12608     12610     12612     12613     12608     12614     12608
     12615     12610     12616     12610     12617     12618     12620     12621
     12622     12623     12617     12619     12617     12622     12617     12620
     12622     12624     12625     12620     12626     12620     12627     12622
     12628     12622     12629     12630     12632     12633     12634     12635
     12629     12631     12629     12634     12629     12632     12634     12636
     12637     12632     12638     12632     12639     12634     12640     12634
     12641     12642     12644     12645     12646     12647     12641     12643
     12641     12646     12641     12644     12646     12648     12649     12644
     12650     12644     12651     12646     12652     12646     12653     12654
     12656     12657     12658     12659     12653     12655     12653     12658
     12653     12656     12658     12660     12661     12656     12662     12656
     12663     12658     12664     12658     12665     12666     12668     12669
     12670     12671     12665     12667     12665     12670     12665     12668
     12670     12672     12673     12668     12674     12668     12675     12670
     12676     12670     12677     12678     12680     12681     12682     12683
     12677     12679     12677     12682     12677     12680     12682     12684
     12685     12680     12686     12680     12687     12682     12688     12682
     12689     12690     12692     12693     12694     12695     12689     12691
     12689     12694     12689     12692     12694     12696     12697     12692
     12698     12692     12699     12694     12700     12694     12701     12702
     12704     12705     12706     12707     12701     12703     12701     12706
     12701     12704     12706     12708     12709     12704     12710     12704
     12711     12706     12712     12706     12713     12714     12716     12717
     12718     12719     12713     12715     12713     12718     12713     12716
     12718     12720     12721     12716     12722     12716     12723     12718
     12724     12718     12725     12726     12728     12729     12730     12731
     12725     12727     12725     12730     12725     12728     12730     12732
     12733     12728     12734     12728     12735     12730     12736     12730
     12737     12738     12740     12741     12742     12743     12737     12739
     12737     12742     12737     12740     12742     12744     12745     12740
     12746     12740     12747     12742     12748     12742     12749     12750
     12752     12753     12754     12755     12749     12751     12749     12754
     12749     12752     12754     12756     12757     12752     12758     12752
     12759     12754     12760     12754     12761     12762     12764     12765
     12766     12767     12761     12763     12761     12766     12761     12764
     12766     12768     12769     12764     12770     12764     12771     12766
     12772     12766     12773     12774     12776     12777     12778     12779
     12773     12775     12773     12778     12773     12776     12778     12780
     12781     12776     12782     12776     12783     12778     12784     12778
     12785     12786     12788     12789     12790     12791     12785     12787
     12785     12790     12785     12788     12790     12792     12793     12788
     12794     12788     12795     12790     12796     12790     12797     12798
     12800     12801     12802     12803     12797     12799     12797     12802
     12797     12800     12802     12804     12805     12800     12806     12800
     12807     12802     12808     12802     12809     12810     12812     12813
     12814     12815     12809     12811     12809     12814     12809     12812
     12814     12816     12817     12812     12818     12812     12819     12814
     12820     12814     12821     12822     12824     12825     12826     12827
     12821     12823     12821     12826     12821     12824     12826     12828
     12829     12824     12830     12824     12831     12826     12832     12826
     12833     12834     12836     12837     12838     12839     12833     12835
     12833     12838     12833     12836     12838     12840     12841     12836
     12842     12836     12843     12838     12844     12838     12845     12846
     12848     12849     12850     12851     12845     12847     12845     12850
     12845     12848     12850     12852     12853     12848     12854     12848
     12855     12850     12856     12850     12857     12858     12860     12861
     12862     12863     12857     12859     12857     12862     12857     12860
     12862     12864     12865     12860     12866     12860     12867     12862
     12868     12862     12869     12870     12872     12873     12874     12875
     12869     12871     12869     12874     12869     12872     12874     12876
     12877     12872     12878     12872     12879     12874     12880     12874
     12881     12882     12884     12885     12886     12887     12881     12883
     12881     12886     12881     12884     12886     12888     12889     12884
     12890     12884     12891     12886     12892     12886     12893     12894
     12896     12897     12898     12899     12893     12895     12893     12898
     12893     12896     12898     12900     12901     12896     12902     12896
     12903     12898     12904     12898     12905     12906     12908     12909
     12910     12911     12905     12907     12905     12910     12905     12908
     12910     12912     12913     12908     12914     12908     12915     12910
     12916     12910     12917     12918     12920     12921     12922     12923
     12917     12919     12917     12922     12917     12920     12922     12924
     12925     12920     12926     12920     12927     12922     12928     12922
     12929     12930     12932     12933     12934     12935     12929     12931
     12929     12934     12929     12932     12934     12936     12937     12932
     12938     12932     12939     12934     12940     12934     12941     12942
     12944     12945     12946     12947     12941     12943     12941     12946
     12941     12944     12946     12948     12949     12944     12950     12944
     12951     12946     12952     12946     12953     12954     12956     12957
     12958     12959     12953     12955     12953     12958     12953     12956
     12958     12960     12961     12956     12962     12956     12963     12958
     12964     12958     12965     12966     12968     12969     12970     12971
     12965     12967     12965     12970     12965     12968     12970     12972
     12973     12968     12974     12968     12975     12970     12976     12970
     12977     12978     12980     12981     12982     12983     12977     12979
     12977     12982     12977     12980     12982     12984     12985     12980
     12986     12980     12987     12982     12988     12982     12989     12990
     12992     12993     12994     12995     12989     12991     12989     12994
     12989     12992     12994     12996     12997     12992     12998     12992
     12999     12994     13000     12994     13001     13002     13004     13005
     13006     13007     13001     13003     13001     13006     13001     13004
     13006     13008     13009     13004     13010     13004     13011     13006
     13012     13006     13013     13014     13016     13017     13018     13019
     13013     13015     13013     13018     13013     13016     13018     13020
     13021     13016     13022     13016     13023     13018     13024     13018
     13025     13026     13028     13029     13030     13031     13025     13027
     13025     13030     13025     13028     13030     13032     13033     13028
     13034     13028     13035     13030     13036     13030     13037     13038
     13040     13041     13042     13043     13037     13039     13037     13042
     13037     13040     13042     13044     13045     13040     13046     13040
     13047     13042     13048     13042     13049     13050     13052     13053
     13054     13055     13049     13051     13049     13054     13049     13052
     13054     13056     13057     13052     13058     13052     13059     13054
     13060     13054     13061     13062     13064     13065     13066     13067
     13061     13063     13061     13066     13061     13064     13066     13068
     13069     13064     13070     13064     13071     13066     13072     13066
     13073     13074     13076     13077     13078     13079     13073     13075
     13073     13078     13073     13076     13078     13080     13081     13076
     13082     13076     13083     13078     13084     13078     13085     13086
     13088     13089     13090     13091     13085     13087     13085     13090
     13085     13088     13090     13092     13093     13088     13094     13088
     13095     13090     13096     13090     13097     13098     13100     13101
     13102     13103     13097     13099     13097     13102     13097     13100
     13102     13104     13105     13100     13106     13100     13107     13102
     13108     13102     13109     13110     13112     13113     13114     13115
     13109     13111     13109     13114     13109     13112     13114     13116
     13117     13112     13118     13112     13119     13114     13120     13114
     13121     13122     13124     13125     13126     13127     13121     13123
     13121     13126     13121     13124     13126     13128     13129     13124
     13130     13124     13131     13126     13132     13126     13133     13134
     13136     13137     13138     13139     13133     13135     13133     13138
     13133     13136     13138     13140     13141     13136     13142     13136
     13143     13138     13144     13138     13145     13146     13148     13149
     13150     13151     13145     13147     13145     13150     13145     13148
     13150     13152     13153     13148     13154     13148     13155     13150
     13156     13150     13157     13158     13160     13161     13162     13163
     13157     13159     13157     13162     13157     13160     13162     13164
     13165     13160     13166     13160     13167     13162     13168     13162
     13169     13170     13172     13173     13174     13175     13169     13171
     13169     13174     13169     13172     13174     13176     13177     13172
     13178     13172     13179     13174     13180     13174     13181     13182
     13184     13185     13186     13187     13181     13183     13181     13186
     13181     13184     13186     13188     13189     13184     13190     13184
     13191     13186     13192     13186     13193     13194     13196     13197
     13198     13199     13193     13195     13193     13198     13193     13196
     13198     13200     13201     13196     13202     13196     13203     13198
     13204     13198     13205     13206     13208     13209     13210     13211
     13205     13207     13205     13210     13205     13208     13210     13212
     13213     13208     13214     13208     13215     13210     13216     13210
     13217     13218     13220     13221     13222     13223     13217     13219
     13217     13222     13217     13220     13222     13224     13225     13220
     13226     13220     13227     13222     13228     13222     13229     13230
     13232     13233     13234     13235     13229     13231     13229     13234
     13229     13232     13234     13236     13237     13232     13238     13232
     13239     13234     13240     13234     13241     13242     13244     13245
     13246     13247     13241     13243     13241     13246     13241     13244
     13246     13248     13249     13244     13250     13244     13251     13246
     13252     13246     13253     13254     13256     13257     13258     13259
     13253     13255     13253     13258     13253     13256     13258     13260
     13261     13256     13262     13256     13263     13258     13264     13258
     13265     13266     13268     13269     13270     13271     13265     13267
     13265     13270     13265     13268     13270     13272     13273     13268
     13274     13268     13275     13270     13276     13270     13277     13278
     13280     13281     13282     13283     13277     13279     13277     13282
     13277     13280     13282     13284     13285     13280     13286     13280
     13287     13282     13288     13282     13289     13290     13292     13293
     13294     13295     13289     13291     13289     13294     13289     13292
     13294     13296     13297     13292     13298     13292     13299     13294
     13300     13294     13301     13302     13304     13305     13306     13307
     13301     13303     13301     13306     13301     13304     13306     13308
     13309     13304     13310     13304     13311     13306     13312     13306
     13313     13314     13316     13317     13318     13319     13313     13315
     13313     13318     13313     13316     13318     13320     13321     13316
     13322     13316     13323     13318     13324     13318     13325     13326
     13328     13329     13330     13331     13325     13327     13325     13330
     13325     13328     13330     13332     13333     13328     13334     13328
     13335     13330     13336     13330     13337     13338     13340     13341
     13342     13343     13337     13339     13337     13342     13337     13340
     13342     13344     13345     13340     13346     13340     13347     13342
     13348     13342     13349     13350     13352     13353     13354     13355
     13349     13351     13349     13354     13349     13352     13354     13356
     13357     13352     13358     13352     13359     13354     13360     13354
     13361     13362     13364     13365     13366     13367     13361     13363
     13361     13366     13361     13364     13366     13368     13369     13364
     13370     13364     13371     13366     13372     13366     13373     13374
     13376     13377     13378     13379     13373     13375     13373     13378
     13373     13376     13378     13380     13381     13376     13382     13376
     13383     13378     13384     13378     13385     13386     13388     13389
     13390     13391     13385     13387     13385     13390     13385     13388
     13390     13392     13393     13388     13394     13388     13395     13390
     13396     13390     13397     13398     13400     13401     13402     13403
     13397     13399     13397     13402     13397     13400     13402     13404
     13405     13400     13406     13400     13407     13402     13408     13402
     13409     13410     13412     13413     13414     13415     13409     13411
     13409     13414     13409     13412     13414     13416     13417     13412
     13418     13412     13419     13414     13420     13414     13421     13422
     13424     13425     13426     13427     13421     13423     13421     13426
     13421     13424     13426     13428     13429     13424     13430     13424
     13431     13426     13432     13426     13433     13434     13436     13437
     13438     13439     13433     13435     13433     13438     13433     13436
     13438     13440     13441     13436     13442     13436     13443     13438
     13444     13438     13445     13446     13448     13449     13450     13451
     13445     13447     13445     13450     13445     13448     13450     13452
     13453     13448     13454     13448     13455     13450     13456     13450
     13457     13458     13460     13461     13462     13463     13457     13459
     13457     13462     13457     13460     13462     13464     13465     13460
     13466     13460     13467     13462     13468     13462     13469     13470
     13472     13473     13474     13475     13469     13471     13469     13474
     13469     13472     13474     13476     13477     13472     13478     13472
     13479     13474     13480     13474     13481     13482     13484     13485
     13486     13487     13481     13483     13481     13486     13481     13484
     13486     13488     13489     13484     13490     13484     13491     13486
     13492     13486     13493     13494     13496     13497     13498     13499
     13493     13495     13493     13498     13493     13496     13498     13500
     13501     13496     13502     13496     13503     13498     13504     13498
     13505     13506     13508     13509     13510     13511     13505     13507
     13505     13510     13505     13508     13510     13512     13513     13508
     13514     13508     13515     13510     13516     13510     13517     13518
     13520     13521     13522     13523     13517     13519     13517     13522
     13517     13520     13522     13524     13525     13520     13526     13520
     13527     13522     13528     13522     13529     13530     13532     13533
     13534     13535     13529     13531     13529     13534     13529     13532
     13534     13536     13537     13532     13538     13532     13539     13534
     13540     13534     13541     13542     13544     13545     13546     13547
     13541     13543     13541     13546     13541     13544     13546     13548
     13549     13544     13550     13544     13551     13546     13552     13546
     13553     13554     13556     13557     13558     13559     13553     13555
     13553     13558     13553     13556     13558     13560     13561     13556
     13562     13556     13563     13558     13564     13558     13565     13566
     13568     13569     13570     13571     13565     13567     13565     13570
     13565     13568     13570     13572     13573     13568     13574     13568
     13575     13570     13576     13570     13577     13578     13580     13581
     13582     13583     13577     13579     13577     13582     13577     13580
     13582     13584     13585     13580     13586     13580     13587     13582
     13588     13582     13589     13590     13592     13593     13594     13595
     13589     13591     13589     13594     13589     13592     13594     13596
     13597     13592     13598     13592     13599     13594     13600     13594
     13601     13602     13604     13605     13606     13607     13601     13603
     13601     13606     13601     13604     13606     13608     13609     13604
     13610     13604     13611     13606     13612     13606     13613     13614
     13616     13617     13618     13619     13613     13615     13613     13618
     13613     13616     13618     13620     13621     13616     13622     13616
     13623     13618     13624     13618     13625     13626     13628     13629
     13630     13631     13625     13627     13625     13630     13625     13628
     13630     13632     13633     13628     13634     13628     13635     13630
     13636     13630     13637     13638     13640     13641     13642     13643
     13637     13639     13637     13642     13637     13640     13642     13644
     13645     13640     13646     13640     13647     13642     13648     13642
     13649     13650     13652     13653     13654     13655     13649     13651
     13649     13654     13649     13652     13654     13656     13657     13652
     13658     13652     13659     13654     13660     13654     13661     13662
     13664     13665     13666     13667     13661     13663     13661     13666
     13661     13664     13666     13668     13669     13664     13670     13664
     13671     13666     13672     13666     13673     13674     13676     13677
     13678     13679     13673     13675     13673     13678     13673     13676
     13678     13680     13681     13676     13682     13676     13683     13678
     13684     13678     13685     13686     13688     13689     13690     13691
     13685     13687     13685     13690     13685     13688     13690     13692
     13693     13688     13694     13688     13695     13690     13696     13690
     13697     13698     13700     13701     13702     13703     13697     13699
     13697     13702     13697     13700     13702     13704     13705     13700
     13706     13700     13707     13702     13708     13702     13709     13710
     13712     13713     13714     13715     13709     13711     13709     13714
     13709     13712     13714     13716     13717     13712     13718     13712
     13719     13714     13720     13714     13721     13722     13724     13725
     13726     13727     13721     13723     13721     13726     13721     13724
     13726     13728     13729     13724     13730     13724     13731     13726
     13732     13726     13733     13734     13736     13737     13738     13739
     13733     13735     13733     13738     13733     13736     13738     13740
     13741     13736     13742     13736     13743     13738     13744     13738
     13745     13746     13748     13749     13750     13751     13745     13747
     13745     13750     13745     13748     13750     13752     13753     13748
     13754     13748     13755     13750     13756     13750     13757     13758
     13760     13761     13762     13763     13757     13759     13757     13762
     13757     13760     13762     13764     13765     13760     13766     13760
     13767     13762     13768     13762     13769     13770     13772     13773
     13774     13775     13769     13771     13769     13774     13769     13772
     13774     13776     13777     13772     13778     13772     13779     13774
     13780     13774     13781     13782     13784     13785     13786     13787
     13781     13783     13781     13786     13781     13784     13786     13788
     13789     13784     13790     13784     13791     13786     13792     13786
     13793     13794     13796     13797     13798     13799     13793     13795
     13793     13798     13793     13796     13798     13800     13801     13796
     13802     13796     13803     13798     13804     13798     13805     13806
     13808     13809     13810     13811     13805     13807     13805     13810
     13805     13808     13810     13812     13813     13808     13814     13808
     13815     13810     13816     13810     13817     13818     13820     13821
     13822     13823     13817     13819     13817     13822     13817     13820
     13822     13824     13825     13820     13826     13820     13827     13822
     13828     13822     13829     13830     13832     13833     13834     13835
     13829     13831     13829     13834     13829     13832     13834     13836
     13837     13832     13838     13832     13839     13834     13840     13834
     13841     13842     13844     13845     13846     13847     13841     13843
     13841     13846     13841     13844     13846     13848     13849     13844
     13850     13844     13851     13846     13852     13846     13853     13854
     13856     13857     13858     13859     13853     13855     13853     13858
     13853     13856     13858     13860     13861     13856     13862     13856
     13863     13858     13864     13858     13865     13866     13868     13869
     13870     13871     13865     13867     13865     13870     13865     13868
     13870     13872     13873     13868     13874     13868     13875     13870
     13876     13870     13877     13878     13880     13881     13882     13883
     13877     13879     13877     13882     13877     13880     13882     13884
     13885     13880     13886     13880     13887     13882     13888     13882
     13889     13890     13892     13893     13894     13895     13889     13891
     13889     13894     13889     13892     13894     13896     13897     13892
     13898     13892     13899     13894     13900     13894     13901     13902
     13904     13905     13906     13907     13901     13903     13901     13906
     13901     13904     13906     13908     13909     13904     13910     13904
     13911     13906     13912     13906     13913     13914     13916     13917
     13918     13919     13913     13915     13913     13918     13913     13916
     13918     13920     13921     13916     13922     13916     13923     13918
     13924     13918     13925     13926     13928     13929     13930     13931
     13925     13927     13925     13930     13925     13928     13930     13932
     13933     13928     13934     13928     13935     13930     13936     13930
     13937     13938     13940     13941     13942     13943     13937     13939
     13937     13942     13937     13940     13942     13944     13945     13940
     13946     13940     13947     13942     13948     13942     13949     13950
     13952     13953     13954     13955     13949     13951     13949     13954
     13949     13952     13954     13956     13957     13952     13958     13952
     13959     13954     13960     13954     13961     13962     13964     13965
     13966     13967     13961     13963     13961     13966     13961     13964
     13966     13968     13969     13964     13970     13964     13971     13966
     13972     13966     13973     13974     13976     13977     13978     13979
     13973     13975     13973     13978     13973     13976     13978     13980
     13981     13976     13982     13976     13983     13978     13984     13978
     13985     13986     13988     13989     13990     13991     13985     13987
     13985     13990     13985     13988     13990     13992     13993     13988
     13994     13988     13995     13990     13996     13990     13997     13998
     14000     14001     14002     14003     13997     13999     13997     14002
     13997     14000     14002     14004     14005     14000     14006     14000
     14007     14002     14008     14002     14009     14010     14012     14013
     14014     14015     14009     14011     14009     14014     14009     14012
     14014     14016     14017     14012     14018     14012     14019     14014
     14020     14014     14021     14022     14024     14025     14026     14027
     14021     14023     14021     14026     14021     14024     14026     14028
     14029     14024     14030     14024     14031     14026     14032     14026
     14033     14034     14036     14037     14038     14039     14033     14035
     14033     14038     14033     14036     14038     14040     14041     14036
     14042     14036     14043     14038     14044     14038     14045     14046
     14048     14049     14050     14051     14045     14047     14045     14050
     14045     14048     14050     14052     14053     14048     14054     14048
     14055     14050     14056     14050     14057     14058     14060     14061
     14062     14063     14057     14059     14057     14062     14057     14060
     14062     14064     14065     14060     14066     14060     14067     14062
     14068     14062     14069     14070     14072     14073     14074     14075
     14069     14071     14069     14074     14069     14072     14074     14076
     14077     14072     14078     14072     14079     14074     14080     14074
     14081     14082     14084     14085     14086     14087     14081     14083
     14081     14086     14081     14084     14086     14088     14089     14084
     14090     14084     14091     14086     14092     14086     14093     14094
     14096     14097     14098     14099     14093     14095     14093     14098
     14093     14096     14098     14100     14101     14096     14102     14096
     14103     14098     14104     14098     14105     14106     14108     14109
     14110     14111     14105     14107     14105     14110     14105     14108
     14110     14112     14113     14108     14114     14108     14115     14110
     14116     14110     14117     14118     14120     14121     14122     14123
     14117     14119     14117     14122     14117     14120     14122     14124
     14125     14120     14126     14120     14127     14122     14128     14122
     14129     14130     14132     14133     14134     14135     14129     14131
     14129     14134     14129     14132     14134     14136     14137     14132
     14138     14132     14139     14134     14140     14134     14141     14142
     14144     14145     14146     14147     14141     14143     14141     14146
     14141     14144     14146     14148     14149     14144     14150     14144
     14151     14146     14152     14146     14153     14154     14156     14157
     14158     14159     14153     14155     14153     14158     14153     14156
     14158     14160     14161     14156     14162     14156     14163     14158
     14164     14158     14165     14166     14168     14169     14170     14171
     14165     14167     14165     14170     14165     14168     14170     14172
     14173     14168     14174     14168     14175     14170     14176     14170
     14177     14178     14180     14181     14182     14183     14177     14179
     14177     14182     14177     14180     14182     14184     14185     14180
     14186     14180     14187     14182     14188     14182     14189     14190
     14192     14193     14194     14195     14189     14191     14189     14194
     14189     14192     14194     14196     14197     14192     14198     14192
     14199     14194     14200     14194     14201     14202     14204     14205
     14206     14207     14201     14203     14201     14206     14201     14204
     14206     14208     14209     14204     14210     14204     14211     14206
     14212     14206     14213     14214     14216     14217     14218     14219
     14213     14215     14213     14218     14213     14216     14218     14220
     14221     14216     14222     14216     14223     14218     14224     14218
     14225     14226     14228     14229     14230     14231     14225     14227
     14225     14230     14225     14228     14230     14232     14233     14228
     14234     14228     14235     14230     14236     14230     14237     14238
     14240     14241     14242     14243     14237     14239     14237     14242
     14237     14240     14242     14244     14245     14240     14246     14240
     14247     14242     14248     14242     14249     14250     14252     14253
     14254     14255     14249     14251     14249     14254     14249     14252
     14254     14256     14257     14252     14258     14252     14259     14254
     14260     14254     14261     14262     14264     14265     14266     14267
     14261     14263     14261     14266     14261     14264     14266     14268
     14269     14264     14270     14264     14271     14266     14272     14266
     14273     14274     14276     14277     14278     14279     14273     14275
     14273     14278     14273     14276     14278     14280     14281     14276
     14282     14276     14283     14278     14284     14278     14285     14286
     14288     14289     14290     14291     14285     14287     14285     14290
     14285     14288     14290     14292     14293     14288     14294     14288
     14295     14290     14296     14290     14297     14298     14300     14301
     14302     14303     14297     14299     14297     14302     14297     14300
     14302     14304     14305     14300     14306     14300     14307     14302
     14308     14302     14309     14310     14312     14313     14314     14315
     14309     14311     14309     14314     14309     14312     14314     14316
     14317     14312     14318     14312     14319     14314     14320     14314
     14321     14322     14324     14325     14326     14327     14321     14323
     14321     14326     14321     14324     14326     14328     14329     14324
     14330     14324     14331     14326     14332     14326     14333     14334
     14336     14337     14338     14339     14333     14335     14333     14338
     14333     14336     14338     14340     14341     14336     14342     14336
     14343     14338     14344     14338     14345     14346     14348     14349
     14350     14351     14345     14347     14345     14350     14345     14348
     14350     14352     14353     14348     14354     14348     14355     14350
     14356     14350     14357     14358     14360     14361     14362     14363
     14357     14359     14357     14362     14357     14360     14362     14364
     14365     14360     14366     14360     14367     14362     14368     14362
     14369     14370     14372     14373     14374     14375     14369     14371
     14369     14374     14369     14372     14374     14376     14377     14372
     14378     14372     14379     14374     14380     14374     14381     14382
     14384     14385     14386     14387     14381     14383     14381     14386
     14381     14384     14386     14388     14389     14384     14390     14384
     14391     14386     14392     14386     14393     14394     14396     14397
     14398     14399     14393     14395     14393     14398     14393     14396
     14398     14400     14401     14396     14402     14396     14403     14398
     14404     14398     14405     14406     14408     14409     14410     14411
     14405     14407     14405     14410     14405     14408     14410     14412
     14413     14408     14414     14408     14415     14410     14416     14410
     14417     14418     14420     14421     14422     14423     14417     14419
     14417     14422     14417     14420     14422     14424     14425     14420
     14426     14420     14427     14422     14428     14422     14429     14430
     14432     14433     14434     14435     14429     14431     14429     14434
     14429     14432     14434     14436     14437     14432     14438     14432
     14439     14434     14440     14434     14441     14442     14444     14445
     14446     14447     14441     14443     14441     14446     14441     14444
     14446     14448     14449     14444     14450     14444     14451     14446
     14452     14446     14453     14454     14456     14457     14458     14459
     14453     14455     14453     14458     14453     14456     14458     14460
     14461     14456     14462     14456     14463     14458     14464     14458
     14465     14466     14468     14469     14470     14471     14465     14467
     14465     14470     14465     14468     14470     14472     14473     14468
     14474     14468     14475     14470     14476     14470     14477     14478
     14480     14481     14482     14483     14477     14479     14477     14482
     14477     14480     14482     14484     14485     14480     14486     14480
     14487     14482     14488     14482     14489     14490     14492     14493
     14494     14495     14489     14491     14489     14494     14489     14492
     14494     14496     14497     14492     14498     14492     14499     14494
     14500     14494     14501     14502     14504     14505     14506     14507
     14501     14503     14501     14506     14501     14504     14506     14508
     14509     14504     14510     14504     14511     14506     14512     14506
     14513     14514     14516     14517     14518     14519     14513     14515
     14513     14518     14513     14516     14518     14520     14521     14516
     14522     14516     14523     14518     14524     14518     14525     14526
     14528     14529     14530     14531     14525     14527     14525     14530
     14525     14528     14530     14532     14533     14528     14534     14528
     14535     14530     14536     14530     14537     14538     14540     14541
     14542     14543     14537     14539     14537     14542     14537     14540
     14542     14544     14545     14540     14546     14540     14547     14542
     14548     14542     14549     14550     14552     14553     14554     14555
     14549     14551     14549     14554     14549     14552     14554     14556
     14557     14552     14558     14552     14559     14554     14560     14554
     14561     14562     14564     14565     14566     14567     14561     14563
     14561     14566     14561     14564     14566     14568     14569     14564
     14570     14564     14571     14566     14572     14566     14573     14574
     14576     14577     14578     14579     14573     14575     14573     14578
     14573     14576     14578     14580     14581     14576     14582     14576
     14583     14578     14584     14578     14585     14586     14588     14589
     14590     14591     14585     14587     14585     14590     14585     14588
     14590     14592     14593     14588     14594     14588     14595     14590
     14596     14590     14597     14598     14600     14601     14602     14603
     14597     14599     14597     14602     14597     14600     14602     14604
     14605     14600     14606     14600     14607     14602     14608     14602
     14609     14610     14612     14613     14614     14615     14609     14611
     14609     14614     14609     14612     14614     14616     14617     14612
     14618     14612     14619     14614     14620     14614     14621     14622
     14624     14625     14626     14627     14621     14623     14621     14626
     14621     14624     14626     14628     14629     14624     14630     14624
     14631     14626     14632     14626     14633     14634     14636     14637
     14638     14639     14633     14635     14633     14638     14633     14636
     14638     14640     14641     14636     14642     14636     14643     14638
     14644     14638     14645     14646     14648     14649     14650     14651
     14645     14647     14645     14650     14645     14648     14650     14652
     14653     14648     14654     14648     14655     14650     14656     14650
     14657     14658     14660     14661     14662     14663     14657     14659
     14657     14662     14657     14660     14662     14664     14665     14660
     14666     14660     14667     14662     14668     14662     14669     14670
     14672     14673     14674     14675     14669     14671     14669     14674
     14669     14672     14674     14676     14677     14672     14678     14672
     14679     14674     14680     14674     14681     14682     14684     14685
     14686     14687     14681     14683     14681     14686     14681     14684
     14686     14688     14689     14684     14690     14684     14691     14686
     14692     14686     14693     14694     14696     14697     14698     14699
     14693     14695     14693     14698     14693     14696     14698     14700
     14701     14696     14702     14696     14703     14698     14704     14698
     14705     14706     14708     14709     14710     14711     14705     14707
     14705     14710     14705     14708     14710     14712     14713     14708
     14714     14708     14715     14710     14716     14710     14717     14718
     14720     14721     14722     14723     14717     14719     14717     14722
     14717     14720     14722     14724     14725     14720     14726     14720
     14727     14722     14728     14722     14729     14730     14732     14733
     14734     14735     14729     14731     14729     14734     14729     14732
     14734     14736     14737     14732     14738     14732     14739     14734
     14740     14734     14741     14742     14744     14745     14746     14747
     14741     14743     14741     14746     14741     14744     14746     14748
     14749     14744     14750     14744     14751     14746     14752     14746
     14753     14754     14756     14757     14758     14759     14753     14755
     14753     14758     14753     14756     14758     14760     14761     14756
     14762     14756     14763     14758     14764     14758     14765     14766
     14768     14769     14770     14771     14765     14767     14765     14770
     14765     14768     14770     14772     14773     14768     14774     14768
     14775     14770     14776     14770     14777     14778     14780     14781
     14782     14783     14777     14779     14777     14782     14777     14780
     14782     14784     14785     14780     14786     14780     14787     14782
     14788     14782     14789     14790     14792     14793     14794     14795
     14789     14791     14789     14794     14789     14792     14794     14796
     14797     14792     14798     14792     14799     14794     14800     14794
     14801     14802     14804     14805     14806     14807     14801     14803
     14801     14806     14801     14804     14806     14808     14809     14804
     14810     14804     14811     14806     14812     14806     14813     14814
     14816     14817     14818     14819     14813     14815     14813     14818
     14813     14816     14818     14820     14821     14816     14822     14816
     14823     14818     14824     14818     14825     14826     14828     14829
     14830     14831     14825     14827     14825     14830     14825     14828
     14830     14832     14833     14828     14834     14828     14835     14830
     14836     14830     14837     14838     14840     14841     14842     14843
     14837     14839     14837     14842     14837     14840     14842     14844
     14845     14840     14846     14840     14847     14842     14848     14842
     14849     14850     14852     14853     14854     14855     14849     14851
     14849     14854     14849     14852     14854     14856     14857     14852
     14858     14852     14859     14854     14860     14854     14861     14862
     14864     14865     14866     14867     14861     14863     14861     14866
     14861     14864     14866     14868     14869     14864     14870     14864
     14871     14866     14872     14866     14873     14874     14876     14877
     14878     14879     14873     14875     14873     14878     14873     14876
     14878     14880     14881     14876     14882     14876     14883     14878
     14884     14878     14885     14886     14888     14889     14890     14891
     14885     14887     14885     14890     14885     14888     14890     14892
     14893     14888     14894     14888     14895     14890     14896     14890
     14897     14898     14900     14901     14902     14903     14897     14899
     14897     14902     14897     14900     14902     14904     14905     14900
     14906     14900     14907     14902     14908     14902     14909     14910
     14912     14913     14914     14915     14909     14911     14909     14914
     14909     14912     14914     14916     14917     14912     14918     14912
     14919     14914     14920     14914     14921     14922     14924     14925
     14926     14927     14921     14923     14921     14926     14921     14924
     14926     14928     14929     14924     14930     14924     14931     14926
     14932     14926     14933     14934     14936     14937     14938     14939
     14933     14935     14933     14938     14933     14936     14938     14940
     14941     14936     14942     14936     14943     14938     14944     14938
     14945     14946     14948     14949     14950     14951     14945     14947
     14945     14950     14945     14948     14950     14952     14953     14948
     14954     14948     14955     14950     14956     14950     14957     14958
     14960     14961     14962     14963     14957     14959     14957     14962
     14957     14960     14962     14964     14965     14960     14966     14960
     14967     14962     14968     14962     14969     14970     14972     14973
     14974     14975     14969     14971     14969     14974     14969     14972
     14974     14976     14977     14972     14978     14972     14979     14974
     14980     14974     14981     14982     14984     14985     14986     14987
     14981     14983     14981     14986     14981     14984     14986     14988
     14989     14984     14990     14984     14991     14986     14992     14986
     14993     14994     14996     14997     14998     14999     14993     14995
     14993     14998     14993     14996     14998     15000     15001     14996
     15002     14996     15003     14998     15004     14998     15005     15006
     15008     15009     15010     15011     15005     15007     15005     15010
     15005     15008     15010     15012     15013     15008     15014     15008
     15015     15010     15016     15010     15017     15018     15020     15021
     15022     15023     15017     15019     15017     15022     15017     15020
     15022     15024     15025     15020     15026     15020     15027     15022
     15028     15022     15029     15030     15032     15033     15034     15035
     15029     15031     15029     15034     15029     15032     15034     15036
     15037     15032     15038     15032     15039     15034     15040     15034
     15041     15042     15044     15045     15046     15047     15041     15043
     15041     15046     15041     15044     15046     15048     15049     15044
     15050     15044     15051     15046     15052     15046     15053     15054
     15056     15057     15058     15059     15053     15055     15053     15058
     15053     15056     15058     15060     15061     15056     15062     15056
     15063     15058     15064     15058     15065     15066     15068     15069
     15070     15071     15065     15067     15065     15070     15065     15068
     15070     15072     15073     15068     15074     15068     15075     15070
     15076     15070     15077     15078     15080     15081     15082     15083
     15077     15079     15077     15082     15077     15080     15082     15084
     15085     15080     15086     15080     15087     15082     15088     15082
     15089     15090     15092     15093     15094     15095     15089     15091
     15089     15094     15089     15092     15094     15096     15097     15092
     15098     15092     15099     15094     15100     15094     15101     15102
     15104     15105     15106     15107     15101     15103     15101     15106
     15101     15104     15106     15108     15109     15104     15110     15104
     15111     15106     15112     15106     15113     15114     15116     15117
     15118     15119     15113     15115     15113     15118     15113     15116
     15118     15120     15121     15116     15122     15116     15123     15118
     15124     15118     15125     15126     15128     15129     15130     15131
     15125     15127     15125     15130     15125     15128     15130     15132
     15133     15128     15134     15128     15135     15130     15136     15130
     15137     15138     15140     15141     15142     15143     15137     15139
     15137     15142     15137     15140     15142     15144     15145     15140
     15146     15140     15147     15142     15148     15142     15149     15150
     15152     15153     15154     15155     15149     15151     15149     15154
     15149     15152     15154     15156     15157     15152     15158     15152
     15159     15154     15160     15154     15161     15162     15164     15165
     15166     15167     15161     15163     15161     15166     15161     15164
     15166     15168     15169     15164     15170     15164     15171     15166
     15172     15166     15173     15174     15176     15177     15178     15179
     15173     15175     15173     15178     15173     15176     15178     15180
     15181     15176     15182     15176     15183     15178     15184     15178
     15185     15186     15188     15189     15190     15191     15185     15187
     15185     15190     15185     15188     15190     15192     15193     15188
     15194     15188     15195     15190     15196     15190     15197     15198
     15200     15201     15202     15203     15197     15199     15197     15202
     15197     15200     15202     15204     15205     15200     15206     15200
     15207     15202     15208     15202     15209     15210     15212     15213
     15214     15215     15209     15211     15209     15214     15209     15212
     15214     15216     15217     15212     15218     15212     15219     15214
     15220     15214     15221     15222     15224     15225     15226     15227
     15221     15223     15221     15226     15221     15224     15226     15228
     15229     15224     15230     15224     15231     15226     15232     15226
     15233     15234     15236     15237     15238     15239     15233     15235
     15233     15238     15233     15236     15238     15240     15241     15236
     15242     15236     15243     15238     15244     15238     15245     15246
     15248     15249     15250     15251     15245     15247     15245     15250
     15245     15248     15250     15252     15253     15248     15254     15248
     15255     15250     15256     15250     15257     15258     15260     15261
     15262     15263     15257     15259     15257     15262     15257     15260
     15262     15264     15265     15260     15266     15260     15267     15262
     15268     15262     15269     15270     15272     15273     15274     15275
     15269     15271     15269     15274     15269     15272     15274     15276
     15277     15272     15278     15272     15279     15274     15280     15274
     15281     15282     15284     15285     15286     15287     15281     15283
     15281     15286     15281     15284     15286     15288     15289     15284
     15290     15284     15291     15286     15292     15286     15293     15294
     15296     15297     15298     15299     15293     15295     15293     15298
     15293     15296     15298     15300     15301     15296     15302     15296
     15303     15298     15304     15298     15305     15306     15308     15309
     15310     15311     15305     15307     15305     15310     15305     15308
     15310     15312     15313     15308     15314     15308     15315     15310
     15316     15310     15317     15318     15320     15321     15322     15323
     15317     15319     15317     15322     15317     15320     15322     15324
     15325     15320     15326     15320     15327     15322     15328     15322
     15329     15330     15332     15333     15334     15335     15329     15331
     15329     15334     15329     15332     15334     15336     15337     15332
     15338     15332     15339     15334     15340     15334     15341     15342
     15344     15345     15346     15347     15341     15343     15341     15346
     15341     15344     15346     15348     15349     15344     15350     15344
     15351     15346     15352     15346     15353     15354     15356     15357
     15358     15359     15353     15355     15353     15358     15353     15356
     15358     15360     15361     15356     15362     15356     15363     15358
     15364     15358     15365     15366     15368     15369     15370     15371
     15365     15367     15365     15370     15365     15368     15370     15372
     15373     15368     15374     15368     15375     15370     15376     15370
     15377     15378     15380     15381     15382     15383     15377     15379
     15377     15382     15377     15380     15382     15384     15385     15380
     15386     15380     15387     15382     15388     15382     15389     15390
     15392     15393     15394     15395     15389     15391     15389     15394
     15389     15392     15394     15396     15397     15392     15398     15392
     15399     15394     15400     15394     15401     15402     15404     15405
     15406     15407     15401     15403     15401     15406     15401     15404
     15406     15408     15409     15404     15410     15404     15411     15406
     15412     15406     15413     15414     15416     15417     15418     15419
     15413     15415     15413     15418     15413     15416     15418     15420
     15421     15416     15422     15416     15423     15418     15424     15418
     15425     15426     15428     15429     15430     15431     15425     15427
     15425     15430     15425     15428     15430     15432     15433     15428
     15434     15428     15435     15430     15436     15430     15437     15438
     15440     15441     15442     15443     15437     15439     15437     15442
     15437     15440     15442     15444     15445     15440     15446     15440
     15447     15442     15448     15442     15449     15450     15452     15453
     15454     15455     15449     15451     15449     15454     15449     15452
     15454     15456     15457     15452     15458     15452     15459     15454
     15460     15454     15461     15462     15464     15465     15466     15467
     15461     15463     15461     15466     15461     15464     15466     15468
     15469     15464     15470     15464     15471     15466     15472     15466
     15473     15474     15476     15477     15478     15479     15473     15475
     15473     15478     15473     15476     15478     15480     15481     15476
     15482     15476     15483     15478     15484     15478     15485     15486
     15488     15489     15490     15491     15485     15487     15485     15490
     15485     15488     15490     15492     15493     15488     15494     15488
     15495     15490     15496     15490     15497     15498     15500     15501
     15502     15503     15497     15499     15497     15502     15497     15500
     15502     15504     15505     15500     15506     15500     15507     15502
     15508     15502     15509     15510     15512     15513     15514     15515
     15509     15511     15509     15514     15509     15512     15514     15516
     15517     15512     15518     15512     15519     15514     15520     15514
     15521     15522     15524     15525     15526     15527     15521     15523
     15521     15526     15521     15524     15526     15528     15529     15524
     15530     15524     15531     15526     15532     15526     15533     15534
     15536     15537     15538     15539     15533     15535     15533     15538
     15533     15536     15538     15540     15541     15536     15542     15536
     15543     15538     15544     15538     15545     15546     15548     15549
     15550     15551     15545     15547     15545     15550     15545     15548
     15550     15552     15553     15548     15554     15548     15555     15550
     15556     15550     15557     15558     15560     15561     15562     15563
     15557     15559     15557     15562     15557     15560     15562     15564
     15565     15560     15566     15560     15567     15562     15568     15562
     15569     15570     15572     15573     15574     15575     15569     15571
     15569     15574     15569     15572     15574     15576     15577     15572
     15578     15572     15579     15574     15580     15574     15581     15582
     15584     15585     15586     15587     15581     15583     15581     15586
     15581     15584     15586     15588     15589     15584     15590     15584
     15591     15586     15592     15586     15593     15594     15596     15597
     15598     15599     15593     15595     15593     15598     15593     15596
     15598     15600     15601     15596     15602     15596     15603     15598
     15604     15598     15605     15606     15608     15609     15610     15611
     15605     15607     15605     15610     15605     15608     15610     15612
     15613     15608     15614     15608     15615     15610     15616     15610
     15617     15618     15620     15621     15622     15623     15617     15619
     15617     15622     15617     15620     15622     15624     15625     15620
     15626     15620     15627     15622     15628     15622     15629     15630
     15632     15633     15634     15635     15629     15631     15629     15634
     15629     15632     15634     15636     15637     15632     15638     15632
     15639     15634     15640     15634     15641     15642     15644     15645
     15646     15647     15641     15643     15641     15646     15641     15644
     15646     15648     15649     15644     15650     15644     15651     15646
     15652     15646     15653     15654     15656     15657     15658     15659
     15653     15655     15653     15658     15653     15656     15658     15660
     15661     15656     15662     15656     15663     15658     15664     15658
     15665     15666     15668     15669     15670     15671     15665     15667
     15665     15670     15665     15668     15670     15672     15673     15668
     15674     15668     15675     15670     15676     15670     15677     15678
     15680     15681     15682     15683     15677     15679     15677     15682
     15677     15680     15682     15684     15685     15680     15686     15680
     15687     15682     15688     15682     15689     15690     15692     15693
     15694     15695     15689     15691     15689     15694     15689     15692
     15694     15696     15697     15692     15698     15692     15699     15694
     15700     15694     15701     15702     15704     15705     15706     15707
     15701     15703     15701     15706     15701     15704     15706     15708
     15709     15704     15710     15704     15711     15706     15712     15706
     15713     15714     15716     15717     15718     15719     15713     15715
     15713     15718     15713     15716     15718     15720     15721     15716
     15722     15716     15723     15718     15724     15718     15725     15726
     15728     15729     15730     15731     15725     15727     15725     15730
     15725     15728     15730     15732     15733     15728     15734     15728
     15735     15730     15736     15730     15737     15738     15740     15741
     15742     15743     15737     15739     15737     15742     15737     15740
     15742     15744     15745     15740     15746     15740     15747     15742
     15748     15742     15749     15750     15752     15753     15754     15755
     15749     15751     15749     15754     15749     15752     15754     15756
     15757     15752     15758     15752     15759     15754     15760     15754
     15761     15762     15764     15765     15766     15767     15761     15763
     15761     15766     15761     15764     15766     15768     15769     15764
     15770     15764     15771     15766     15772     15766     15773     15774
     15776     15777     15778     15779     15773     15775     15773     15778
     15773     15776     15778     15780     15781     15776     15782     15776
     15783     15778     15784     15778     15785     15786     15788     15789
     15790     15791     15785     15787     15785     15790     15785     15788
     15790     15792     15793     15788     15794     15788     15795     15790
     15796     15790     15797     15798     15800     15801     15802     15803
     15797     15799     15797     15802     15797     15800     15802     15804
     15805     15800     15806     15800     15807     15802     15808     15802
     15809     15810     15812     15813     15814     15815     15809     15811
     15809     15814     15809     15812     15814     15816     15817     15812
     15818     15812     15819     15814     15820     15814     15821     15822
     15824     15825     15826     15827     15821     15823     15821     15826
     15821     15824     15826     15828     15829     15824     15830     15824
     15831     15826     15832     15826     15833     15834     15836     15837
     15838     15839     15833     15835     15833     15838     15833     15836
     15838     15840     15841     15836     15842     15836     15843     15838
     15844     15838     15845     15846     15848     15849     15850     15851
     15845     15847     15845     15850     15845     15848     15850     15852
     15853     15848     15854     15848     15855     15850     15856     15850
     15857     15858     15860     15861     15862     15863     15857     15859
     15857     15862     15857     15860     15862     15864     15865     15860
     15866     15860     15867     15862     15868     15862     15869     15870
     15872     15873     15874     15875     15869     15871     15869     15874
     15869     15872     15874     15876     15877     15872     15878     15872
     15879     15874     15880     15874     15881     15882     15884     15885
     15886     15887     15881     15883     15881     15886     15881     15884
     15886     15888     15889     15884     15890     15884     15891     15886
     15892     15886     15893     15894     15896     15897     15898     15899
     15893     15895     15893     15898     15893     15896     15898     15900
     15901     15896     15902     15896     15903     15898     15904     15898
     15905     15906     15908     15909     15910     15911     15905     15907
     15905     15910     15905     15908     15910     15912     15913     15908
     15914     15908     15915     15910     15916     15910     15917     15918
     15920     15921     15922     15923     15917     15919     15917     15922
     15917     15920     15922     15924     15925     15920     15926     15920
     15927     15922     15928     15922     15929     15930     15932     15933
     15934     15935     15929     15931     15929     15934     15929     15932
     15934     15936     15937     15932     15938     15932     15939     15934
     15940     15934     15941     15942     15944     15945     15946     15947
     15941     15943     15941     15946     15941     15944     15946     15948
     15949     15944     15950     15944     15951     15946     15952     15946
     15953     15954     15956     15957     15958     15959     15953     15955
     15953     15958     15953     15956     15958     15960     15961     15956
     15962     15956     15963     15958     15964     15958     15965     15966
     15968     15969     15970     15971     15965     15967     15965     15970
     15965     15968     15970     15972     15973     15968     15974     15968
     15975     15970     15976     15970     15977     15978     15980     15981
     15982     15983     15977     15979     15977     15982     15977     15980
     15982     15984     15985     15980     15986     15980     15987     15982
     15988     15982     15989     15990     15992     15993     15994     15995
     15989     15991     15989     15994     15989     15992     15994     15996
     15997     15992     15998     15992     15999     15994     16000     15994
     16001     16002     16006     16007     16008     16009     16011     16012
     16014     16015     16017     16018     16001     16006     16001     16003
     16001     16004     16001     16005     16006     16008     16006     16014
     16008     16011     16008     16010     16011     16013     16011     16017
     16017     16014     16014     16016     16017     16019     16020     16017
     16021     16022     16026     16027     16028     16029     16031     16032
     16034     16035     16037     16038     16021     16026     16021     16023
     16021     16024     16021     16025     16026     16028     16026     16034
     16028     16031     16028     16030     16031     16033     16031     16037
     16037     16034     16034     16036     16037     16039     16040     16037
     16041     16042     16046     16047     16048     16049     16051     16052
     16054     16055     16057     16058     16041     16046     16041     16043
     16041     16044     16041     16045     16046     16048     16046     16054
     16048     16051     16048     16050     16051     16053     16051     16057
     16057     16054     16054     16056     16057     16059     16060     16057
     16061     16062     16066     16067     16068     16069     16071     16072
     16074     16075     16077     16078     16061     16066     16061     16063
     16061     16064     16061     16065     16066     16068     16066     16074
     16068     16071     16068     16070     16071     16073     16071     16077
     16077     16074     16074     16076     16077     16079     16080     16077
     16081     16082     16086     16087     16088     16089     16091     16092
     16094     16095     16097     16098     16081     16086     16081     16083
     16081     16084     16081     16085     16086     16088     16086     16094
     16088     16091     16088     16090     16091     16093     16091     16097
     16097     16094     16094     16096     16097     16099     16100     16097
     16101     16102     16106     16107     16108     16109     16111     16112
     16114     16115     16117     16118     16101     16106     16101     16103
     16101     16104     16101     16105     16106     16108     16106     16114
     16108     16111     16108     16110     16111     16113     16111     16117
     16117     16114     16114     16116     16117     16119     16120     16117
     16121     16122     16126     16127     16128     16129     16131     16132
     16134     16135     16137     16138     16121     16126     16121     16123
     16121     16124     16121     16125     16126     16128     16126     16134
     16128     16131     16128     16130     16131     16133     16131     16137
     16137     16134     16134     16136     16137     16139     16140     16137
     16141     16142     16146     16147     16148     16149     16151     16152
     16154     16155     16157     16158     16141     16146     16141     16143
     16141     16144     16141     16145     16146     16148     16146     16154
     16148     16151     16148     16150     16151     16153     16151     16157
     16157     16154     16154     16156     16157     16159     16160     16157
     16161     16162     16166     16167     16168     16169     16171     16172
     16174     16175     16177     16178     16161     16166     16161     16163
     16161     16164     16161     16165     16166     16168     16166     16174
     16168     16171     16168     16170     16171     16173     16171     16177
     16177     16174     16174     16176     16177     16179     16180     16177
     16181     16182     16186     16187     16188     16189     16191     16192
     16194     16195     16197     16198     16181     16186     16181     16183
     16181     16184     16181     16185     16186     16188     16186     16194
     16188     16191     16188     16190     16191     16193     16191     16197
     16197     16194     16194     16196     16197     16199     16200     16197
     16201     16202     16206     16207     16208     16209     16211     16212
     16214     16215     16217     16218     16201     16206     16201     16203
     16201     16204     16201     16205     16206     16208     16206     16214
     16208     16211     16208     16210     16211     16213     16211     16217
     16217     16214     16214     16216     16217     16219     16220     16217
     16221     16222     16226     16227     16228     16229     16231     16232
     16234     16235     16237     16238     16221     16226     16221     16223
     16221     16224     16221     16225     16226     16228     16226     16234
     16228     16231     16228     16230     16231     16233     16231     16237
     16237     16234     16234     16236     16237     16239     16240     16237
     16241     16242     16246     16247     16248     16249     16251     16252
     16254     16255     16257     16258     16241     16246     16241     16243
     16241     16244     16241     16245     16246     16248     16246     16254
     16248     16251     16248     16250     16251     16253     16251     16257
     16257     16254     16254     16256     16257     16259     16260     16257
     16261     16262     16266     16267     16268     16269     16271     16272
     16274     16275     16277     16278     16261     16266     16261     16263
     16261     16264     16261     16265     16266     16268     16266     16274
     16268     16271     16268     16270     16271     16273     16271     16277
     16277     16274     16274     16276     16277     16279     16280     16277
     16281     16282     16286     16287     16288     16289     16291     16292
     16294     16295     16297     16298     16281     16286     16281     16283
     16281     16284     16281     16285     16286     16288     16286     16294
     16288     16291     16288     16290     16291     16293     16291     16297
     16297     16294     16294     16296     16297     16299     16300     16297
     16301     16302     16306     16307     16308     16309     16311     16312
     16314     16315     16317     16318     16301     16306     16301     16303
     16301     16304     16301     16305     16306     16308     16306     16314
     16308     16311     16308     16310     16311     16313     16311     16317
     16317     16314     16314     16316     16317     16319     16320     16317
     16321     16322     16326     16327     16328     16329     16331     16332
     16334     16335     16337     16338     16321     16326     16321     16323
     16321     16324     16321     16325     16326     16328     16326     16334
     16328     16331     16328     16330     16331     16333     16331     16337
     16337     16334     16334     16336     16337     16339     16340     16337
     16341     16342     16346     16347     16348     16349     16351     16352
     16354     16355     16357     16358     16341     16346     16341     16343
     16341     16344     16341     16345     16346     16348     16346     16354
     16348     16351     16348     16350     16351     16353     16351     16357
     16357     16354     16354     16356     16357     16359     16360     16357
     16361     16362     16366     16367     16368     16369     16371     16372
     16374     16375     16377     16378     16361     16366     16361     16363
     16361     16364     16361     16365     16366     16368     16366     16374
     16368     16371     16368     16370     16371     16373     16371     16377
     16377     16374     16374     16376     16377     16379     16380     16377
     16381     16382     16386     16387     16388     16389     16391     16392
     16394     16395     16397     16398     16381     16386     16381     16383
     16381     16384     16381     16385     16386     16388     16386     16394
     16388     16391     16388     16390     16391     16393     16391     16397
     16397     16394     16394     16396     16397     16399     16400     16397
     16401     16402     16406     16407     16408     16409     16411     16412
     16414     16415     16417     16418     16401     16406     16401     16403
     16401     16404     16401     16405     16406     16408     16406     16414
     16408     16411     16408     16410     16411     16413     16411     16417
     16417     16414     16414     16416     16417     16419     16420     16417
     16421     16422     16426     16427     16428     16429     16431     16432
     16434     16435     16437     16438     16421     16426     16421     16423
     16421     16424     16421     16425     16426     16428     16426     16434
     16428     16431     16428     16430     16431     16433     16431     16437
     16437     16434     16434     16436     16437     16439     16440     16437
     16441     16442     16446     16447     16448     16449     16451     16452
     16454     16455     16457     16458     16441     16446     16441     16443
     16441     16444     16441     16445     16446     16448     16446     16454
     16448     16451     16448     16450     16451     16453     16451     16457
     16457     16454     16454     16456     16457     16459     16460     16457
     16461     16462     16466     16467     16468     16469     16471     16472
     16474     16475     16477     16478     16461     16466     16461     16463
     16461     16464     16461     16465     16466     16468     16466     16474
     16468     16471     16468     16470     16471     16473     16471     16477
     16477     16474     16474     16476     16477     16479     16480     16477
     16481     16482     16486     16487     16488     16489     16491     16492
     16494     16495     16497     16498     16481     16486     16481     16483
     16481     16484     16481     16485     16486     16488     16486     16494
     16488     16491     16488     16490     16491     16493     16491     16497
     16497     16494     16494     16496     16497     16499     16500     16497
     16501     16502     16506     16507     16508     16509     16511     16512
     16514     16515     16517     16518     16501     16506     16501     16503
     16501     16504     16501     16505     16506     16508     16506     16514
     16508     16511     16508     16510     16511     16513     16511     16517
     16517     16514     16514     16516     16517     16519     16520     16517
     16521     16522     16526     16527     16528     16529     16531     16532
     16534     16535     16537     16538     16521     16526     16521     16523
     16521     16524     16521     16525     16526     16528     16526     16534
     16528     16531     16528     16530     16531     16533     16531     16537
     16537     16534     16534     16536     16537     16539     16540     16537
     16541     16542     16546     16547     16548     16549     16551     16552
     16554     16555     16557     16558     16541     16546     16541     16543
     16541     16544     16541     16545     16546     16548     16546     16554
     16548     16551     16548     16550     16551     16553     16551     16557
     16557     16554     16554     16556     16557     16559     16560     16557
     16561     16562     16566     16567     16568     16569     16571     16572
     16574     16575     16577     16578     16561     16566     16561     16563
     16561     16564     16561     16565     16566     16568     16566     16574
     16568     16571     16568     16570     16571     16573     16571     16577
     16577     16574     16574     16576     16577     16579     16580     16577
     16581     16582     16586     16587     16588     16589     16591     16592
     16594     16595     16597     16598     16581     16586     16581     16583
     16581     16584     16581     16585     16586     16588     16586     16594
     16588     16591     16588     16590     16591     16593     16591     16597
     16597     16594     16594     16596     16597     16599     16600     16597
     16601     16602     16606     16607     16608     16609     16611     16612
     16614     16615     16617     16618     16601     16606     16601     16603
     16601     16604     16601     16605     16606     16608     16606     16614
     16608     16611     16608     16610     16611     16613     16611     16617
     16617     16614     16614     16616     16617     16619     16620     16617
     16621     16622     16626     16627     16628     16629     16631     16632
     16634     16635     16637     16638     16621     16626     16621     16623
     16621     16624     16621     16625     16626     16628     16626     16634
     16628     16631     16628     16630     16631     16633     16631     16637
     16637     16634     16634     16636     16637     16639     16640     16637
     16641     16642     16646     16647     16648     16649     16651     16652
     16654     16655     16657     16658     16641     16646     16641     16643
     16641     16644     16641     16645     16646     16648     16646     16654
     16648     16651     16648     16650     16651     16653     16651     16657
     16657     16654     16654     16656     16657     16659     16660     16657
     16661     16662     16666     16667     16668     16669     16671     16672
     16674     16675     16677     16678     16661     16666     16661     16663
     16661     16664     16661     16665     16666     16668     16666     16674
     16668     16671     16668     16670     16671     16673     16671     16677
     16677     16674     16674     16676     16677     16679     16680     16677
     16681     16682     16686     16687     16688     16689     16691     16692
     16694     16695     16697     16698     16681     16686     16681     16683
     16681     16684     16681     16685     16686     16688     16686     16694
     16688     16691     16688     16690     16691     16693     16691     16697
     16697     16694     16694     16696     16697     16699     16700     16697
     16701     16702     16706     16707     16708     16709     16711     16712
     16714     16715     16717     16718     16701     16706     16701     16703
     16701     16704     16701     16705     16706     16708     16706     16714
     16708     16711     16708     16710     16711     16713     16711     16717
     16717     16714     16714     16716     16717     16719     16720     16717
     16721     16722     16726     16727     16728     16729     16731     16732
     16734     16735     16737     16738     16721     16726     16721     16723
     16721     16724     16721     16725     16726     16728     16726     16734
     16728     16731     16728     16730     16731     16733     16731     16737
     16737     16734     16734     16736     16737     16739     16740     16737
     16741     16742     16746     16747     16748     16749     16751     16752
     16754     16755     16757     16758     16741     16746     16741     16743
     16741     16744     16741     16745     16746     16748     16746     16754
     16748     16751     16748     16750     16751     16753     16751     16757
     16757     16754     16754     16756     16757     16759     16760     16757
     16761     16762     16766     16767     16768     16769     16771     16772
     16774     16775     16777     16778     16761     16766     16761     16763
     16761     16764     16761     16765     16766     16768     16766     16774
     16768     16771     16768     16770     16771     16773     16771     16777
     16777     16774     16774     16776     16777     16779     16780     16777
     16781     16782     16786     16787     16788     16789     16791     16792
     16794     16795     16797     16798     16781     16786     16781     16783
     16781     16784     16781     16785     16786     16788     16786     16794
     16788     16791     16788     16790     16791     16793     16791     16797
     16797     16794     16794     16796     16797     16799     16800     16797
     16801     16802     16806     16807     16808     16809     16811     16812
     16814     16815     16817     16818     16801     16806     16801     16803
     16801     16804     16801     16805     16806     16808     16806     16814
     16808     16811     16808     16810     16811     16813     16811     16817
     16817     16814     16814     16816     16817     16819     16820     16817
     16821     16822     16826     16827     16828     16829     16831     16832
     16834     16835     16837     16838     16821     16826     16821     16823
     16821     16824     16821     16825     16826     16828     16826     16834
     16828     16831     16828     16830     16831     16833     16831     16837
     16837     16834     16834     16836     16837     16839     16840     16837
     16841     16842     16846     16847     16848     16849     16851     16852
     16854     16855     16857     16858     16841     16846     16841     16843
     16841     16844     16841     16845     16846     16848     16846     16854
     16848     16851     16848     16850     16851     16853     16851     16857
     16857     16854     16854     16856     16857     16859     16860     16857
     16861     16862     16866     16867     16868     16869     16871     16872
     16874     16875     16877     16878     16861     16866     16861     16863
     16861     16864     16861     16865     16866     16868     16866     16874
     16868     16871     16868     16870     16871     16873     16871     16877
     16877     16874     16874     16876     16877     16879     16880     16877
     16881     16882     16886     16887     16888     16889     16891     16892
     16894     16895     16897     16898     16881     16886     16881     16883
     16881     16884     16881     16885     16886     16888     16886     16894
     16888     16891     16888     16890     16891     16893     16891     16897
     16897     16894     16894     16896     16897     16899     16900     16897
     16901     16902     16906     16907     16908     16909     16911     16912
     16914     16915     16917     16918     16901     16906     16901     16903
     16901     16904     16901     16905     16906     16908     16906     16914
     16908     16911     16908     16910     16911     16913     16911     16917
     16917     16914     16914     16916     16917     16919     16920     16917
     16921     16922     16926     16927     16928     16929     16931     16932
     16934     16935     16937     16938     16921     16926     16921     16923
     16921     16924     16921     16925     16926     16928     16926     16934
     16928     16931     16928     16930     16931     16933     16931     16937
     16937     16934     16934     16936     16937     16939     16940     16937
     16941     16942     16946     16947     16948     16949     16951     16952
     16954     16955     16957     16958     16941     16946     16941     16943
     16941     16944     16941     16945     16946     16948     16946     16954
     16948     16951     16948     16950     16951     16953     16951     16957
     16957     16954     16954     16956     16957     16959     16960     16957
     16961     16962     16966     16967     16968     16969     16971     16972
     16974     16975     16977     16978     16961     16966     16961     16963
     16961     16964     16961     16965     16966     16968     16966     16974
     16968     16971     16968     16970     16971     16973     16971     16977
     16977     16974     16974     16976     16977     16979     16980     16977
     16981     16982     16986     16987     16988     16989     16991     16992
     16994     16995     16997     16998     16981     16986     16981     16983
     16981     16984     16981     16985     16986     16988     16986     16994
     16988     16991     16988     16990     16991     16993     16991     16997
     16997     16994     16994     16996     16997     16999     17000     16997
     17001     17002     17004     17005     17006     17007     17001     17006
     17001     17003     17001     17004     17006     17008     17009     17004
     17010     17004     17011     17006     17012     17006     17013     17014
     17016     17017     17018     17019     17013     17018     17013     17015
     17013     17016     17018     17020     17021     17016     17022     17016
     17023     17018     17024     17018     17025     17026     17028     17029
     17030     17031     17025     17030     17025     17027     17025     17028
     17030     17032     17033     17028     17034     17028     17035     17030
     17036     17030     17037     17038     17040     17041     17042     17043
     17037     17042     17037     17039     17037     17040     17042     17044
     17045     17040     17046     17040     17047     17042     17048     17042
     17049     17050     17052     17053     17054     17055     17049     17054
     17049     17051     17049     17052     17054     17056     17057     17052
     17058     17052     17059     17054     17060     17054     17061     17062
     17064     17065     17066     17067     17061     17066     17061     17063
     17061     17064     17066     17068     17069     17064     17070     17064
     17071     17066     17072     17066     17073     17074     17076     17077
     17078     17079     17073     17078     17073     17075     17073     17076
     17078     17080     17081     17076     17082     17076     17083     17078
     17084     17078     17085     17086     17088     17089     17090     17091
     17085     17090     17085     17087     17085     17088     17090     17092
     17093     17088     17094     17088     17095     17090     17096     17090
     17097     17098     17100     17101     17102     17103     17097     17102
     17097     17099     17097     17100     17102     17104     17105     17100
     17106     17100     17107     17102     17108     17102     17109     17110
     17112     17113     17114     17115     17109     17114     17109     17111
     17109     17112     17114     17116     17117     17112     17118     17112
     17119     17114     17120     17114     17121     17122     17124     17125
     17126     17127     17121     17126     17121     17123     17121     17124
     17126     17128     17129     17124     17130     17124     17131     17126
     17132     17126     17133     17134     17136     17137     17138     17139
     17133     17138     17133     17135     17133     17136     17138     17140
     17141     17136     17142     17136     17143     17138     17144     17138
     17145     17146     17148     17149     17150     17151     17145     17150
     17145     17147     17145     17148     17150     17152     17153     17148
     17154     17148     17155     17150     17156     17150     17157     17158
     17160     17161     17162     17163     17157     17162     17157     17159
     17157     17160     17162     17164     17165     17160     17166     17160
     17167     17162     17168     17162     17169     17170     17172     17173
     17174     17175     17169     17174     17169     17171     17169     17172
     17174     17176     17177     17172     17178     17172     17179     17174
     17180     17174     17181     17182     17184     17185     17186     17187
     17181     17186     17181     17183     17181     17184     17186     17188
     17189     17184     17190     17184     17191     17186     17192     17186
     17193     17194     17196     17197     17198     17199     17193     17198
     17193     17195     17193     17196     17198     17200     17201     17196
     17202     17196     17203     17198     17204     17198     17205     17206
     17208     17209     17210     17211     17205     17210     17205     17207
     17205     17208     17210     17212     17213     17208     17214     17208
     17215     17210     17216     17210     17217     17218     17220     17221
     17222     17223     17217     17222     17217     17219     17217     17220
     17222     17224     17225     17220     17226     17220     17227     17222
     17228     17222     17229     17230     17232     17233     17234     17235
     17229     17234     17229     17231     17229     17232     17234     17236
     17237     17232     17238     17232     17239     17234     17240     17234
     17241     17242     17244     17245     17246     17247     17241     17246
     17241     17243     17241     17244     17246     17248     17249     17244
     17250     17244     17251     17246     17252     17246     17253     17254
     17256     17257     17258     17259     17253     17258     17253     17255
     17253     17256     17258     17260     17261     17256     17262     17256
     17263     17258     17264     17258     17265     17266     17268     17269
     17270     17271     17265     17270     17265     17267     17265     17268
     17270     17272     17273     17268     17274     17268     17275     17270
     17276     17270     17277     17278     17280     17281     17282     17283
     17277     17282     17277     17279     17277     17280     17282     17284
     17285     17280     17286     17280     17287     17282     17288     17282
     17289     17290     17292     17293     17294     17295     17289     17294
     17289     17291     17289     17292     17294     17296     17297     17292
     17298     17292     17299     17294     17300     17294     17301     17302
     17304     17305     17306     17307     17301     17306     17301     17303
     17301     17304     17306     17308     17309     17304     17310     17304
     17311     17306     17312     17306     17313     17314     17316     17317
     17318     17319     17313     17318     17313     17315     17313     17316
     17318     17320     17321     17316     17322     17316     17323     17318
     17324     17318     17325     17326     17328     17329     17330     17331
     17325     17330     17325     17327     17325     17328     17330     17332
     17333     17328     17334     17328     17335     17330     17336     17330
     17337     17338     17340     17341     17342     17343     17337     17342
     17337     17339     17337     17340     17342     17344     17345     17340
     17346     17340     17347     17342     17348     17342     17349     17350
     17352     17353     17354     17355     17349     17354     17349     17351
     17349     17352     17354     17356     17357     17352     17358     17352
     17359     17354     17360     17354     17361     17362     17364     17365
     17366     17367     17361     17366     17361     17363     17361     17364
     17366     17368     17369     17364     17370     17364     17371     17366
     17372     17366     17373     17374     17376     17377     17378     17379
     17373     17378     17373     17375     17373     17376     17378     17380
     17381     17376     17382     17376     17383     17378     17384     17378
     17385     17386     17388     17389     17390     17391     17385     17390
     17385     17387     17385     17388     17390     17392     17393     17388
     17394     17388     17395     17390     17396     17390     17397     17398
     17400     17401     17402     17403     17397     17402     17397     17399
     17397     17400     17402     17404     17405     17400     17406     17400
     17407     17402     17408     17402     17409     17410     17412     17413
     17414     17415     17409     17414     17409     17411     17409     17412
     17414     17416     17417     17412     17418     17412     17419     17414
     17420     17414     17421     17422     17424     17425     17426     17427
     17421     17426     17421     17423     17421     17424     17426     17428
     17429     17424     17430     17424     17431     17426     17432     17426
     17433     17434     17436     17437     17438     17439     17433     17438
     17433     17435     17433     17436     17438     17440     17441     17436
     17442     17436     17443     17438     17444     17438     17445     17446
     17448     17449     17450     17451     17445     17450     17445     17447
     17445     17448     17450     17452     17453     17448     17454     17448
     17455     17450     17456     17450     17457     17458     17460     17461
     17462     17463     17457     17462     17457     17459     17457     17460
     17462     17464     17465     17460     17466     17460     17467     17462
     17468     17462     17469     17470     17472     17473     17474     17475
     17469     17474     17469     17471     17469     17472     17474     17476
     17477     17472     17478     17472     17479     17474     17480     17474
     17481     17482     17484     17485     17486     17487     17481     17486
     17481     17483     17481     17484     17486     17488     17489     17484
     17490     17484     17491     17486     17492     17486     17493     17494
     17496     17497     17498     17499     17493     17498     17493     17495
     17493     17496     17498     17500     17501     17496     17502     17496
     17503     17498     17504     17498     17505     17506     17508     17509
     17510     17511     17505     17510     17505     17507     17505     17508
     17510     17512     17513     17508     17514     17508     17515     17510
     17516     17510     17517     17518     17520     17521     17522     17523
     17517     17522     17517     17519     17517     17520     17522     17524
     17525     17520     17526     17520     17527     17522     17528     17522
     17529     17530     17532     17533     17534     17535     17529     17534
     17529     17531     17529     17532     17534     17536     17537     17532
     17538     17532     17539     17534     17540     17534     17541     17542
     17544     17545     17546     17547     17541     17546     17541     17543
     17541     17544     17546     17548     17549     17544     17550     17544
     17551     17546     17552     17546     17553     17554     17556     17557
     17558     17559     17553     17558     17553     17555     17553     17556
     17558     17560     17561     17556     17562     17556     17563     17558
     17564     17558     17565     17566     17568     17569     17570     17571
     17565     17570     17565     17567     17565     17568     17570     17572
     17573     17568     17574     17568     17575     17570     17576     17570
     17577     17578     17580     17581     17582     17583     17577     17582
     17577     17579     17577     17580     17582     17584     17585     17580
     17586     17580     17587     17582     17588     17582     17589     17590
     17592     17593     17594     17595     17589     17594     17589     17591
     17589     17592     17594     17596     17597     17592     17598     17592
     17599     17594     17600     17594

     13750 !NTHETA: angles
         3         1         4         3         1         5         3         1         6
         4         1         5         4         1         6         5         1         6
         1         6         8         1         6        14         8         6        14
         6         8        10         6         8        11        10         8        11
         8        11        13         8        11        17        13        11        17
         6        14        16         6        14        17        16        14        17
        11        17        14        11        17        19        14        17        19
        23        21        24        23        21        25        23        21        26
        24        21        25        24        21        26        25        21        26
        21        26        28        21        26        34        28        26        34
        26        28        30        26        28        31        30        28        31
        28        31        33        28        31        37        33        31        37
        26        34        36        26        34        37        36        34        37
        31        37        34        31        37        39        34        37        39
        43        41        44        43        41        45        43        41        46
        44        41        45        44        41        46        45        41        46
        41        46        48        41        46        54        48        46        54
        46        48        50        46        48        51        50        48        51
        48        51        53        48        51        57        53        51        57
        46        54        56        46        54        57        56        54        57
        51        57        54        51        57        59        54        57        59
        63        61        64        63        61        65        63        61        66
        64        61        65        64        61        66        65        61        66
        61        66        68        61        66        74        68        66        74
        66        68        70        66        68        71        70        68        71
        68        71        73        68        71        77        73        71        77
        66        74        76        66        74        77        76        74        77
        71        77        74        71        77        79        74        77        79
        83        81        84        83        81        85        83        81        86
        84        81        85        84        81        86        85        81        86
        81        86        88        81        86        94        88        86        94
        86        88        90        86        88        91        90        88        91
        88        91        93        88        91        97        93        91        97
        86        94        96        86        94        97        96        94        97
        91        97        94        91        97        99        94        97        99
       103       101       104       103       101       105       103       101       106
       104       101       105       104       101       106       105       101       106
       101       106       108       101       106       114       108       106       114
       106       108       110       106       108       111       110       108       111
       108       111       113       108       111       117       113       111       117
       106       114       116       106       114       117       116       114       117
       111       117       114       111       117       119       114       117       119
       123       121       124       123       121       125       123       121       126
       124       121       125       124       121       126       125       121       126
       121       126       128       121       126       134       128       126       134
       126       128       130       126       128       131       130       128       131
       128       131       133       128       131       137       133       131       137
       126       134       136       126       134       137       136       134       137
       131       137       134       131       137       139       134       137       139
       143       141       144       143       141       145       143       141       146
       144       141       145       144       141       146       145       141       146
       141       146       148       141       146       154       148       146       154
       146       148       150       146       148       151       150       148       151
       148       151       153       148       151       157       153       151       157
       146       154       156       146       154       157       156       154       157
       151       157       154       151       157       159       154       157       159
       163       161       164       163       161       165       163       161       166
       164       161       165       164       161       166       165       161       166
       161       166       168       161       166       174       168       166       174
       166       168       170       166       168       171       170       168       171
       168       171       173       168       171       177       173       171       177
       166       174       176       166       174       177       176       174       177
       171       177       174       171       177       179       174       177       179
       183       181       184       183       181       185       183       181       186
       184       181       185       184       181       186       185       181       186
       181       186       188       181       186       194       188       186       194
       186       188       190       186       188       191       190       188       191
       188       191       193       188       191       197       193       191       197
       186       194       196       186       194       197       196       194       197
       191       197       194       191       197       199       194       197       199
       203       201       204       203       201       205       203       201       206
       204       201       205       204       201       206       205       201       206
       201       206       208       201       206       214       208       206       214
       206       208       210       206       208       211       210       208       211
       208       211       213       208       211       217       213       211       217
       206       214       216       206       214       217       216       214       217
       211       217       214       211       217       219       214       217       219
       223       221       224       223       221       225       223       221       226
       224       221       225       224       221       226       225       221       226
       221       226       228       221       226       234       228       226       234
       226       228       230       226       228       231       230       228       231
       228       231       233       228       231       237       233       231       237
       226       234       236       226       234       237       236       234       237
       231       237       234       231       237       239       234       237       239
       243       241       244       243       241       245       243       241       246
       244       241       245       244       241       246       245       241       246
       241       246       248       241       246       254       248       246       254
       246       248       250       246       248       251       250       248       251
       248       251       253       248       251       257       253       251       257
       246       254       256       246       254       257       256       254       257
       251       257       254       251       257       259       254       257       259
       263       261       264       263       261       265       263       261       266
       264       261       265       264       261       266       265       261       266
       261       266       268       261       266       274       268       266       274
       266       268       270       266       268       271       270       268       271
       268       271       273       268       271       277       273       271       277
       266       274       276       266       274       277       276       274       277
       271       277       274       271       277       279       274       277       279
       283       281       284       283       281       285       283       281       286
       284       281       285       284       281       286       285       281       286
       281       286       288       281       286       294       288       286       294
       286       288       290       286       288       291       290       288       291
       288       291       293       288       291       297       293       291       297
       286       294       296       286       294       297       296       294       297
       291       297       294       291       297       299       294       297       299
       303       301       304       303       301       305       303       301       306
       304       301       305       304       301       306       305       301       306
       301       306       308       301       306       314       308       306       314
       306       308       310       306       308       311       310       308       311
       308       311       313       308       311       317       313       311       317
       306       314       316       306       314       317       316       314       317
       311       317       314       311       317       319       314       317       319
       323       321       324       323       321       325       323       321       326
       324       321       325       324       321       326       325       321       326
       321       326       328       321       326       334       328       326       334
       326       328       330       326       328       331       330       328       331
       328       331       333       328       331       337       333       331       337
       326       334       336       326       334       337       336       334       337
       331       337       334       331       337       339       334       337       339
       343       341       344       343       341       345       343       341       346
       344       341       345       344       341       346       345       341       346
       341       346       348       341       346       354       348       346       354
       346       348       350       346       348       351       350       348       351
       348       351       353       348       351       357       353       351       357
       346       354       356       346       354       357       356       354       357
       351       357       354       351       357       359       354       357       359
       363       361       364       363       361       365       363       361       366
       364       361       365       364       361       366       365       361       366
       361       366       368       361       366       374       368       366       374
       366       368       370       366       368       371       370       368       371
       368       371       373       368       371       377       373       371       377
       366       374       376       366       374       377       376       374       377
       371       377       374       371       377       379       374       377       379
       383       381       384       383       381       385       383       381       386
       384       381       385       384       381       386       385       381       386
       381       386       388       381       386       394       388       386       394
       386       388       390       386       388       391       390       388       391
       388       391       393       388       391       397       393       391       397
       386       394       396       386       394       397       396       394       397
       391       397       394       391       397       399       394       397       399
       403       401       404       403       401       405       403       401       406
       404       401       405       404       401       406       405       401       406
       401       406       408       401       406       414       408       406       414
       406       408       410       406       408       411       410       408       411
       408       411       413       408       411       417       413       411       417
       406       414       416       406       414       417       416       414       417
       411       417       414       411       417       419       414       417       419
       423       421       424       423       421       425       423       421       426
       424       421       425       424       421       426       425       421       426
       421       426       428       421       426       434       428       426       434
       426       428       430       426       428       431       430       428       431
       428       431       433       428       431       437       433       431       437
       426       434       436       426       434       437       436       434       437
       431       437       434       431       437       439       434       437       439
       443       441       444       443       441       445       443       441       446
       444       441       445       444       441       446       445       441       446
       441       446       448       441       446       454       448       446       454
       446       448       450       446       448       451       450       448       451
       448       451       453       448       451       457       453       451       457
       446       454       456       446       454       457       456       454       457
       451       457       454       451       457       459       454       457       459
       463       461       464       463       461       465       463       461       466
       464       461       465       464       461       466       465       461       466
       461       466       468       461       466       474       468       466       474
       466       468       470       466       468       471       470       468       471
       468       471       473       468       471       477       473       471       477
       466       474       476       466       474       477       476       474       477
       471       477       474       471       477       479       474       477       479
       483       481       484       483       481       485       483       481       486
       484       481       485       484       481       486       485       481       486
       481       486       488       481       486       494       488       486       494
       486       488       490       486       488       491       490       488       491
       488       491       493       488       491       497       493       491       497
       486       494       496       486       494       497       496       494       497
       491       497       494       491       497       499       494       497       499
       503       501       504       503       501       505       503       501       506
       504       501       505       504       501       506       505       501       506
       501       506       508       501       506       514       508       506       514
       506       508       510       506       508       511       510       508       511
       508       511       513       508       511       517       513       511       517
       506       514       516       506       514       517       516       514       517
       511       517       514       511       517       519       514       517       519
       523       521       524       523       521       525       523       521       526
       524       521       525       524       521       526       525       521       526
       521       526       528       521       526       534       528       526       534
       526       528       530       526       528       531       530       528       531
       528       531       533       528       531       537       533       531       537
       526       534       536       526       534       537       536       534       537
       531       537       534       531       537       539       534       537       539
       543       541       544       543       541       545       543       541       546
       544       541       545       544       541       546       545       541       546
       541       546       548       541       546       554       548       546       554
       546       548       550       546       548       551       550       548       551
       548       551       553       548       551       557       553       551       557
       546       554       556       546       554       557       556       554       557
       551       557       554       551       557       559       554       557       559
       563       561       564       563       561       565       563       561       566
       564       561       565       564       561       566       565       561       566
       561       566       568       561       566       574       568       566       574
       566       568       570       566       568       571       570       568       571
       568       571       573       568       571       577       573       571       577
       566       574       576       566       574       577       576       574       577
       571       577       574       571       577       579       574       577       579
       583       581       584       583       581       585       583       581       586
       584       581       585       584       581       586       585       581       586
       581       586       588       581       586       594       588       586       594
       586       588       590       586       588       591       590       588       591
       588       591       593       588       591       597       593       591       597
       586       594       596       586       594       597       596       594       597
       591       597       594       591       597       599       594       597       599
       603       601       604       603       601       605       603       601       606
       604       601       605       604       601       606       605       601       606
       601       606       608       601       606       614       608       606       614
       606       608       610       606       608       611       610       608       611
       608       611       613       608       611       617       613       611       617
       606       614       616       606       614       617       616       614       617
       611       617       614       611       617       619       614       617       619
       623       621       624       623       621       625       623       621       626
       624       621       625       624       621       626       625       621       626
       621       626       628       621       626       634       628       626       634
       626       628       630       626       628       631       630       628       631
       628       631       633       628       631       637       633       631       637
       626       634       636       626       634       637       636       634       637
       631       637       634       631       637       639       634       637       639
       643       641       644       643       641       645       643       641       646
       644       641       645       644       641       646       645       641       646
       641       646       648       641       646       654       648       646       654
       646       648       650       646       648       651       650       648       651
       648       651       653       648       651       657       653       651       657
       646       654       656       646       654       657       656       654       657
       651       657       654       651       657       659       654       657       659
       663       661       664       663       661       665       663       661       666
       664       661       665       664       661       666       665       661       666
       661       666       668       661       666       674       668       666       674
       666       668       670       666       668       671       670       668       671
       668       671       673       668       671       677       673       671       677
       666       674       676       666       674       677       676       674       677
       671       677       674       671       677       679       674       677       679
       683       681       684       683       681       685       683       681       686
       684       681       685       684       681       686       685       681       686
       681       686       688       681       686       694       688       686       694
       686       688       690       686       688       691       690       688       691
       688       691       693       688       691       697       693       691       697
       686       694       696       686       694       697       696       694       697
       691       697       694       691       697       699       694       697       699
       703       701       704       703       701       705       703       701       706
       704       701       705       704       701       706       705       701       706
       701       706       708       701       706       714       708       706       714
       706       708       710       706       708       711       710       708       711
       708       711       713       708       711       717       713       711       717
       706       714       716       706       714       717       716       714       717
       711       717       714       711       717       719       714       717       719
       723       721       724       723       721       725       723       721       726
       724       721       725       724       721       726       725       721       726
       721       726       728       721       726       734       728       726       734
       726       728       730       726       728       731       730       728       731
       728       731       733       728       731       737       733       731       737
       726       734       736       726       734       737       736       734       737
       731       737       734       731       737       739       734       737       739
       743       741       744       743       741       745       743       741       746
       744       741       745       744       741       746       745       741       746
       741       746       748       741       746       754       748       746       754
       746       748       750       746       748       751       750       748       751
       748       751       753       748       751       757       753       751       757
       746       754       756       746       754       757       756       754       757
       751       757       754       751       757       759       754       757       759
       763       761       764       763       761       765       763       761       766
       764       761       765       764       761       766       765       761       766
       761       766       768       761       766       774       768       766       774
       766       768       770       766       768       771       770       768       771
       768       771       773       768       771       777       773       771       777
       766       774       776       766       774       777       776       774       777
       771       777       774       771       777       779       774       777       779
       783       781       784       783       781       785       783       781       786
       784       781       785       784       781       786       785       781       786
       781       786       788       781       786       794       788       786       794
       786       788       790       786       788       791       790       788       791
       788       791       793       788       791       797       793       791       797
       786       794       796       786       794       797       796       794       797
       791       797       794       791       797       799       794       797       799
       803       801       804       803       801       805       803       801       806
       804       801       805       804       801       806       805       801       806
       801       806       808       801       806       814       808       806       814
       806       808       810       806       808       811       810       808       811
       808       811       813       808       811       817       813       811       817
       806       814       816       806       814       817       816       814       817
       811       817       814       811       817       819       814       817       819
       823       821       824       823       821       825       823       821       826
       824       821       825       824       821       826       825       821       826
       821       826       828       821       826       834       828       826       834
       826       828       830       826       828       831       830       828       831
       828       831       833       828       831       837       833       831       837
       826       834       836       826       834       837       836       834       837
       831       837       834       831       837       839       834       837       839
       843       841       844       843       841       845       843       841       846
       844       841       845       844       841       846       845       841       846
       841       846       848       841       846       854       848       846       854
       846       848       850       846       848       851       850       848       851
       848       851       853       848       851       857       853       851       857
       846       854       856       846       854       857       856       854       857
       851       857       854       851       857       859       854       857       859
       863       861       864       863       861       865       863       861       866
       864       861       865       864       861       866       865       861       866
       861       866       868       861       866       874       868       866       874
       866       868       870       866       868       871       870       868       871
       868       871       873       868       871       877       873       871       877
       866       874       876       866       874       877       876       874       877
       871       877       874       871       877       879       874       877       879
       883       881       884       883       881       885       883       881       886
       884       881       885       884       881       886       885       881       886
       881       886       888       881       886       894       888       886       894
       886       888       890       886       888       891       890       888       891
       888       891       893       888       891       897       893       891       897
       886       894       896       886       894       897       896       894       897
       891       897       894       891       897       899       894       897       899
       903       901       904       903       901       905       903       901       906
       904       901       905       904       901       906       905       901       906
       901       906       908       901       906       914       908       906       914
       906       908       910       906       908       911       910       908       911
       908       911       913       908       911       917       913       911       917
       906       914       916       906       914       917       916       914       917
       911       917       914       911       917       919       914       917       919
       923       921       924       923       921       925       923       921       926
       924       921       925       924       921       926       925       921       926
       921       926       928       921       926       934       928       926       934
       926       928       930       926       928       931       930       928       931
       928       931       933       928       931       937       933       931       937
       926       934       936       926       934       937       936       934       937
       931       937       934       931       937       939       934       937       939
       943       941       944       943       941       945       943       941       946
       944       941       945       944       941       946       945       941       946
       941       946       948       941       946       954       948       946       954
       946       948       950       946       948       951       950       948       951
       948       951       953       948       951       957       953       951       957
       946       954       956       946       954       957       956       954       957
       951       957       954       951       957       959       954       957       959
       963       961       964       963       961       965       963       961       966
       964       961       965       964       961       966       965       961       966
       961       966       968       961       966       974       968       966       974
       966       968       970       966       968       971       970       968       971
       968       971       973       968       971       977       973       971       977
       966       974       976       966       974       977       976       974       977
       971       977       974       971       977       979       974       977       979
       983       981       984       983       981       985       983       981       986
       984       981       985       984       981       986       985       981       986
       981       986       988       981       986       994       988       986       994
       986       988       990       986       988       991       990       988       991
       988       991       993       988       991       997       993       991       997
       986       994       996       986       994       997       996       994       997
       991       997       994       991       997       999       994       997       999
      1003      1001      1004      1003      1001      1005      1003      1001      1006
      1004      1001      1005      1004      1001      1006      1005      1001      1006
      1001      1006      1008      1001      1006      1014      1008      1006      1014
      1006      1008      1010      1006      1008      1011      1010      1008      1011
      1008      1011      1013      1008      1011      1017      1013      1011      1017
      1006      1014      1016      1006      1014      1017      1016      1014      1017
      1011      1017      1014      1011      1017      1019      1014      1017      1019
      1023      1021      1024      1023      1021      1025      1023      1021      1026
      1024      1021      1025      1024      1021      1026      1025      1021      1026
      1021      1026      1028      1021      1026      1034      1028      1026      1034
      1026      1028      1030      1026      1028      1031      1030      1028      1031
      1028      1031      1033      1028      1031      1037      1033      1031      1037
      1026      1034      1036      1026      1034      1037      1036      1034      1037
      1031      1037      1034      1031      1037      1039      1034      1037      1039
      1043      1041      1044      1043      1041      1045      1043      1041      1046
      1044      1041      1045      1044      1041      1046      1045      1041      1046
      1041      1046      1048      1041      1046      1054      1048      1046      1054
      1046      1048      1050      1046      1048      1051      1050      1048      1051
      1048      1051      1053      1048      1051      1057      1053      1051      1057
      1046      1054      1056      1046      1054      1057      1056      1054      1057
      1051      1057      1054      1051      1057      1059      1054      1057      1059
      1063      1061      1064      1063      1061      1065      1063      1061      1066
      1064      1061      1065      1064      1061      1066      1065      1061      1066
      1061      1066      1068      1061      1066      1074      1068      1066      1074
      1066      1068      1070      1066      1068      1071      1070      1068      1071
      1068      1071      1073      1068      1071      1077      1073      1071      1077
      1066      1074      1076      1066      1074      1077      1076      1074      1077
      1071      1077      1074      1071      1077      1079      1074      1077      1079
      1083      1081      1084      1083      1081      1085      1083      1081      1086
      1084      1081      1085      1084      1081      1086      1085      1081      1086
      1081      1086      1088      1081      1086      1094      1088      1086      1094
      1086      1088      1090      1086      1088      1091      1090      1088      1091
      1088      1091      1093      1088      1091      1097      1093      1091      1097
      1086      1094      1096      1086      1094      1097      1096      1094      1097
      1091      1097      1094      1091      1097      1099      1094      1097      1099
      1103      1101      1104      1103      1101      1105      1103      1101      1106
      1104      1101      1105      1104      1101      1106      1105      1101      1106
      1101      1106      1108      1101      1106      1114      1108      1106      1114
      1106      1108      1110      1106      1108      1111      1110      1108      1111
      1108      1111      1113      1108      1111      1117      1113      1111      1117
      1106      1114      1116      1106      1114      1117      1116      1114      1117
      1111      1117      1114      1111      1117      1119      1114      1117      1119
      1123      1121      1124      1123      1121      1125      1123      1121      1126
      1124      1121      1125      1124      1121      1126      1125      1121      1126
      1121      1126      1128      1121      1126      1134      1128      1126      1134
      1126      1128      1130      1126      1128      1131      1130      1128      1131
      1128      1131      1133      1128      1131      1137      1133      1131      1137
      1126      1134      1136      1126      1134      1137      1136      1134      1137
      1131      1137      1134      1131      1137      1139      1134      1137      1139
      1143      1141      1144      1143      1141      1145      1143      1141      1146
      1144      1141      1145      1144      1141      1146      1145      1141      1146
      1141      1146      1148      1141      1146      1154      1148      1146      1154
      1146      1148      1150      1146      1148      1151      1150      1148      1151
      1148      1151      1153      1148      1151      1157      1153      1151      1157
      1146      1154      1156      1146      1154      1157      1156      1154      1157
      1151      1157      1154      1151      1157      1159      1154      1157      1159
      1163      1161      1164      1163      1161      1165      1163      1161      1166
      1164      1161      1165      1164      1161      1166      1165      1161      1166
      1161      1166      1168      1161      1166      1174      1168      1166      1174
      1166      1168      1170      1166      1168      1171      1170      1168      1171
      1168      1171      1173      1168      1171      1177      1173      1171      1177
      1166      1174      1176      1166      1174      1177      1176      1174      1177
      1171      1177      1174      1171      1177      1179      1174      1177      1179
      1183      1181      1184      1183      1181      1185      1183      1181      1186
      1184      1181      1185      1184      1181      1186      1185      1181      1186
      1181      1186      1188      1181      1186      1194      1188      1186      1194
      1186      1188      1190      1186      1188      1191      1190      1188      1191
      1188      1191      1193      1188      1191      1197      1193      1191      1197
      1186      1194      1196      1186      1194      1197      1196      1194      1197
      1191      1197      1194      1191      1197      1199      1194      1197      1199
      1203      1201      1204      1203      1201      1205      1203      1201      1206
      1204      1201      1205      1204      1201      1206      1205      1201      1206
      1201      1206      1208      1201      1206      1214      1208      1206      1214
      1206      1208      1210      1206      1208      1211      1210      1208      1211
      1208      1211      1213      1208      1211      1217      1213      1211      1217
      1206      1214      1216      1206      1214      1217      1216      1214      1217
      1211      1217      1214      1211      1217      1219      1214      1217      1219
      1223      1221      1224      1223      1221      1225      1223      1221      1226
      1224      1221      1225      1224      1221      1226      1225      1221      1226
      1221      1226      1228      1221      1226      1234      1228      1226      1234
      1226      1228      1230      1226      1228      1231      1230      1228      1231
      1228      1231      1233      1228      1231      1237      1233      1231      1237
      1226      1234      1236      1226      1234      1237      1236      1234      1237
      1231      1237      1234      1231      1237      1239      1234      1237      1239
      1243      1241      1244      1243      1241      1245      1243      1241      1246
      1244      1241      1245      1244      1241      1246      1245      1241      1246
      1241      1246      1248      1241      1246      1254      1248      1246      1254
      1246      1248      1250      1246      1248      1251      1250      1248      1251
      1248      1251      1253      1248      1251      1257      1253      1251      1257
      1246      1254      1256      1246      1254      1257      1256      1254      1257
      1251      1257      1254      1251      1257      1259      1254      1257      1259
      1263      1261      1264      1263      1261      1265      1263      1261      1266
      1264      1261      1265      1264      1261      1266      1265      1261      1266
      1261      1266      1268      1261      1266      1274      1268      1266      1274
      1266      1268      1270      1266      1268      1271      1270      1268      1271
      1268      1271      1273      1268      1271      1277      1273      1271      1277
      1266      1274      1276      1266      1274      1277      1276      1274      1277
      1271      1277      1274      1271      1277      1279      1274      1277      1279
      1283      1281      1284      1283      1281      1285      1283      1281      1286
      1284      1281      1285      1284      1281      1286      1285      1281      1286
      1281      1286      1288      1281      1286      1294      1288      1286      1294
      1286      1288      1290      1286      1288      1291      1290      1288      1291
      1288      1291      1293      1288      1291      1297      1293      1291      1297
      1286      1294      1296      1286      1294      1297      1296      1294      1297
      1291      1297      1294      1291      1297      1299      1294      1297      1299
      1303      1301      1304      1303      1301      1305      1303      1301      1306
      1304      1301      1305      1304      1301      1306      1305      1301      1306
      1301      1306      1308      1301      1306      1314      1308      1306      1314
      1306      1308      1310      1306      1308      1311      1310      1308      1311
      1308      1311      1313      1308      1311      1317      1313      1311      1317
      1306      1314      1316      1306      1314      1317      1316      1314      1317
      1311      1317      1314      1311      1317      1319      1314      1317      1319
      1323      1321      1324      1323      1321      1325      1323      1321      1326
      1324      1321      1325      1324      1321      1326      1325      1321      1326
      1321      1326      1328      1321      1326      1334      1328      1326      1334
      1326      1328      1330      1326      1328      1331      1330      1328      1331
      1328      1331      1333      1328      1331      1337      1333      1331      1337
      1326      1334      1336      1326      1334      1337      1336      1334      1337
      1331      1337      1334      1331      1337      1339      1334      1337      1339
      1343      1341      1344      1343      1341      1345      1343      1341      1346
      1344      1341      1345      1344      1341      1346      1345      1341      1346
      1341      1346      1348      1341      1346      1354      1348      1346      1354
      1346      1348      1350      1346      1348      1351      1350      1348      1351
      1348      1351      1353      1348      1351      1357      1353      1351      1357
      1346      1354      1356      1346      1354      1357      1356      1354      1357
      1351      1357      1354      1351      1357      1359      1354      1357      1359
      1363      1361      1364      1363      1361      1365      1363      1361      1366
      1364      1361      1365      1364      1361      1366      1365      1361      1366
      1361      1366      1368      1361      1366      1374      1368      1366      1374
      1366      1368      1370      1366      1368      1371      1370      1368      1371
      1368      1371      1373      1368      1371      1377      1373      1371      1377
      1366      1374      1376      1366      1374      1377      1376      1374      1377
      1371      1377      1374      1371      1377      1379      1374      1377      1379
      1383      1381      1384      1383      1381      1385      1383      1381      1386
      1384      1381      1385      1384      1381      1386      1385      1381      1386
      1381      1386      1388      1381      1386      1394      1388      1386      1394
      1386      1388      1390      1386      1388      1391      1390      1388      1391
      1388      1391      1393      1388      1391      1397      1393      1391      1397
      1386      1394      1396      1386      1394      1397      1396      1394      1397
      1391      1397      1394      1391      1397      1399      1394      1397      1399
      1403      1401      1404      1403      1401      1405      1403      1401      1406
      1404      1401      1405      1404      1401      1406      1405      1401      1406
      1401      1406      1408      1401      1406      1414      1408      1406      1414
      1406      1408      1410      1406      1408      1411      1410      1408      1411
      1408      1411      1413      1408      1411      1417      1413      1411      1417
      1406      1414      1416      1406      1414      1417      1416      1414      1417
      1411      1417      1414      1411      1417      1419      1414      1417      1419
      1423      1421      1424      1423      1421      1425      1423      1421      1426
      1424      1421      1425      1424      1421      1426      1425      1421      1426
      1421      1426      1428      1421      1426      1434      1428      1426      1434
      1426      1428      1430      1426      1428      1431      1430      1428      1431
      1428      1431      1433      1428      1431      1437      1433      1431      1437
      1426      1434      1436      1426      1434      1437      1436      1434      1437
      1431      1437      1434      1431      1437      1439      1434      1437      1439
      1443      1441      1444      1443      1441      1445      1443      1441      1446
      1444      1441      1445      1444      1441      1446      1445      1441      1446
      1441      1446      1448      1441      1446      1454      1448      1446      1454
      1446      1448      1450      1446      1448      1451      1450      1448      1451
      1448      1451      1453      1448      1451      1457      1453      1451      1457
      1446      1454      1456      1446      1454      1457      1456      1454      1457
      1451      1457      1454      1451      1457      1459      1454      1457      1459
      1463      1461      1464      1463      1461      1465      1463      1461      1466
      1464      1461      1465      1464      1461      1466      1465      1461      1466
      1461      1466      1468      1461      1466      1474      1468      1466      1474
      1466      1468      1470      1466      1468      1471      1470      1468      1471
      1468      1471      1473      1468      1471      1477      1473      1471      1477
      1466      1474      1476      1466      1474      1477      1476      1474      1477
      1471      1477      1474      1471      1477      1479      1474      1477      1479
      1483      1481      1484      1483      1481      1485      1483      1481      1486
      1484      1481      1485      1484      1481      1486      1485      1481      1486
      1481      1486      1488      1481      1486      1494      1488      1486      1494
      1486      1488      1490      1486      1488      1491      1490      1488      1491
      1488      1491      1493      1488      1491      1497      1493      1491      1497
      1486      1494      1496      1486      1494      1497      1496      1494      1497
      1491      1497      1494      1491      1497      1499      1494      1497      1499
      1503      1501      1504      1503      1501      1505      1503      1501      1506
      1504      1501      1505      1504      1501      1506      1505      1501      1506
      1501      1506      1508      1501      1506      1514      1508      1506      1514
      1506      1508      1510      1506      1508      1511      1510      1508      1511
      1508      1511      1513      1508      1511      1517      1513      1511      1517
      1506      1514      1516      1506      1514      1517      1516      1514      1517
      1511      1517      1514      1511      1517      1519      1514      1517      1519
      1523      1521      1524      1523      1521      1525      1523      1521      1526
      1524      1521      1525      1524      1521      1526      1525      1521      1526
      1521      1526      1528      1521      1526      1534      1528      1526      1534
      1526      1528      1530      1526      1528      1531      1530      1528      1531
      1528      1531      1533      1528      1531      1537      1533      1531      1537
      1526      1534      1536      1526      1534      1537      1536      1534      1537
      1531      1537      1534      1531      1537      1539      1534      1537      1539
      1543      1541      1544      1543      1541      1545      1543      1541      1546
      1544      1541      1545      1544      1541      1546      1545      1541      1546
      1541      1546      1548      1541      1546      1554      1548      1546      1554
      1546      1548      1550      1546      1548      1551      1550      1548      1551
      1548      1551      1553      1548      1551      1557      1553      1551      1557
      1546      1554      1556      1546      1554      1557      1556      1554      1557
      1551      1557      1554      1551      1557      1559      1554      1557      1559
      1563      1561      1564      1563      1561      1565      1563      1561      1566
      1564      1561      1565      1564      1561      1566      1565      1561      1566
      1561      1566      1568      1561      1566      1574      1568      1566      1574
      1566      1568      1570      1566      1568      1571      1570      1568      1571
      1568      1571      1573      1568      1571      1577      1573      1571      1577
      1566      1574      1576      1566      1574      1577      1576      1574      1577
      1571      1577      1574      1571      1577      1579      1574      1577      1579
      1583      1581      1584      1583      1581      1585      1583      1581      1586
      1584      1581      1585      1584      1581      1586      1585      1581      1586
      1581      1586      1588      1581      1586      1594      1588      1586      1594
      1586      1588      1590      1586      1588      1591      1590      1588      1591
      1588      1591      1593      1588      1591      1597      1593      1591      1597
      1586      1594      1596      1586      1594      1597      1596      1594      1597
      1591      1597      1594      1591      1597      1599      1594      1597      1599
      1603      1601      1604      1603      1601      1605      1603      1601      1606
      1604      1601      1605      1604      1601      1606      1605      1601      1606
      1601      1606      1608      1601      1606      1614      1608      1606      1614
      1606      1608      1610      1606      1608      1611      1610      1608      1611
      1608      1611      1613      1608      1611      1617      1613      1611      1617
      1606      1614      1616      1606      1614      1617      1616      1614      1617
      1611      1617      1614      1611      1617      1619      1614      1617      1619
      1623      1621      1624      1623      1621      1625      1623      1621      1626
      1624      1621      1625      1624      1621      1626      1625      1621      1626
      1621      1626      1628      1621      1626      1634      1628      1626      1634
      1626      1628      1630      1626      1628      1631      1630      1628      1631
      1628      1631      1633      1628      1631      1637      1633      1631      1637
      1626      1634      1636      1626      1634      1637      1636      1634      1637
      1631      1637      1634      1631      1637      1639      1634      1637      1639
      1643      1641      1644      1643      1641      1645      1643      1641      1646
      1644      1641      1645      1644      1641      1646      1645      1641      1646
      1641      1646      1648      1641      1646      1654      1648      1646      1654
      1646      1648      1650      1646      1648      1651      1650      1648      1651
      1648      1651      1653      1648      1651      1657      1653      1651      1657
      1646      1654      1656      1646      1654      1657      1656      1654      1657
      1651      1657      1654      1651      1657      1659      1654      1657      1659
      1663      1661      1664      1663      1661      1665      1663      1661      1666
      1664      1661      1665      1664      1661      1666      1665      1661      1666
      1661      1666      1668      1661      1666      1674      1668      1666      1674
      1666      1668      1670      1666      1668      1671      1670      1668      1671
      1668      1671      1673      1668      1671      1677      1673      1671      1677
      1666      1674      1676      1666      1674      1677      1676      1674      1677
      1671      1677      1674      1671      1677      1679      1674      1677      1679
      1683      1681      1684      1683      1681      1685      1683      1681      1686
      1684      1681      1685      1684      1681      1686      1685      1681      1686
      1681      1686      1688      1681      1686      1694      1688      1686      1694
      1686      1688      1690      1686      1688      1691      1690      1688      1691
      1688      1691      1693      1688      1691      1697      1693      1691      1697
      1686      1694      1696      1686      1694      1697      1696      1694      1697
      1691      1697      1694      1691      1697      1699      1694      1697      1699
      1703      1701      1704      1703      1701      1705      1703      1701      1706
      1704      1701      1705      1704      1701      1706      1705      1701      1706
      1701      1706      1708      1701      1706      1714      1708      1706      1714
      1706      1708      1710      1706      1708      1711      1710      1708      1711
      1708      1711      1713      1708      1711      1717      1713      1711      1717
      1706      1714      1716      1706      1714      1717      1716      1714      1717
      1711      1717      1714      1711      1717      1719      1714      1717      1719
      1723      1721      1724      1723      1721      1725      1723      1721      1726
      1724      1721      1725      1724      1721      1726      1725      1721      1726
      1721      1726      1728      1721      1726      1734      1728      1726      1734
      1726      1728      1730      1726      1728      1731      1730      1728      1731
      1728      1731      1733      1728      1731      1737      1733      1731      1737
      1726      1734      1736      1726      1734      1737      1736      1734      1737
      1731      1737      1734      1731      1737      1739      1734      1737      1739
      1743      1741      1744      1743      1741      1745      1743      1741      1746
      1744      1741      1745      1744      1741      1746      1745      1741      1746
      1741      1746      1748      1741      1746      1754      1748      1746      1754
      1746      1748      1750      1746      1748      1751      1750      1748      1751
      1748      1751      1753      1748      1751      1757      1753      1751      1757
      1746      1754      1756      1746      1754      1757      1756      1754      1757
      1751      1757      1754      1751      1757      1759      1754      1757      1759
      1763      1761      1764      1763      1761      1765      1763      1761      1766
      1764      1761      1765      1764      1761      1766      1765      1761      1766
      1761      1766      1768      1761      1766      1774      1768      1766      1774
      1766      1768      1770      1766      1768      1771      1770      1768      1771
      1768      1771      1773      1768      1771      1777      1773      1771      1777
      1766      1774      1776      1766      1774      1777      1776      1774      1777
      1771      1777      1774      1771      1777      1779      1774      1777      1779
      1783      1781      1784      1783      1781      1785      1783      1781      1786
      1784      1781      1785      1784      1781      1786      1785      1781      1786
      1781      1786      1788      1781      1786      1794      1788      1786      1794
      1786      1788      1790      1786      1788      1791      1790      1788      1791
      1788      1791      1793      1788      1791      1797      1793      1791      1797
      1786      1794      1796      1786      1794      1797      1796      1794      1797
      1791      1797      1794      1791      1797      1799      1794      1797      1799
      1803      1801      1804      1803      1801      1805      1803      1801      1806
      1804      1801      1805      1804      1801      1806      1805      1801      1806
      1801      1806      1808      1801      1806      1814      1808      1806      1814
      1806      1808      1810      1806      1808      1811      1810      1808      1811
      1808      1811      1813      1808      1811      1817      1813      1811      1817
      1806      1814      1816      1806      1814      1817      1816      1814      1817
      1811      1817      1814      1811      1817      1819      1814      1817      1819
      1823      1821      1824      1823      1821      1825      1823      1821      1826
      1824      1821      1825      1824      1821      1826      1825      1821      1826
      1821      1826      1828      1821      1826      1834      1828      1826      1834
      1826      1828      1830      1826      1828      1831      1830      1828      1831
      1828      1831      1833      1828      1831      1837      1833      1831      1837
      1826      1834      1836      1826      1834      1837      1836      1834      1837
      1831      1837      1834      1831      1837      1839      1834      1837      1839
      1843      1841      1844      1843      1841      1845      1843      1841      1846
      1844      1841      1845      1844      1841      1846      1845      1841      1846
      1841      1846      1848      1841      1846      1854      1848      1846      1854
      1846      1848      1850      1846      1848      1851      1850      1848      1851
      1848      1851      1853      1848      1851      1857      1853      1851      1857
      1846      1854      1856      1846      1854      1857      1856      1854      1857
      1851      1857      1854      1851      1857      1859      1854      1857      1859
      1863      1861      1864      1863      1861      1865      1863      1861      1866
      1864      1861      1865      1864      1861      1866      1865      1861      1866
      1861      1866      1868      1861      1866      1874      1868      1866      1874
      1866      1868      1870      1866      1868      1871      1870      1868      1871
      1868      1871      1873      1868      1871      1877      1873      1871      1877
      1866      1874      1876      1866      1874      1877      1876      1874      1877
      1871      1877      1874      1871      1877      1879      1874      1877      1879
      1883      1881      1884      1883      1881      1885      1883      1881      1886
      1884      1881      1885      1884      1881      1886      1885      1881      1886
      1881      1886      1888      1881      1886      1894      1888      1886      1894
      1886      1888      1890      1886      1888      1891      1890      1888      1891
      1888      1891      1893      1888      1891      1897      1893      1891      1897
      1886      1894      1896      1886      1894      1897      1896      1894      1897
      1891      1897      1894      1891      1897      1899      1894      1897      1899
      1903      1901      1904      1903      1901      1905      1903      1901      1906
      1904      1901      1905      1904      1901      1906      1905      1901      1906
      1901      1906      1908      1901      1906      1914      1908      1906      1914
      1906      1908      1910      1906      1908      1911      1910      1908      1911
      1908      1911      1913      1908      1911      1917      1913      1911      1917
      1906      1914      1916      1906      1914      1917      1916      1914      1917
      1911      1917      1914      1911      1917      1919      1914      1917      1919
      1923      1921      1924      1923      1921      1925      1923      1921      1926
      1924      1921      1925      1924      1921      1926      1925      1921      1926
      1921      1926      1928      1921      1926      1934      1928      1926      1934
      1926      1928      1930      1926      1928      1931      1930      1928      1931
      1928      1931      1933      1928      1931      1937      1933      1931      1937
      1926      1934      1936      1926      1934      1937      1936      1934      1937
      1931      1937      1934      1931      1937      1939      1934      1937      1939
      1943      1941      1944      1943      1941      1945      1943      1941      1946
      1944      1941      1945      1944      1941      1946      1945      1941      1946
      1941      1946      1948      1941      1946      1954      1948      1946      1954
      1946      1948      1950      1946      1948      1951      1950      1948      1951
      1948      1951      1953      1948      1951      1957      1953      1951      1957
      1946      1954      1956      1946      1954      1957      1956      1954      1957
      1951      1957      1954      1951      1957      1959      1954      1957      1959
      1963      1961      1964      1963      1961      1965      1963      1961      1966
      1964      1961      1965      1964      1961      1966      1965      1961      1966
      1961      1966      1968      1961      1966      1974      1968      1966      1974
      1966      1968      1970      1966      1968      1971      1970      1968      1971
      1968      1971      1973      1968      1971      1977      1973      1971      1977
      1966      1974      1976      1966      1974      1977      1976      1974      1977
      1971      1977      1974      1971      1977      1979      1974      1977      1979
      1983      1981      1984      1983      1981      1985      1983      1981      1986
      1984      1981      1985      1984      1981      1986      1985      1981      1986
      1981      1986      1988      1981      1986      1994      1988      1986      1994
      1986      1988      1990      1986      1988      1991      1990      1988      1991
      1988      1991      1993      1988      1991      1997      1993      1991      1997
      1986      1994      1996      1986      1994      1997      1996      1994      1997
      1991      1997      1994      1991      1997      1999      1994      1997      1999
      2003      2001      2004      2003      2001      2005      2003      2001      2006
      2004      2001      2005      2004      2001      2006      2005      2001      2006
      2001      2006      2008      2001      2006      2014      2008      2006      2014
      2006      2008      2010      2006      2008      2011      2010      2008      2011
      2008      2011      2013      2008      2011      2017      2013      2011      2017
      2006      2014      2016      2006      2014      2017      2016      2014      2017
      2011      2017      2014      2011      2017      2019      2014      2017      2019
      2023      2021      2024      2023      2021      2025      2023      2021      2026
      2024      2021      2025      2024      2021      2026      2025      2021      2026
      2021      2026      2028      2021      2026      2034      2028      2026      2034
      2026      2028      2030      2026      2028      2031      2030      2028      2031
      2028      2031      2033      2028      2031      2037      2033      2031      2037
      2026      2034      2036      2026      2034      2037      2036      2034      2037
      2031      2037      2034      2031      2037      2039      2034      2037      2039
      2043      2041      2044      2043      2041      2045      2043      2041      2046
      2044      2041      2045      2044      2041      2046      2045      2041      2046
      2041      2046      2048      2041      2046      2054      2048      2046      2054
      2046      2048      2050      2046      2048      2051      2050      2048      2051
      2048      2051      2053      2048      2051      2057      2053      2051      2057
      2046      2054      2056      2046      2054      2057      2056      2054      2057
      2051      2057      2054      2051      2057      2059      2054      2057      2059
      2063      2061      2064      2063      2061      2065      2063      2061      2066
      2064      2061      2065      2064      2061      2066      2065      2061      2066
      2061      2066      2068      2061      2066      2074      2068      2066      2074
      2066      2068      2070      2066      2068      2071      2070      2068      2071
      2068      2071      2073      2068      2071      2077      2073      2071      2077
      2066      2074      2076      2066      2074      2077      2076      2074      2077
      2071      2077      2074      2071      2077      2079      2074      2077      2079
      2083      2081      2084      2083      2081      2085      2083      2081      2086
      2084      2081      2085      2084      2081      2086      2085      2081      2086
      2081      2086      2088      2081      2086      2094      2088      2086      2094
      2086      2088      2090      2086      2088      2091      2090      2088      2091
      2088      2091      2093      2088      2091      2097      2093      2091      2097
      2086      2094      2096      2086      2094      2097      2096      2094      2097
      2091      2097      2094      2091      2097      2099      2094      2097      2099
      2103      2101      2104      2103      2101      2105      2103      2101      2106
      2104      2101      2105      2104      2101      2106      2105      2101      2106
      2101      2106      2108      2101      2106      2114      2108      2106      2114
      2106      2108      2110      2106      2108      2111      2110      2108      2111
      2108      2111      2113      2108      2111      2117      2113      2111      2117
      2106      2114      2116      2106      2114      2117      2116      2114      2117
      2111      2117      2114      2111      2117      2119      2114      2117      2119
      2123      2121      2124      2123      2121      2125      2123      2121      2126
      2124      2121      2125      2124      2121      2126      2125      2121      2126
      2121      2126      2128      2121      2126      2134      2128      2126      2134
      2126      2128      2130      2126      2128      2131      2130      2128      2131
      2128      2131      2133      2128      2131      2137      2133      2131      2137
      2126      2134      2136      2126      2134      2137      2136      2134      2137
      2131      2137      2134      2131      2137      2139      2134      2137      2139
      2143      2141      2144      2143      2141      2145      2143      2141      2146
      2144      2141      2145      2144      2141      2146      2145      2141      2146
      2141      2146      2148      2141      2146      2154      2148      2146      2154
      2146      2148      2150      2146      2148      2151      2150      2148      2151
      2148      2151      2153      2148      2151      2157      2153      2151      2157
      2146      2154      2156      2146      2154      2157      2156      2154      2157
      2151      2157      2154      2151      2157      2159      2154      2157      2159
      2163      2161      2164      2163      2161      2165      2163      2161      2166
      2164      2161      2165      2164      2161      2166      2165      2161      2166
      2161      2166      2168      2161      2166      2174      2168      2166      2174
      2166      2168      2170      2166      2168      2171      2170      2168      2171
      2168      2171      2173      2168      2171      2177      2173      2171      2177
      2166      2174      2176      2166      2174      2177      2176      2174      2177
      2171      2177      2174      2171      2177      2179      2174      2177      2179
      2183      2181      2184      2183      2181      2185      2183      2181      2186
      2184      2181      2185      2184      2181      2186      2185      2181      2186
      2181      2186      2188      2181      2186      2194      2188      2186      2194
      2186      2188      2190      2186      2188      2191      2190      2188      2191
      2188      2191      2193      2188      2191      2197      2193      2191      2197
      2186      2194      2196      2186      2194      2197      2196      2194      2197
      2191      2197      2194      2191      2197      2199      2194      2197      2199
      2203      2201      2204      2203      2201      2205      2203      2201      2206
      2204      2201      2205      2204      2201      2206      2205      2201      2206
      2201      2206      2208      2201      2206      2214      2208      2206      2214
      2206      2208      2210      2206      2208      2211      2210      2208      2211
      2208      2211      2213      2208      2211      2217      2213      2211      2217
      2206      2214      2216      2206      2214      2217      2216      2214      2217
      2211      2217      2214      2211      2217      2219      2214      2217      2219
      2223      2221      2224      2223      2221      2225      2223      2221      2226
      2224      2221      2225      2224      2221      2226      2225      2221      2226
      2221      2226      2228      2221      2226      2234      2228      2226      2234
      2226      2228      2230      2226      2228      2231      2230      2228      2231
      2228      2231      2233      2228      2231      2237      2233      2231      2237
      2226      2234      2236      2226      2234      2237      2236      2234      2237
      2231      2237      2234      2231      2237      2239      2234      2237      2239
      2243      2241      2244      2243      2241      2245      2243      2241      2246
      2244      2241      2245      2244      2241      2246      2245      2241      2246
      2241      2246      2248      2241      2246      2254      2248      2246      2254
      2246      2248      2250      2246      2248      2251      2250      2248      2251
      2248      2251      2253      2248      2251      2257      2253      2251      2257
      2246      2254      2256      2246      2254      2257      2256      2254      2257
      2251      2257      2254      2251      2257      2259      2254      2257      2259
      2263      2261      2264      2263      2261      2265      2263      2261      2266
      2264      2261      2265      2264      2261      2266      2265      2261      2266
      2261      2266      2268      2261      2266      2274      2268      2266      2274
      2266      2268      2270      2266      2268      2271      2270      2268      2271
      2268      2271      2273      2268      2271      2277      2273      2271      2277
      2266      2274      2276      2266      2274      2277      2276      2274      2277
      2271      2277      2274      2271      2277      2279      2274      2277      2279
      2283      2281      2284      2283      2281      2285      2283      2281      2286
      2284      2281      2285      2284      2281      2286      2285      2281      2286
      2281      2286      2288      2281      2286      2294      2288      2286      2294
      2286      2288      2290      2286      2288      2291      2290      2288      2291
      2288      2291      2293      2288      2291      2297      2293      2291      2297
      2286      2294      2296      2286      2294      2297      2296      2294      2297
      2291      2297      2294      2291      2297      2299      2294      2297      2299
      2303      2301      2304      2303      2301      2305      2303      2301      2306
      2304      2301      2305      2304      2301      2306      2305      2301      2306
      2301      2306      2308      2301      2306      2314      2308      2306      2314
      2306      2308      2310      2306      2308      2311      2310      2308      2311
      2308      2311      2313      2308      2311      2317      2313      2311      2317
      2306      2314      2316      2306      2314      2317      2316      2314      2317
      2311      2317      2314      2311      2317      2319      2314      2317      2319
      2323      2321      2324      2323      2321      2325      2323      2321      2326
      2324      2321      2325      2324      2321      2326      2325      2321      2326
      2321      2326      2328      2321      2326      2334      2328      2326      2334
      2326      2328      2330      2326      2328      2331      2330      2328      2331
      2328      2331      2333      2328      2331      2337      2333      2331      2337
      2326      2334      2336      2326      2334      2337      2336      2334      2337
      2331      2337      2334      2331      2337      2339      2334      2337      2339
      2343      2341      2344      2343      2341      2345      2343      2341      2346
      2344      2341      2345      2344      2341      2346      2345      2341      2346
      2341      2346      2348      2341      2346      2354      2348      2346      2354
      2346      2348      2350      2346      2348      2351      2350      2348      2351
      2348      2351      2353      2348      2351      2357      2353      2351      2357
      2346      2354      2356      2346      2354      2357      2356      2354      2357
      2351      2357      2354      2351      2357      2359      2354      2357      2359
      2363      2361      2364      2363      2361      2365      2363      2361      2366
      2364      2361      2365      2364      2361      2366      2365      2361      2366
      2361      2366      2368      2361      2366      2374      2368      2366      2374
      2366      2368      2370      2366      2368      2371      2370      2368      2371
      2368      2371      2373      2368      2371      2377      2373      2371      2377
      2366      2374      2376      2366      2374      2377      2376      2374      2377
      2371      2377      2374      2371      2377      2379      2374      2377      2379
      2383      2381      2384      2383      2381      2385      2383      2381      2386
      2384      2381      2385      2384      2381      2386      2385      2381      2386
      2381      2386      2388      2381      2386      2394      2388      2386      2394
      2386      2388      2390      2386      2388      2391      2390      2388      2391
      2388      2391      2393      2388      2391      2397      2393      2391      2397
      2386      2394      2396      2386      2394      2397      2396      2394      2397
      2391      2397      2394      2391      2397      2399      2394      2397      2399
      2403      2401      2404      2403      2401      2405      2403      2401      2406
      2404      2401      2405      2404      2401      2406      2405      2401      2406
      2401      2406      2408      2401      2406      2414      2408      2406      2414
      2406      2408      2410      2406      2408      2411      2410      2408      2411
      2408      2411      2413      2408      2411      2417      2413      2411      2417
      2406      2414      2416      2406      2414      2417      2416      2414      2417
      2411      2417      2414      2411      2417      2419      2414      2417      2419
      2423      2421      2424      2423      2421      2425      2423      2421      2426
      2424      2421      2425      2424      2421      2426      2425      2421      2426
      2421      2426      2428      2421      2426      2434      2428      2426      2434
      2426      2428      2430      2426      2428      2431      2430      2428      2431
      2428      2431      2433      2428      2431      2437      2433      2431      2437
      2426      2434      2436      2426      2434      2437      2436      2434      2437
      2431      2437      2434      2431      2437      2439      2434      2437      2439
      2443      2441      2444      2443      2441      2445      2443      2441      2446
      2444      2441      2445      2444      2441      2446      2445      2441      2446
      2441      2446      2448      2441      2446      2454      2448      2446      2454
      2446      2448      2450      2446      2448      2451      2450      2448      2451
      2448      2451      2453      2448      2451      2457      2453      2451      2457
      2446      2454      2456      2446      2454      2457      2456      2454      2457
      2451      2457      2454      2451      2457      2459      2454      2457      2459
      2463      2461      2464      2463      2461      2465      2463      2461      2466
      2464      2461      2465      2464      2461      2466      2465      2461      2466
      2461      2466      2468      2461      2466      2474      2468      2466      2474
      2466      2468      2470      2466      2468      2471      2470      2468      2471
      2468      2471      2473      2468      2471      2477      2473      2471      2477
      2466      2474      2476      2466      2474      2477      2476      2474      2477
      2471      2477      2474      2471      2477      2479      2474      2477      2479
      2483      2481      2484      2483      2481      2485      2483      2481      2486
      2484      2481      2485      2484      2481      2486      2485      2481      2486
      2481      2486      2488      2481      2486      2494      2488      2486      2494
      2486      2488      2490      2486      2488      2491      2490      2488      2491
      2488      2491      2493      2488      2491      2497      2493      2491      2497
      2486      2494      2496      2486      2494      2497      2496      2494      2497
      2491      2497      2494      2491      2497      2499      2494      2497      2499
      2503      2501      2504      2503      2501      2505      2503      2501      2506
      2504      2501      2505      2504      2501      2506      2505      2501      2506
      2501      2506      2508      2501      2506      2514      2508      2506      2514
      2506      2508      2510      2506      2508      2511      2510      2508      2511
      2508      2511      2513      2508      2511      2517      2513      2511      2517
      2506      2514      2516      2506      2514      2517      2516      2514      2517
      2511      2517      2514      2511      2517      2519      2514      2517      2519
      2523      2521      2524      2523      2521      2525      2523      2521      2526
      2524      2521      2525      2524      2521      2526      2525      2521      2526
      2521      2526      2528      2521      2526      2534      2528      2526      2534
      2526      2528      2530      2526      2528      2531      2530      2528      2531
      2528      2531      2533      2528      2531      2537      2533      2531      2537
      2526      2534      2536      2526      2534      2537      2536      2534      2537
      2531      2537      2534      2531      2537      2539      2534      2537      2539
      2543      2541      2544      2543      2541      2545      2543      2541      2546
      2544      2541      2545      2544      2541      2546      2545      2541      2546
      2541      2546      2548      2541      2546      2554      2548      2546      2554
      2546      2548      2550      2546      2548      2551      2550      2548      2551
      2548      2551      2553      2548      2551      2557      2553      2551      2557
      2546      2554      2556      2546      2554      2557      2556      2554      2557
      2551      2557      2554      2551      2557      2559      2554      2557      2559
      2563      2561      2564      2563      2561      2565      2563      2561      2566
      2564      2561      2565      2564      2561      2566      2565      2561      2566
      2561      2566      2568      2561      2566      2574      2568      2566      2574
      2566      2568      2570      2566      2568      2571      2570      2568      2571
      2568      2571      2573      2568      2571      2577      2573      2571      2577
      2566      2574      2576      2566      2574      2577      2576      2574      2577
      2571      2577      2574      2571      2577      2579      2574      2577      2579
      2583      2581      2584      2583      2581      2585      2583      2581      2586
      2584      2581      2585      2584      2581      2586      2585      2581      2586
      2581      2586      2588      2581      2586      2594      2588      2586      2594
      2586      2588      2590      2586      2588      2591      2590      2588      2591
      2588      2591      2593      2588      2591      2597      2593      2591      2597
      2586      2594      2596      2586      2594      2597      2596      2594      2597
      2591      2597      2594      2591      2597      2599      2594      2597      2599
      2603      2601      2604      2603      2601      2605      2603      2601      2606
      2604      2601      2605      2604      2601      2606      2605      2601      2606
      2601      2606      2608      2601      2606      2614      2608      2606      2614
      2606      2608      2610      2606      2608      2611      2610      2608      2611
      2608      2611      2613      2608      2611      2617      2613      2611      2617
      2606      2614      2616      2606      2614      2617      2616      2614      2617
      2611      2617      2614      2611      2617      2619      2614      2617      2619
      2623      2621      2624      2623      2621      2625      2623      2621      2626
      2624      2621      2625      2624      2621      2626      2625      2621      2626
      2621      2626      2628      2621      2626      2634      2628      2626      2634
      2626      2628      2630      2626      2628      2631      2630      2628      2631
      2628      2631      2633      2628      2631      2637      2633      2631      2637
      2626      2634      2636      2626      2634      2637      2636      2634      2637
      2631      2637      2634      2631      2637      2639      2634      2637      2639
      2643      2641      2644      2643      2641      2645      2643      2641      2646
      2644      2641      2645      2644      2641      2646      2645      2641      2646
      2641      2646      2648      2641      2646      2654      2648      2646      2654
      2646      2648      2650      2646      2648      2651      2650      2648      2651
      2648      2651      2653      2648      2651      2657      2653      2651      2657
      2646      2654      2656      2646      2654      2657      2656      2654      2657
      2651      2657      2654      2651      2657      2659      2654      2657      2659
      2663      2661      2664      2663      2661      2665      2663      2661      2666
      2664      2661      2665      2664      2661      2666      2665      2661      2666
      2661      2666      2668      2661      2666      2674      2668      2666      2674
      2666      2668      2670      2666      2668      2671      2670      2668      2671
      2668      2671      2673      2668      2671      2677      2673      2671      2677
      2666      2674      2676      2666      2674      2677      2676      2674      2677
      2671      2677      2674      2671      2677      2679      2674      2677      2679
      2683      2681      2684      2683      2681      2685      2683      2681      2686
      2684      2681      2685      2684      2681      2686      2685      2681      2686
      2681      2686      2688      2681      2686      2694      2688      2686      2694
      2686      2688      2690      2686      2688      2691      2690      2688      2691
      2688      2691      2693      2688      2691      2697      2693      2691      2697
      2686      2694      2696      2686      2694      2697      2696      2694      2697
      2691      2697      2694      2691      2697      2699      2694      2697      2699
      2703      2701      2704      2703      2701      2705      2703      2701      2706
      2704      2701      2705      2704      2701      2706      2705      2701      2706
      2701      2706      2708      2701      2706      2714      2708      2706      2714
      2706      2708      2710      2706      2708      2711      2710      2708      2711
      2708      2711      2713      2708      2711      2717      2713      2711      2717
      2706      2714      2716      2706      2714      2717      2716      2714      2717
      2711      2717      2714      2711      2717      2719      2714      2717      2719
      2723      2721      2724      2723      2721      2725      2723      2721      2726
      2724      2721      2725      2724      2721      2726      2725      2721      2726
      2721      2726      2728      2721      2726      2734      2728      2726      2734
      2726      2728      2730      2726      2728      2731      2730      2728      2731
      2728      2731      2733      2728      2731      2737      2733      2731      2737
      2726      2734      2736      2726      2734      2737      2736      2734      2737
      2731      2737      2734      2731      2737      2739      2734      2737      2739
      2743      2741      2744      2743      2741      2745      2743      2741      2746
      2744      2741      2745      2744      2741      2746      2745      2741      2746
      2741      2746      2748      2741      2746      2754      2748      2746      2754
      2746      2748      2750      2746      2748      2751      2750      2748      2751
      2748      2751      2753      2748      2751      2757      2753      2751      2757
      2746      2754      2756      2746      2754      2757      2756      2754      2757
      2751      2757      2754      2751      2757      2759      2754      2757      2759
      2763      2761      2764      2763      2761      2765      2763      2761      2766
      2764      2761      2765      2764      2761      2766      2765      2761      2766
      2761      2766      2768      2761      2766      2774      2768      2766      2774
      2766      2768      2770      2766      2768      2771      2770      2768      2771
      2768      2771      2773      2768      2771      2777      2773      2771      2777
      2766      2774      2776      2766      2774      2777      2776      2774      2777
      2771      2777      2774      2771      2777      2779      2774      2777      2779
      2783      2781      2784      2783      2781      2785      2783      2781      2786
      2784      2781      2785      2784      2781      2786      2785      2781      2786
      2781      2786      2788      2781      2786      2794      2788      2786      2794
      2786      2788      2790      2786      2788      2791      2790      2788      2791
      2788      2791      2793      2788      2791      2797      2793      2791      2797
      2786      2794      2796      2786      2794      2797      2796      2794      2797
      2791      2797      2794      2791      2797      2799      2794      2797      2799
      2803      2801      2804      2803      2801      2805      2803      2801      2806
      2804      2801      2805      2804      2801      2806      2805      2801      2806
      2801      2806      2808      2801      2806      2814      2808      2806      2814
      2806      2808      2810      2806      2808      2811      2810      2808      2811
      2808      2811      2813      2808      2811      2817      2813      2811      2817
      2806      2814      2816      2806      2814      2817      2816      2814      2817
      2811      2817      2814      2811      2817      2819      2814      2817      2819
      2823      2821      2824      2823      2821      2825      2823      2821      2826
      2824      2821      2825      2824      2821      2826      2825      2821      2826
      2821      2826      2828      2821      2826      2834      2828      2826      2834
      2826      2828      2830      2826      2828      2831      2830      2828      2831
      2828      2831      2833      2828      2831      2837      2833      2831      2837
      2826      2834      2836      2826      2834      2837      2836      2834      2837
      2831      2837      2834      2831      2837      2839      2834      2837      2839
      2843      2841      2844      2843      2841      2845      2843      2841      2846
      2844      2841      2845      2844      2841      2846      2845      2841      2846
      2841      2846      2848      2841      2846      2854      2848      2846      2854
      2846      2848      2850      2846      2848      2851      2850      2848      2851
      2848      2851      2853      2848      2851      2857      2853      2851      2857
      2846      2854      2856      2846      2854      2857      2856      2854      2857
      2851      2857      2854      2851      2857      2859      2854      2857      2859
      2863      2861      2864      2863      2861      2865      2863      2861      2866
      2864      2861      2865      2864      2861      2866      2865      2861      2866
      2861      2866      2868      2861      2866      2874      2868      2866      2874
      2866      2868      2870      2866      2868      2871      2870      2868      2871
      2868      2871      2873      2868      2871      2877      2873      2871      2877
      2866      2874      2876      2866      2874      2877      2876      2874      2877
      2871      2877      2874      2871      2877      2879      2874      2877      2879
      2883      2881      2884      2883      2881      2885      2883      2881      2886
      2884      2881      2885      2884      2881      2886      2885      2881      2886
      2881      2886      2888      2881      2886      2894      2888      2886      2894
      2886      2888      2890      2886      2888      2891      2890      2888      2891
      2888      2891      2893      2888      2891      2897      2893      2891      2897
      2886      2894      2896      2886      2894      2897      2896      2894      2897
      2891      2897      2894      2891      2897      2899      2894      2897      2899
      2903      2901      2904      2903      2901      2905      2903      2901      2906
      2904      2901      2905      2904      2901      2906      2905      2901      2906
      2901      2906      2908      2901      2906      2914      2908      2906      2914
      2906      2908      2910      2906      2908      2911      2910      2908      2911
      2908      2911      2913      2908      2911      2917      2913      2911      2917
      2906      2914      2916      2906      2914      2917      2916      2914      2917
      2911      2917      2914      2911      2917      2919      2914      2917      2919
      2923      2921      2924      2923      2921      2925      2923      2921      2926
      2924      2921      2925      2924      2921      2926      2925      2921      2926
      2921      2926      2928      2921      2926      2934      2928      2926      2934
      2926      2928      2930      2926      2928      2931      2930      2928      2931
      2928      2931      2933      2928      2931      2937      2933      2931      2937
      2926      2934      2936      2926      2934      2937      2936      2934      2937
      2931      2937      2934      2931      2937      2939      2934      2937      2939
      2943      2941      2944      2943      2941      2945      2943      2941      2946
      2944      2941      2945      2944      2941      2946      2945      2941      2946
      2941      2946      2948      2941      2946      2954      2948      2946      2954
      2946      2948      2950      2946      2948      2951      2950      2948      2951
      2948      2951      2953      2948      2951      2957      2953      2951      2957
      2946      2954      2956      2946      2954      2957      2956      2954      2957
      2951      2957      2954      2951      2957      2959      2954      2957      2959
      2963      2961      2964      2963      2961      2965      2963      2961      2966
      2964      2961      2965      2964      2961      2966      2965      2961      2966
      2961      2966      2968      2961      2966      2974      2968      2966      2974
      2966      2968      2970      2966      2968      2971      2970      2968      2971
      2968      2971      2973      2968      2971      2977      2973      2971      2977
      2966      2974      2976      2966      2974      2977      2976      2974      2977
      2971      2977      2974      2971      2977      2979      2974      2977      2979
      2983      2981      2984      2983      2981      2985      2983      2981      2986
      2984      2981      2985      2984      2981      2986      2985      2981      2986
      2981      2986      2988      2981      2986      2994      2988      2986      2994
      2986      2988      2990      2986      2988      2991      2990      2988      2991
      2988      2991      2993      2988      2991      2997      2993      2991      2997
      2986      2994      2996      2986      2994      2997      2996      2994      2997
      2991      2997      2994      2991      2997      2999      2994      2997      2999
      3003      3001      3004      3003      3001      3005      3003      3001      3006
      3004      3001      3005      3004      3001      3006      3005      3001      3006
      3001      3006      3008      3001      3006      3014      3008      3006      3014
      3006      3008      3010      3006      3008      3011      3010      3008      3011
      3008      3011      3013      3008      3011      3017      3013      3011      3017
      3006      3014      3016      3006      3014      3017      3016      3014      3017
      3011      3017      3014      3011      3017      3019      3014      3017      3019
      3023      3021      3024      3023      3021      3025      3023      3021      3026
      3024      3021      3025      3024      3021      3026      3025      3021      3026
      3021      3026      3028      3021      3026      3034      3028      3026      3034
      3026      3028      3030      3026      3028      3031      3030      3028      3031
      3028      3031      3033      3028      3031      3037      3033      3031      3037
      3026      3034      3036      3026      3034      3037      3036      3034      3037
      3031      3037      3034      3031      3037      3039      3034      3037      3039
      3043      3041      3044      3043      3041      3045      3043      3041      3046
      3044      3041      3045      3044      3041      3046      3045      3041      3046
      3041      3046      3048      3041      3046      3054      3048      3046      3054
      3046      3048      3050      3046      3048      3051      3050      3048      3051
      3048      3051      3053      3048      3051      3057      3053      3051      3057
      3046      3054      3056      3046      3054      3057      3056      3054      3057
      3051      3057      3054      3051      3057      3059      3054      3057      3059
      3063      3061      3064      3063      3061      3065      3063      3061      3066
      3064      3061      3065      3064      3061      3066      3065      3061      3066
      3061      3066      3068      3061      3066      3074      3068      3066      3074
      3066      3068      3070      3066      3068      3071      3070      3068      3071
      3068      3071      3073      3068      3071      3077      3073      3071      3077
      3066      3074      3076      3066      3074      3077      3076      3074      3077
      3071      3077      3074      3071      3077      3079      3074      3077      3079
      3083      3081      3084      3083      3081      3085      3083      3081      3086
      3084      3081      3085      3084      3081      3086      3085      3081      3086
      3081      3086      3088      3081      3086      3094      3088      3086      3094
      3086      3088      3090      3086      3088      3091      3090      3088      3091
      3088      3091      3093      3088      3091      3097      3093      3091      3097
      3086      3094      3096      3086      3094      3097      3096      3094      3097
      3091      3097      3094      3091      3097      3099      3094      3097      3099
      3103      3101      3104      3103      3101      3105      3103      3101      3106
      3104      3101      3105      3104      3101      3106      3105      3101      3106
      3101      3106      3108      3101      3106      3114      3108      3106      3114
      3106      3108      3110      3106      3108      3111      3110      3108      3111
      3108      3111      3113      3108      3111      3117      3113      3111      3117
      3106      3114      3116      3106      3114      3117      3116      3114      3117
      3111      3117      3114      3111      3117      3119      3114      3117      3119
      3123      3121      3124      3123      3121      3125      3123      3121      3126
      3124      3121      3125      3124      3121      3126      3125      3121      3126
      3121      3126      3128      3121      3126      3134      3128      3126      3134
      3126      3128      3130      3126      3128      3131      3130      3128      3131
      3128      3131      3133      3128      3131      3137      3133      3131      3137
      3126      3134      3136      3126      3134      3137      3136      3134      3137
      3131      3137      3134      3131      3137      3139      3134      3137      3139
      3143      3141      3144      3143      3141      3145      3143      3141      3146
      3144      3141      3145      3144      3141      3146      3145      3141      3146
      3141      3146      3148      3141      3146      3154      3148      3146      3154
      3146      3148      3150      3146      3148      3151      3150      3148      3151
      3148      3151      3153      3148      3151      3157      3153      3151      3157
      3146      3154      3156      3146      3154      3157      3156      3154      3157
      3151      3157      3154      3151      3157      3159      3154      3157      3159
      3163      3161      3164      3163      3161      3165      3163      3161      3166
      3164      3161      3165      3164      3161      3166      3165      3161      3166
      3161      3166      3168      3161      3166      3174      3168      3166      3174
      3166      3168      3170      3166      3168      3171      3170      3168      3171
      3168      3171      3173      3168      3171      3177      3173      3171      3177
      3166      3174      3176      3166      3174      3177      3176      3174      3177
      3171      3177      3174      3171      3177      3179      3174      3177      3179
      3183      3181      3184      3183      3181      3185      3183      3181      3186
      3184      3181      3185      3184      3181      3186      3185      3181      3186
      3181      3186      3188      3181      3186      3194      3188      3186      3194
      3186      3188      3190      3186      3188      3191      3190      3188      3191
      3188      3191      3193      3188      3191      3197      3193      3191      3197
      3186      3194      3196      3186      3194      3197      3196      3194      3197
      3191      3197      3194      3191      3197      3199      3194      3197      3199
      3203      3201      3204      3203      3201      3205      3203      3201      3206
      3204      3201      3205      3204      3201      3206      3205      3201      3206
      3201      3206      3208      3201      3206      3214      3208      3206      3214
      3206      3208      3210      3206      3208      3211      3210      3208      3211
      3208      3211      3213      3208      3211      3217      3213      3211      3217
      3206      3214      3216      3206      3214      3217      3216      3214      3217
      3211      3217      3214      3211      3217      3219      3214      3217      3219
      3223      3221      3224      3223      3221      3225      3223      3221      3226
      3224      3221      3225      3224      3221      3226      3225      3221      3226
      3221      3226      3228      3221      3226      3234      3228      3226      3234
      3226      3228      3230      3226      3228      3231      3230      3228      3231
      3228      3231      3233      3228      3231      3237      3233      3231      3237
      3226      3234      3236      3226      3234      3237      3236      3234      3237
      3231      3237      3234      3231      3237      3239      3234      3237      3239
      3243      3241      3244      3243      3241      3245      3243      3241      3246
      3244      3241      3245      3244      3241      3246      3245      3241      3246
      3241      3246      3248      3241      3246      3254      3248      3246      3254
      3246      3248      3250      3246      3248      3251      3250      3248      3251
      3248      3251      3253      3248      3251      3257      3253      3251      3257
      3246      3254      3256      3246      3254      3257      3256      3254      3257
      3251      3257      3254      3251      3257      3259      3254      3257      3259
      3263      3261      3264      3263      3261      3265      3263      3261      3266
      3264      3261      3265      3264      3261      3266      3265      3261      3266
      3261      3266      3268      3261      3266      3274      3268      3266      3274
      3266      3268      3270      3266      3268      3271      3270      3268      3271
      3268      3271      3273      3268      3271      3277      3273      3271      3277
      3266      3274      3276      3266      3274      3277      3276      3274      3277
      3271      3277      3274      3271      3277      3279      3274      3277      3279
      3283      3281      3284      3283      3281      3285      3283      3281      3286
      3284      3281      3285      3284      3281      3286      3285      3281      3286
      3281      3286      3288      3281      3286      3294      3288      3286      3294
      3286      3288      3290      3286      3288      3291      3290      3288      3291
      3288      3291      3293      3288      3291      3297      3293      3291      3297
      3286      3294      3296      3286      3294      3297      3296      3294      3297
      3291      3297      3294      3291      3297      3299      3294      3297      3299
      3303      3301      3304      3303      3301      3305      3303      3301      3306
      3304      3301      3305      3304      3301      3306      3305      3301      3306
      3301      3306      3308      3301      3306      3314      3308      3306      3314
      3306      3308      3310      3306      3308      3311      3310      3308      3311
      3308      3311      3313      3308      3311      3317      3313      3311      3317
      3306      3314      3316      3306      3314      3317      3316      3314      3317
      3311      3317      3314      3311      3317      3319      3314      3317      3319
      3323      3321      3324      3323      3321      3325      3323      3321      3326
      3324      3321      3325      3324      3321      3326      3325      3321      3326
      3321      3326      3328      3321      3326      3334      3328      3326      3334
      3326      3328      3330      3326      3328      3331      3330      3328      3331
      3328      3331      3333      3328      3331      3337      3333      3331      3337
      3326      3334      3336      3326      3334      3337      3336      3334      3337
      3331      3337      3334      3331      3337      3339      3334      3337      3339
      3343      3341      3344      3343      3341      3345      3343      3341      3346
      3344      3341      3345      3344      3341      3346      3345      3341      3346
      3341      3346      3348      3341      3346      3354      3348      3346      3354
      3346      3348      3350      3346      3348      3351      3350      3348      3351
      3348      3351      3353      3348      3351      3357      3353      3351      3357
      3346      3354      3356      3346      3354      3357      3356      3354      3357
      3351      3357      3354      3351      3357      3359      3354      3357      3359
      3363      3361      3364      3363      3361      3365      3363      3361      3366
      3364      3361      3365      3364      3361      3366      3365      3361      3366
      3361      3366      3368      3361      3366      3374      3368      3366      3374
      3366      3368      3370      3366      3368      3371      3370      3368      3371
      3368      3371      3373      3368      3371      3377      3373      3371      3377
      3366      3374      3376      3366      3374      3377      3376      3374      3377
      3371      3377      3374      3371      3377      3379      3374      3377      3379
      3383      3381      3384      3383      3381      3385      3383      3381      3386
      3384      3381      3385      3384      3381      3386      3385      3381      3386
      3381      3386      3388      3381      3386      3394      3388      3386      3394
      3386      3388      3390      3386      3388      3391      3390      3388      3391
      3388      3391      3393      3388      3391      3397      3393      3391      3397
      3386      3394      3396      3386      3394      3397      3396      3394      3397
      3391      3397      3394      3391      3397      3399      3394      3397      3399
      3403      3401      3404      3403      3401      3405      3403      3401      3406
      3404      3401      3405      3404      3401      3406      3405      3401      3406
      3401      3406      3408      3401      3406      3414      3408      3406      3414
      3406      3408      3410      3406      3408      3411      3410      3408      3411
      3408      3411      3413      3408      3411      3417      3413      3411      3417
      3406      3414      3416      3406      3414      3417      3416      3414      3417
      3411      3417      3414      3411      3417      3419      3414      3417      3419
      3423      3421      3424      3423      3421      3425      3423      3421      3426
      3424      3421      3425      3424      3421      3426      3425      3421      3426
      3421      3426      3428      3421      3426      3434      3428      3426      3434
      3426      3428      3430      3426      3428      3431      3430      3428      3431
      3428      3431      3433      3428      3431      3437      3433      3431      3437
      3426      3434      3436      3426      3434      3437      3436      3434      3437
      3431      3437      3434      3431      3437      3439      3434      3437      3439
      3443      3441      3444      3443      3441      3445      3443      3441      3446
      3444      3441      3445      3444      3441      3446      3445      3441      3446
      3441      3446      3448      3441      3446      3454      3448      3446      3454
      3446      3448      3450      3446      3448      3451      3450      3448      3451
      3448      3451      3453      3448      3451      3457      3453      3451      3457
      3446      3454      3456      3446      3454      3457      3456      3454      3457
      3451      3457      3454      3451      3457      3459      3454      3457      3459
      3463      3461      3464      3463      3461      3465      3463      3461      3466
      3464      3461      3465      3464      3461      3466      3465      3461      3466
      3461      3466      3468      3461      3466      3474      3468      3466      3474
      3466      3468      3470      3466      3468      3471      3470      3468      3471
      3468      3471      3473      3468      3471      3477      3473      3471      3477
      3466      3474      3476      3466      3474      3477      3476      3474      3477
      3471      3477      3474      3471      3477      3479      3474      3477      3479
      3483      3481      3484      3483      3481      3485      3483      3481      3486
      3484      3481      3485      3484      3481      3486      3485      3481      3486
      3481      3486      3488      3481      3486      3494      3488      3486      3494
      3486      3488      3490      3486      3488      3491      3490      3488      3491
      3488      3491      3493      3488      3491      3497      3493      3491      3497
      3486      3494      3496      3486      3494      3497      3496      3494      3497
      3491      3497      3494      3491      3497      3499      3494      3497      3499
      3503      3501      3504      3503      3501      3505      3503      3501      3506
      3504      3501      3505      3504      3501      3506      3505      3501      3506
      3501      3506      3508      3501      3506      3514      3508      3506      3514
      3506      3508      3510      3506      3508      3511      3510      3508      3511
      3508      3511      3513      3508      3511      3517      3513      3511      3517
      3506      3514      3516      3506      3514      3517      3516      3514      3517
      3511      3517      3514      3511      3517      3519      3514      3517      3519
      3523      3521      3524      3523      3521      3525      3523      3521      3526
      3524      3521      3525      3524      3521      3526      3525      3521      3526
      3521      3526      3528      3521      3526      3534      3528      3526      3534
      3526      3528      3530      3526      3528      3531      3530      3528      3531
      3528      3531      3533      3528      3531      3537      3533      3531      3537
      3526      3534      3536      3526      3534      3537      3536      3534      3537
      3531      3537      3534      3531      3537      3539      3534      3537      3539
      3543      3541      3544      3543      3541      3545      3543      3541      3546
      3544      3541      3545      3544      3541      3546      3545      3541      3546
      3541      3546      3548      3541      3546      3554      3548      3546      3554
      3546      3548      3550      3546      3548      3551      3550      3548      3551
      3548      3551      3553      3548      3551      3557      3553      3551      3557
      3546      3554      3556      3546      3554      3557      3556      3554      3557
      3551      3557      3554      3551      3557      3559      3554      3557      3559
      3563      3561      3564      3563      3561      3565      3563      3561      3566
      3564      3561      3565      3564      3561      3566      3565      3561      3566
      3561      3566      3568      3561      3566      3574      3568      3566      3574
      3566      3568      3570      3566      3568      3571      3570      3568      3571
      3568      3571      3573      3568      3571      3577      3573      3571      3577
      3566      3574      3576      3566      3574      3577      3576      3574      3577
      3571      3577      3574      3571      3577      3579      3574      3577      3579
      3583      3581      3584      3583      3581      3585      3583      3581      3586
      3584      3581      3585      3584      3581      3586      3585      3581      3586
      3581      3586      3588      3581      3586      3594      3588      3586      3594
      3586      3588      3590      3586      3588      3591      3590      3588      3591
      3588      3591      3593      3588      3591      3597      3593      3591      3597
      3586      3594      3596      3586      3594      3597      3596      3594      3597
      3591      3597      3594      3591      3597      3599      3594      3597      3599
      3603      3601      3604      3603      3601      3605      3603      3601      3606
      3604      3601      3605      3604      3601      3606      3605      3601      3606
      3601      3606      3608      3601      3606      3614      3608      3606      3614
      3606      3608      3610      3606      3608      3611      3610      3608      3611
      3608      3611      3613      3608      3611      3617      3613      3611      3617
      3606      3614      3616      3606      3614      3617      3616      3614      3617
      3611      3617      3614      3611      3617      3619      3614      3617      3619
      3623      3621      3624      3623      3621      3625      3623      3621      3626
      3624      3621      3625      3624      3621      3626      3625      3621      3626
      3621      3626      3628      3621      3626      3634      3628      3626      3634
      3626      3628      3630      3626      3628      3631      3630      3628      3631
      3628      3631      3633      3628      3631      3637      3633      3631      3637
      3626      3634      3636      3626      3634      3637      3636      3634      3637
      3631      3637      3634      3631      3637      3639      3634      3637      3639
      3643      3641      3644      3643      3641      3645      3643      3641      3646
      3644      3641      3645      3644      3641      3646      3645      3641      3646
      3641      3646      3648      3641      3646      3654      3648      3646      3654
      3646      3648      3650      3646      3648      3651      3650      3648      3651
      3648      3651      3653      3648      3651      3657      3653      3651      3657
      3646      3654      3656      3646      3654      3657      3656      3654      3657
      3651      3657      3654      3651      3657      3659      3654      3657      3659
      3663      3661      3664      3663      3661      3665      3663      3661      3666
      3664      3661      3665      3664      3661      3666      3665      3661      3666
      3661      3666      3668      3661      3666      3674      3668      3666      3674
      3666      3668      3670      3666      3668      3671      3670      3668      3671
      3668      3671      3673      3668      3671      3677      3673      3671      3677
      3666      3674      3676      3666      3674      3677      3676      3674      3677
      3671      3677      3674      3671      3677      3679      3674      3677      3679
      3683      3681      3684      3683      3681      3685      3683      3681      3686
      3684      3681      3685      3684      3681      3686      3685      3681      3686
      3681      3686      3688      3681      3686      3694      3688      3686      3694
      3686      3688      3690      3686      3688      3691      3690      3688      3691
      3688      3691      3693      3688      3691      3697      3693      3691      3697
      3686      3694      3696      3686      3694      3697      3696      3694      3697
      3691      3697      3694      3691      3697      3699      3694      3697      3699
      3703      3701      3704      3703      3701      3705      3703      3701      3706
      3704      3701      3705      3704      3701      3706      3705      3701      3706
      3701      3706      3708      3701      3706      3714      3708      3706      3714
      3706      3708      3710      3706      3708      3711      3710      3708      3711
      3708      3711      3713      3708      3711      3717      3713      3711      3717
      3706      3714      3716      3706      3714      3717      3716      3714      3717
      3711      3717      3714      3711      3717      3719      3714      3717      3719
      3723      3721      3724      3723      3721      3725      3723      3721      3726
      3724      3721      3725      3724      3721      3726      3725      3721      3726
      3721      3726      3728      3721      3726      3734      3728      3726      3734
      3726      3728      3730      3726      3728      3731      3730      3728      3731
      3728      3731      3733      3728      3731      3737      3733      3731      3737
      3726      3734      3736      3726      3734      3737      3736      3734      3737
      3731      3737      3734      3731      3737      3739      3734      3737      3739
      3743      3741      3744      3743      3741      3745      3743      3741      3746
      3744      3741      3745      3744      3741      3746      3745      3741      3746
      3741      3746      3748      3741      3746      3754      3748      3746      3754
      3746      3748      3750      3746      3748      3751      3750      3748      3751
      3748      3751      3753      3748      3751      3757      3753      3751      3757
      3746      3754      3756      3746      3754      3757      3756      3754      3757
      3751      3757      3754      3751      3757      3759      3754      3757      3759
      3763      3761      3764      3763      3761      3765      3763      3761      3766
      3764      3761      3765      3764      3761      3766      3765      3761      3766
      3761      3766      3768      3761      3766      3774      3768      3766      3774
      3766      3768      3770      3766      3768      3771      3770      3768      3771
      3768      3771      3773      3768      3771      3777      3773      3771      3777
      3766      3774      3776      3766      3774      3777      3776      3774      3777
      3771      3777      3774      3771      3777      3779      3774      3777      3779
      3783      3781      3784      3783      3781      3785      3783      3781      3786
      3784      3781      3785      3784      3781      3786      3785      3781      3786
      3781      3786      3788      3781      3786      3794      3788      3786      3794
      3786      3788      3790      3786      3788      3791      3790      3788      3791
      3788      3791      3793      3788      3791      3797      3793      3791      3797
      3786      3794      3796      3786      3794      3797      3796      3794      3797
      3791      3797      3794      3791      3797      3799      3794      3797      3799
      3803      3801      3804      3803      3801      3805      3803      3801      3806
      3804      3801      3805      3804      3801      3806      3805      3801      3806
      3801      3806      3808      3801      3806      3814      3808      3806      3814
      3806      3808      3810      3806      3808      3811      3810      3808      3811
      3808      3811      3813      3808      3811      3817      3813      3811      3817
      3806      3814      3816      3806      3814      3817      3816      3814      3817
      3811      3817      3814      3811      3817      3819      3814      3817      3819
      3823      3821      3824      3823      3821      3825      3823      3821      3826
      3824      3821      3825      3824      3821      3826      3825      3821      3826
      3821      3826      3828      3821      3826      3834      3828      3826      3834
      3826      3828      3830      3826      3828      3831      3830      3828      3831
      3828      3831      3833      3828      3831      3837      3833      3831      3837
      3826      3834      3836      3826      3834      3837      3836      3834      3837
      3831      3837      3834      3831      3837      3839      3834      3837      3839
      3843      3841      3844      3843      3841      3845      3843      3841      3846
      3844      3841      3845      3844      3841      3846      3845      3841      3846
      3841      3846      3848      3841      3846      3854      3848      3846      3854
      3846      3848      3850      3846      3848      3851      3850      3848      3851
      3848      3851      3853      3848      3851      3857      3853      3851      3857
      3846      3854      3856      3846      3854      3857      3856      3854      3857
      3851      3857      3854      3851      3857      3859      3854      3857      3859
      3863      3861      3864      3863      3861      3865      3863      3861      3866
      3864      3861      3865      3864      3861      3866      3865      3861      3866
      3861      3866      3868      3861      3866      3874      3868      3866      3874
      3866      3868      3870      3866      3868      3871      3870      3868      3871
      3868      3871      3873      3868      3871      3877      3873      3871      3877
      3866      3874      3876      3866      3874      3877      3876      3874      3877
      3871      3877      3874      3871      3877      3879      3874      3877      3879
      3883      3881      3884      3883      3881      3885      3883      3881      3886
      3884      3881      3885      3884      3881      3886      3885      3881      3886
      3881      3886      3888      3881      3886      3894      3888      3886      3894
      3886      3888      3890      3886      3888      3891      3890      3888      3891
      3888      3891      3893      3888      3891      3897      3893      3891      3897
      3886      3894      3896      3886      3894      3897      3896      3894      3897
      3891      3897      3894      3891      3897      3899      3894      3897      3899
      3903      3901      3904      3903      3901      3905      3903      3901      3906
      3904      3901      3905      3904      3901      3906      3905      3901      3906
      3901      3906      3908      3901      3906      3914      3908      3906      3914
      3906      3908      3910      3906      3908      3911      3910      3908      3911
      3908      3911      3913      3908      3911      3917      3913      3911      3917
      3906      3914      3916      3906      3914      3917      3916      3914      3917
      3911      3917      3914      3911      3917      3919      3914      3917      3919
      3923      3921      3924      3923      3921      3925      3923      3921      3926
      3924      3921      3925      3924      3921      3926      3925      3921      3926
      3921      3926      3928      3921      3926      3934      3928      3926      3934
      3926      3928      3930      3926      3928      3931      3930      3928      3931
      3928      3931      3933      3928      3931      3937      3933      3931      3937
      3926      3934      3936      3926      3934      3937      3936      3934      3937
      3931      3937      3934      3931      3937      3939      3934      3937      3939
      3943      3941      3944      3943      3941      3945      3943      3941      3946
      3944      3941      3945      3944      3941      3946      3945      3941      3946
      3941      3946      3948      3941      3946      3954      3948      3946      3954
      3946      3948      3950      3946      3948      3951      3950      3948      3951
      3948      3951      3953      3948      3951      3957      3953      3951      3957
      3946      3954      3956      3946      3954      3957      3956      3954      3957
      3951      3957      3954      3951      3957      3959      3954      3957      3959
      3963      3961      3964      3963      3961      3965      3963      3961      3966
      3964      3961      3965      3964      3961      3966      3965      3961      3966
      3961      3966      3968      3961      3966      3974      3968      3966      3974
      3966      3968      3970      3966      3968      3971      3970      3968      3971
      3968      3971      3973      3968      3971      3977      3973      3971      3977
      3966      3974      3976      3966      3974      3977      3976      3974      3977
      3971      3977      3974      3971      3977      3979      3974      3977      3979
      3983      3981      3984      3983      3981      3985      3983      3981      3986
      3984      3981      3985      3984      3981      3986      3985      3981      3986
      3981      3986      3988      3981      3986      3994      3988      3986      3994
      3986      3988      3990      3986      3988      3991      3990      3988      3991
      3988      3991      3993      3988      3991      3997      3993      3991      3997
      3986      3994      3996      3986      3994      3997      3996      3994      3997
      3991      3997      3994      3991      3997      3999      3994      3997      3999
      4003      4001      4004      4003      4001      4005      4003      4001      4006
      4004      4001      4005      4004      4001      4006      4005      4001      4006
      4001      4006      4008      4001      4006      4014      4008      4006      4014
      4006      4008      4010      4006      4008      4011      4010      4008      4011
      4008      4011      4013      4008      4011      4017      4013      4011      4017
      4006      4014      4016      4006      4014      4017      4016      4014      4017
      4011      4017      4014      4011      4017      4019      4014      4017      4019
      4023      4021      4024      4023      4021      4025      4023      4021      4026
      4024      4021      4025      4024      4021      4026      4025      4021      4026
      4021      4026      4028      4021      4026      4034      4028      4026      4034
      4026      4028      4030      4026      4028      4031      4030      4028      4031
      4028      4031      4033      4028      4031      4037      4033      4031      4037
      4026      4034      4036      4026      4034      4037      4036      4034      4037
      4031      4037      4034      4031      4037      4039      4034      4037      4039
      4043      4041      4044      4043      4041      4045      4043      4041      4046
      4044      4041      4045      4044      4041      4046      4045      4041      4046
      4041      4046      4048      4041      4046      4054      4048      4046      4054
      4046      4048      4050      4046      4048      4051      4050      4048      4051
      4048      4051      4053      4048      4051      4057      4053      4051      4057
      4046      4054      4056      4046      4054      4057      4056      4054      4057
      4051      4057      4054      4051      4057      4059      4054      4057      4059
      4063      4061      4064      4063      4061      4065      4063      4061      4066
      4064      4061      4065      4064      4061      4066      4065      4061      4066
      4061      4066      4068      4061      4066      4074      4068      4066      4074
      4066      4068      4070      4066      4068      4071      4070      4068      4071
      4068      4071      4073      4068      4071      4077      4073      4071      4077
      4066      4074      4076      4066      4074      4077      4076      4074      4077
      4071      4077      4074      4071      4077      4079      4074      4077      4079
      4083      4081      4084      4083      4081      4085      4083      4081      4086
      4084      4081      4085      4084      4081      4086      4085      4081      4086
      4081      4086      4088      4081      4086      4094      4088      4086      4094
      4086      4088      4090      4086      4088      4091      4090      4088      4091
      4088      4091      4093      4088      4091      4097      4093      4091      4097
      4086      4094      4096      4086      4094      4097      4096      4094      4097
      4091      4097      4094      4091      4097      4099      4094      4097      4099
      4103      4101      4104      4103      4101      4105      4103      4101      4106
      4104      4101      4105      4104      4101      4106      4105      4101      4106
      4101      4106      4108      4101      4106      4114      4108      4106      4114
      4106      4108      4110      4106      4108      4111      4110      4108      4111
      4108      4111      4113      4108      4111      4117      4113      4111      4117
      4106      4114      4116      4106      4114      4117      4116      4114      4117
      4111      4117      4114      4111      4117      4119      4114      4117      4119
      4123      4121      4124      4123      4121      4125      4123      4121      4126
      4124      4121      4125      4124      4121      4126      4125      4121      4126
      4121      4126      4128      4121      4126      4134      4128      4126      4134
      4126      4128      4130      4126      4128      4131      4130      4128      4131
      4128      4131      4133      4128      4131      4137      4133      4131      4137
      4126      4134      4136      4126      4134      4137      4136      4134      4137
      4131      4137      4134      4131      4137      4139      4134      4137      4139
      4143      4141      4144      4143      4141      4145      4143      4141      4146
      4144      4141      4145      4144      4141      4146      4145      4141      4146
      4141      4146      4148      4141      4146      4154      4148      4146      4154
      4146      4148      4150      4146      4148      4151      4150      4148      4151
      4148      4151      4153      4148      4151      4157      4153      4151      4157
      4146      4154      4156      4146      4154      4157      4156      4154      4157
      4151      4157      4154      4151      4157      4159      4154      4157      4159
      4163      4161      4164      4163      4161      4165      4163      4161      4166
      4164      4161      4165      4164      4161      4166      4165      4161      4166
      4161      4166      4168      4161      4166      4174      4168      4166      4174
      4166      4168      4170      4166      4168      4171      4170      4168      4171
      4168      4171      4173      4168      4171      4177      4173      4171      4177
      4166      4174      4176      4166      4174      4177      4176      4174      4177
      4171      4177      4174      4171      4177      4179      4174      4177      4179
      4183      4181      4184      4183      4181      4185      4183      4181      4186
      4184      4181      4185      4184      4181      4186      4185      4181      4186
      4181      4186      4188      4181      4186      4194      4188      4186      4194
      4186      4188      4190      4186      4188      4191      4190      4188      4191
      4188      4191      4193      4188      4191      4197      4193      4191      4197
      4186      4194      4196      4186      4194      4197      4196      4194      4197
      4191      4197      4194      4191      4197      4199      4194      4197      4199
      4203      4201      4204      4203      4201      4205      4203      4201      4206
      4204      4201      4205      4204      4201      4206      4205      4201      4206
      4201      4206      4208      4201      4206      4214      4208      4206      4214
      4206      4208      4210      4206      4208      4211      4210      4208      4211
      4208      4211      4213      4208      4211      4217      4213      4211      4217
      4206      4214      4216      4206      4214      4217      4216      4214      4217
      4211      4217      4214      4211      4217      4219      4214      4217      4219
      4223      4221      4224      4223      4221      4225      4223      4221      4226
      4224      4221      4225      4224      4221      4226      4225      4221      4226
      4221      4226      4228      4221      4226      4234      4228      4226      4234
      4226      4228      4230      4226      4228      4231      4230      4228      4231
      4228      4231      4233      4228      4231      4237      4233      4231      4237
      4226      4234      4236      4226      4234      4237      4236      4234      4237
      4231      4237      4234      4231      4237      4239      4234      4237      4239
      4243      4241      4244      4243      4241      4245      4243      4241      4246
      4244      4241      4245      4244      4241      4246      4245      4241      4246
      4241      4246      4248      4241      4246      4254      4248      4246      4254
      4246      4248      4250      4246      4248      4251      4250      4248      4251
      4248      4251      4253      4248      4251      4257      4253      4251      4257
      4246      4254      4256      4246      4254      4257      4256      4254      4257
      4251      4257      4254      4251      4257      4259      4254      4257      4259
      4263      4261      4264      4263      4261      4265      4263      4261      4266
      4264      4261      4265      4264      4261      4266      4265      4261      4266
      4261      4266      4268      4261      4266      4274      4268      4266      4274
      4266      4268      4270      4266      4268      4271      4270      4268      4271
      4268      4271      4273      4268      4271      4277      4273      4271      4277
      4266      4274      4276      4266      4274      4277      4276      4274      4277
      4271      4277      4274      4271      4277      4279      4274      4277      4279
      4283      4281      4284      4283      4281      4285      4283      4281      4286
      4284      4281      4285      4284      4281      4286      4285      4281      4286
      4281      4286      4288      4281      4286      4294      4288      4286      4294
      4286      4288      4290      4286      4288      4291      4290      4288      4291
      4288      4291      4293      4288      4291      4297      4293      4291      4297
      4286      4294      4296      4286      4294      4297      4296      4294      4297
      4291      4297      4294      4291      4297      4299      4294      4297      4299
      4303      4301      4304      4303      4301      4305      4303      4301      4306
      4304      4301      4305      4304      4301      4306      4305      4301      4306
      4301      4306      4308      4301      4306      4314      4308      4306      4314
      4306      4308      4310      4306      4308      4311      4310      4308      4311
      4308      4311      4313      4308      4311      4317      4313      4311      4317
      4306      4314      4316      4306      4314      4317      4316      4314      4317
      4311      4317      4314      4311      4317      4319      4314      4317      4319
      4323      4321      4324      4323      4321      4325      4323      4321      4326
      4324      4321      4325      4324      4321      4326      4325      4321      4326
      4321      4326      4328      4321      4326      4334      4328      4326      4334
      4326      4328      4330      4326      4328      4331      4330      4328      4331
      4328      4331      4333      4328      4331      4337      4333      4331      4337
      4326      4334      4336      4326      4334      4337      4336      4334      4337
      4331      4337      4334      4331      4337      4339      4334      4337      4339
      4343      4341      4344      4343      4341      4345      4343      4341      4346
      4344      4341      4345      4344      4341      4346      4345      4341      4346
      4341      4346      4348      4341      4346      4354      4348      4346      4354
      4346      4348      4350      4346      4348      4351      4350      4348      4351
      4348      4351      4353      4348      4351      4357      4353      4351      4357
      4346      4354      4356      4346      4354      4357      4356      4354      4357
      4351      4357      4354      4351      4357      4359      4354      4357      4359
      4363      4361      4364      4363      4361      4365      4363      4361      4366
      4364      4361      4365      4364      4361      4366      4365      4361      4366
      4361      4366      4368      4361      4366      4374      4368      4366      4374
      4366      4368      4370      4366      4368      4371      4370      4368      4371
      4368      4371      4373      4368      4371      4377      4373      4371      4377
      4366      4374      4376      4366      4374      4377      4376      4374      4377
      4371      4377      4374      4371      4377      4379      4374      4377      4379
      4383      4381      4384      4383      4381      4385      4383      4381      4386
      4384      4381      4385      4384      4381      4386      4385      4381      4386
      4381      4386      4388      4381      4386      4394      4388      4386      4394
      4386      4388      4390      4386      4388      4391      4390      4388      4391
      4388      4391      4393      4388      4391      4397      4393      4391      4397
      4386      4394      4396      4386      4394      4397      4396      4394      4397
      4391      4397      4394      4391      4397      4399      4394      4397      4399
      4403      4401      4404      4403      4401      4405      4403      4401      4406
      4404      4401      4405      4404      4401      4406      4405      4401      4406
      4401      4406      4408      4401      4406      4414      4408      4406      4414
      4406      4408      4410      4406      4408      4411      4410      4408      4411
      4408      4411      4413      4408      4411      4417      4413      4411      4417
      4406      4414      4416      4406      4414      4417      4416      4414      4417
      4411      4417      4414      4411      4417      4419      4414      4417      4419
      4423      4421      4424      4423      4421      4425      4423      4421      4426
      4424      4421      4425      4424      4421      4426      4425      4421      4426
      4421      4426      4428      4421      4426      4434      4428      4426      4434
      4426      4428      4430      4426      4428      4431      4430      4428      4431
      4428      4431      4433      4428      4431      4437      4433      4431      4437
      4426      4434      4436      4426      4434      4437      4436      4434      4437
      4431      4437      4434      4431      4437      4439      4434      4437      4439
      4443      4441      4444      4443      4441      4445      4443      4441      4446
      4444      4441      4445      4444      4441      4446      4445      4441      4446
      4441      4446      4448      4441      4446      4454      4448      4446      4454
      4446      4448      4450      4446      4448      4451      4450      4448      4451
      4448      4451      4453      4448      4451      4457      4453      4451      4457
      4446      4454      4456      4446      4454      4457      4456      4454      4457
      4451      4457      4454      4451      4457      4459      4454      4457      4459
      4463      4461      4464      4463      4461      4465      4463      4461      4466
      4464      4461      4465      4464      4461      4466      4465      4461      4466
      4461      4466      4468      4461      4466      4474      4468      4466      4474
      4466      4468      4470      4466      4468      4471      4470      4468      4471
      4468      4471      4473      4468      4471      4477      4473      4471      4477
      4466      4474      4476      4466      4474      4477      4476      4474      4477
      4471      4477      4474      4471      4477      4479      4474      4477      4479
      4483      4481      4484      4483      4481      4485      4483      4481      4486
      4484      4481      4485      4484      4481      4486      4485      4481      4486
      4481      4486      4488      4481      4486      4494      4488      4486      4494
      4486      4488      4490      4486      4488      4491      4490      4488      4491
      4488      4491      4493      4488      4491      4497      4493      4491      4497
      4486      4494      4496      4486      4494      4497      4496      4494      4497
      4491      4497      4494      4491      4497      4499      4494      4497      4499
      4503      4501      4504      4503      4501      4505      4503      4501      4506
      4504      4501      4505      4504      4501      4506      4505      4501      4506
      4501      4506      4508      4501      4506      4514      4508      4506      4514
      4506      4508      4510      4506      4508      4511      4510      4508      4511
      4508      4511      4513      4508      4511      4517      4513      4511      4517
      4506      4514      4516      4506      4514      4517      4516      4514      4517
      4511      4517      4514      4511      4517      4519      4514      4517      4519
      4523      4521      4524      4523      4521      4525      4523      4521      4526
      4524      4521      4525      4524      4521      4526      4525      4521      4526
      4521      4526      4528      4521      4526      4534      4528      4526      4534
      4526      4528      4530      4526      4528      4531      4530      4528      4531
      4528      4531      4533      4528      4531      4537      4533      4531      4537
      4526      4534      4536      4526      4534      4537      4536      4534      4537
      4531      4537      4534      4531      4537      4539      4534      4537      4539
      4543      4541      4544      4543      4541      4545      4543      4541      4546
      4544      4541      4545      4544      4541      4546      4545      4541      4546
      4541      4546      4548      4541      4546      4554      4548      4546      4554
      4546      4548      4550      4546      4548      4551      4550      4548      4551
      4548      4551      4553      4548      4551      4557      4553      4551      4557
      4546      4554      4556      4546      4554      4557      4556      4554      4557
      4551      4557      4554      4551      4557      4559      4554      4557      4559
      4563      4561      4564      4563      4561      4565      4563      4561      4566
      4564      4561      4565      4564      4561      4566      4565      4561      4566
      4561      4566      4568      4561      4566      4574      4568      4566      4574
      4566      4568      4570      4566      4568      4571      4570      4568      4571
      4568      4571      4573      4568      4571      4577      4573      4571      4577
      4566      4574      4576      4566      4574      4577      4576      4574      4577
      4571      4577      4574      4571      4577      4579      4574      4577      4579
      4583      4581      4584      4583      4581      4585      4583      4581      4586
      4584      4581      4585      4584      4581      4586      4585      4581      4586
      4581      4586      4588      4581      4586      4594      4588      4586      4594
      4586      4588      4590      4586      4588      4591      4590      4588      4591
      4588      4591      4593      4588      4591      4597      4593      4591      4597
      4586      4594      4596      4586      4594      4597      4596      4594      4597
      4591      4597      4594      4591      4597      4599      4594      4597      4599
      4603      4601      4604      4603      4601      4605      4603      4601      4606
      4604      4601      4605      4604      4601      4606      4605      4601      4606
      4601      4606      4608      4601      4606      4614      4608      4606      4614
      4606      4608      4610      4606      4608      4611      4610      4608      4611
      4608      4611      4613      4608      4611      4617      4613      4611      4617
      4606      4614      4616      4606      4614      4617      4616      4614      4617
      4611      4617      4614      4611      4617      4619      4614      4617      4619
      4623      4621      4624      4623      4621      4625      4623      4621      4626
      4624      4621      4625      4624      4621      4626      4625      4621      4626
      4621      4626      4628      4621      4626      4634      4628      4626      4634
      4626      4628      4630      4626      4628      4631      4630      4628      4631
      4628      4631      4633      4628      4631      4637      4633      4631      4637
      4626      4634      4636      4626      4634      4637      4636      4634      4637
      4631      4637      4634      4631      4637      4639      4634      4637      4639
      4643      4641      4644      4643      4641      4645      4643      4641      4646
      4644      4641      4645      4644      4641      4646      4645      4641      4646
      4641      4646      4648      4641      4646      4654      4648      4646      4654
      4646      4648      4650      4646      4648      4651      4650      4648      4651
      4648      4651      4653      4648      4651      4657      4653      4651      4657
      4646      4654      4656      4646      4654      4657      4656      4654      4657
      4651      4657      4654      4651      4657      4659      4654      4657      4659
      4663      4661      4664      4663      4661      4665      4663      4661      4666
      4664      4661      4665      4664      4661      4666      4665      4661      4666
      4661      4666      4668      4661      4666      4674      4668      4666      4674
      4666      4668      4670      4666      4668      4671      4670      4668      4671
      4668      4671      4673      4668      4671      4677      4673      4671      4677
      4666      4674      4676      4666      4674      4677      4676      4674      4677
      4671      4677      4674      4671      4677      4679      4674      4677      4679
      4683      4681      4684      4683      4681      4685      4683      4681      4686
      4684      4681      4685      4684      4681      4686      4685      4681      4686
      4681      4686      4688      4681      4686      4694      4688      4686      4694
      4686      4688      4690      4686      4688      4691      4690      4688      4691
      4688      4691      4693      4688      4691      4697      4693      4691      4697
      4686      4694      4696      4686      4694      4697      4696      4694      4697
      4691      4697      4694      4691      4697      4699      4694      4697      4699
      4703      4701      4704      4703      4701      4705      4703      4701      4706
      4704      4701      4705      4704      4701      4706      4705      4701      4706
      4701      4706      4708      4701      4706      4714      4708      4706      4714
      4706      4708      4710      4706      4708      4711      4710      4708      4711
      4708      4711      4713      4708      4711      4717      4713      4711      4717
      4706      4714      4716      4706      4714      4717      4716      4714      4717
      4711      4717      4714      4711      4717      4719      4714      4717      4719
      4723      4721      4724      4723      4721      4725      4723      4721      4726
      4724      4721      4725      4724      4721      4726      4725      4721      4726
      4721      4726      4728      4721      4726      4734      4728      4726      4734
      4726      4728      4730      4726      4728      4731      4730      4728      4731
      4728      4731      4733      4728      4731      4737      4733      4731      4737
      4726      4734      4736      4726      4734      4737      4736      4734      4737
      4731      4737      4734      4731      4737      4739      4734      4737      4739
      4743      4741      4744      4743      4741      4745      4743      4741      4746
      4744      4741      4745      4744      4741      4746      4745      4741      4746
      4741      4746      4748      4741      4746      4754      4748      4746      4754
      4746      4748      4750      4746      4748      4751      4750      4748      4751
      4748      4751      4753      4748      4751      4757      4753      4751      4757
      4746      4754      4756      4746      4754      4757      4756      4754      4757
      4751      4757      4754      4751      4757      4759      4754      4757      4759
      4763      4761      4764      4763      4761      4765      4763      4761      4766
      4764      4761      4765      4764      4761      4766      4765      4761      4766
      4761      4766      4768      4761      4766      4774      4768      4766      4774
      4766      4768      4770      4766      4768      4771      4770      4768      4771
      4768      4771      4773      4768      4771      4777      4773      4771      4777
      4766      4774      4776      4766      4774      4777      4776      4774      4777
      4771      4777      4774      4771      4777      4779      4774      4777      4779
      4783      4781      4784      4783      4781      4785      4783      4781      4786
      4784      4781      4785      4784      4781      4786      4785      4781      4786
      4781      4786      4788      4781      4786      4794      4788      4786      4794
      4786      4788      4790      4786      4788      4791      4790      4788      4791
      4788      4791      4793      4788      4791      4797      4793      4791      4797
      4786      4794      4796      4786      4794      4797      4796      4794      4797
      4791      4797      4794      4791      4797      4799      4794      4797      4799
      4803      4801      4804      4803      4801      4805      4803      4801      4806
      4804      4801      4805      4804      4801      4806      4805      4801      4806
      4801      4806      4808      4801      4806      4814      4808      4806      4814
      4806      4808      4810      4806      4808      4811      4810      4808      4811
      4808      4811      4813      4808      4811      4817      4813      4811      4817
      4806      4814      4816      4806      4814      4817      4816      4814      4817
      4811      4817      4814      4811      4817      4819      4814      4817      4819
      4823      4821      4824      4823      4821      4825      4823      4821      4826
      4824      4821      4825      4824      4821      4826      4825      4821      4826
      4821      4826      4828      4821      4826      4834      4828      4826      4834
      4826      4828      4830      4826      4828      4831      4830      4828      4831
      4828      4831      4833      4828      4831      4837      4833      4831      4837
      4826      4834      4836      4826      4834      4837      4836      4834      4837
      4831      4837      4834      4831      4837      4839      4834      4837      4839
      4843      4841      4844      4843      4841      4845      4843      4841      4846
      4844      4841      4845      4844      4841      4846      4845      4841      4846
      4841      4846      4848      4841      4846      4854      4848      4846      4854
      4846      4848      4850      4846      4848      4851      4850      4848      4851
      4848      4851      4853      4848      4851      4857      4853      4851      4857
      4846      4854      4856      4846      4854      4857      4856      4854      4857
      4851      4857      4854      4851      4857      4859      4854      4857      4859
      4863      4861      4864      4863      4861      4865      4863      4861      4866
      4864      4861      4865      4864      4861      4866      4865      4861      4866
      4861      4866      4868      4861      4866      4874      4868      4866      4874
      4866      4868      4870      4866      4868      4871      4870      4868      4871
      4868      4871      4873      4868      4871      4877      4873      4871      4877
      4866      4874      4876      4866      4874      4877      4876      4874      4877
      4871      4877      4874      4871      4877      4879      4874      4877      4879
      4883      4881      4884      4883      4881      4885      4883      4881      4886
      4884      4881      4885      4884      4881      4886      4885      4881      4886
      4881      4886      4888      4881      4886      4894      4888      4886      4894
      4886      4888      4890      4886      4888      4891      4890      4888      4891
      4888      4891      4893      4888      4891      4897      4893      4891      4897
      4886      4894      4896      4886      4894      4897      4896      4894      4897
      4891      4897      4894      4891      4897      4899      4894      4897      4899
      4903      4901      4904      4903      4901      4905      4903      4901      4906
      4904      4901      4905      4904      4901      4906      4905      4901      4906
      4901      4906      4908      4901      4906      4914      4908      4906      4914
      4906      4908      4910      4906      4908      4911      4910      4908      4911
      4908      4911      4913      4908      4911      4917      4913      4911      4917
      4906      4914      4916      4906      4914      4917      4916      4914      4917
      4911      4917      4914      4911      4917      4919      4914      4917      4919
      4923      4921      4924      4923      4921      4925      4923      4921      4926
      4924      4921      4925      4924      4921      4926      4925      4921      4926
      4921      4926      4928      4921      4926      4934      4928      4926      4934
      4926      4928      4930      4926      4928      4931      4930      4928      4931
      4928      4931      4933      4928      4931      4937      4933      4931      4937
      4926      4934      4936      4926      4934      4937      4936      4934      4937
      4931      4937      4934      4931      4937      4939      4934      4937      4939
      4943      4941      4944      4943      4941      4945      4943      4941      4946
      4944      4941      4945      4944      4941      4946      4945      4941      4946
      4941      4946      4948      4941      4946      4954      4948      4946      4954
      4946      4948      4950      4946      4948      4951      4950      4948      4951
      4948      4951      4953      4948      4951      4957      4953      4951      4957
      4946      4954      4956      4946      4954      4957      4956      4954      4957
      4951      4957      4954      4951      4957      4959      4954      4957      4959
      4963      4961      4964      4963      4961      4965      4963      4961      4966
      4964      4961      4965      4964      4961      4966      4965      4961      4966
      4961      4966      4968      4961      4966      4974      4968      4966      4974
      4966      4968      4970      4966      4968      4971      4970      4968      4971
      4968      4971      4973      4968      4971      4977      4973      4971      4977
      4966      4974      4976      4966      4974      4977      4976      4974      4977
      4971      4977      4974      4971      4977      4979      4974      4977      4979
      4983      4981      4984      4983      4981      4985      4983      4981      4986
      4984      4981      4985      4984      4981      4986      4985      4981      4986
      4981      4986      4988      4981      4986      4994      4988      4986      4994
      4986      4988      4990      4986      4988      4991      4990      4988      4991
      4988      4991      4993      4988      4991      4997      4993      4991      4997
      4986      4994      4996      4986      4994      4997      4996      4994      4997
      4991      4997      4994      4991      4997      4999      4994      4997      4999
      5003      5001      5004      5003      5001      5005      5003      5001      5006
      5004      5001      5005      5004      5001      5006      5005      5001      5006
      5001      5006      5008      5001      5006      5014      5008      5006      5014
      5006      5008      5010      5006      5008      5011      5010      5008      5011
      5008      5011      5013      5008      5011      5017      5013      5011      5017
      5006      5014      5016      5006      5014      5017      5016      5014      5017
      5011      5017      5014      5011      5017      5019      5014      5017      5019
      5023      5021      5024      5023      5021      5025      5023      5021      5026
      5024      5021      5025      5024      5021      5026      5025      5021      5026
      5021      5026      5028      5021      5026      5034      5028      5026      5034
      5026      5028      5030      5026      5028      5031      5030      5028      5031
      5028      5031      5033      5028      5031      5037      5033      5031      5037
      5026      5034      5036      5026      5034      5037      5036      5034      5037
      5031      5037      5034      5031      5037      5039      5034      5037      5039
      5043      5041      5044      5043      5041      5045      5043      5041      5046
      5044      5041      5045      5044      5041      5046      5045      5041      5046
      5041      5046      5048      5041      5046      5054      5048      5046      5054
      5046      5048      5050      5046      5048      5051      5050      5048      5051
      5048      5051      5053      5048      5051      5057      5053      5051      5057
      5046      5054      5056      5046      5054      5057      5056      5054      5057
      5051      5057      5054      5051      5057      5059      5054      5057      5059
      5063      5061      5064      5063      5061      5065      5063      5061      5066
      5064      5061      5065      5064      5061      5066      5065      5061      5066
      5061      5066      5068      5061      5066      5074      5068      5066      5074
      5066      5068      5070      5066      5068      5071      5070      5068      5071
      5068      5071      5073      5068      5071      5077      5073      5071      5077
      5066      5074      5076      5066      5074      5077      5076      5074      5077
      5071      5077      5074      5071      5077      5079      5074      5077      5079
      5083      5081      5084      5083      5081      5085      5083      5081      5086
      5084      5081      5085      5084      5081      5086      5085      5081      5086
      5081      5086      5088      5081      5086      5094      5088      5086      5094
      5086      5088      5090      5086      5088      5091      5090      5088      5091
      5088      5091      5093      5088      5091      5097      5093      5091      5097
      5086      5094      5096      5086      5094      5097      5096      5094      5097
      5091      5097      5094      5091      5097      5099      5094      5097      5099
      5103      5101      5104      5103      5101      5105      5103      5101      5106
      5104      5101      5105      5104      5101      5106      5105      5101      5106
      5101      5106      5108      5101      5106      5114      5108      5106      5114
      5106      5108      5110      5106      5108      5111      5110      5108      5111
      5108      5111      5113      5108      5111      5117      5113      5111      5117
      5106      5114      5116      5106      5114      5117      5116      5114      5117
      5111      5117      5114      5111      5117      5119      5114      5117      5119
      5123      5121      5124      5123      5121      5125      5123      5121      5126
      5124      5121      5125      5124      5121      5126      5125      5121      5126
      5121      5126      5128      5121      5126      5134      5128      5126      5134
      5126      5128      5130      5126      5128      5131      5130      5128      5131
      5128      5131      5133      5128      5131      5137      5133      5131      5137
      5126      5134      5136      5126      5134      5137      5136      5134      5137
      5131      5137      5134      5131      5137      5139      5134      5137      5139
      5143      5141      5144      5143      5141      5145      5143      5141      5146
      5144      5141      5145      5144      5141      5146      5145      5141      5146
      5141      5146      5148      5141      5146      5154      5148      5146      5154
      5146      5148      5150      5146      5148      5151      5150      5148      5151
      5148      5151      5153      5148      5151      5157      5153      5151      5157
      5146      5154      5156      5146      5154      5157      5156      5154      5157
      5151      5157      5154      5151      5157      5159      5154      5157      5159
      5163      5161      5164      5163      5161      5165      5163      5161      5166
      5164      5161      5165      5164      5161      5166      5165      5161      5166
      5161      5166      5168      5161      5166      5174      5168      5166      5174
      5166      5168      5170      5166      5168      5171      5170      5168      5171
      5168      5171      5173      5168      5171      5177      5173      5171      5177
      5166      5174      5176      5166      5174      5177      5176      5174      5177
      5171      5177      5174      5171      5177      5179      5174      5177      5179
      5183      5181      5184      5183      5181      5185      5183      5181      5186
      5184      5181      5185      5184      5181      5186      5185      5181      5186
      5181      5186      5188      5181      5186      5194      5188      5186      5194
      5186      5188      5190      5186      5188      5191      5190      5188      5191
      5188      5191      5193      5188      5191      5197      5193      5191      5197
      5186      5194      5196      5186      5194      5197      5196      5194      5197
      5191      5197      5194      5191      5197      5199      5194      5197      5199
      5203      5201      5204      5203      5201      5205      5203      5201      5206
      5204      5201      5205      5204      5201      5206      5205      5201      5206
      5201      5206      5208      5201      5206      5214      5208      5206      5214
      5206      5208      5210      5206      5208      5211      5210      5208      5211
      5208      5211      5213      5208      5211      5217      5213      5211      5217
      5206      5214      5216      5206      5214      5217      5216      5214      5217
      5211      5217      5214      5211      5217      5219      5214      5217      5219
      5223      5221      5224      5223      5221      5225      5223      5221      5226
      5224      5221      5225      5224      5221      5226      5225      5221      5226
      5221      5226      5228      5221      5226      5234      5228      5226      5234
      5226      5228      5230      5226      5228      5231      5230      5228      5231
      5228      5231      5233      5228      5231      5237      5233      5231      5237
      5226      5234      5236      5226      5234      5237      5236      5234      5237
      5231      5237      5234      5231      5237      5239      5234      5237      5239
      5243      5241      5244      5243      5241      5245      5243      5241      5246
      5244      5241      5245      5244      5241      5246      5245      5241      5246
      5241      5246      5248      5241      5246      5254      5248      5246      5254
      5246      5248      5250      5246      5248      5251      5250      5248      5251
      5248      5251      5253      5248      5251      5257      5253      5251      5257
      5246      5254      5256      5246      5254      5257      5256      5254      5257
      5251      5257      5254      5251      5257      5259      5254      5257      5259
      5263      5261      5264      5263      5261      5265      5263      5261      5266
      5264      5261      5265      5264      5261      5266      5265      5261      5266
      5261      5266      5268      5261      5266      5274      5268      5266      5274
      5266      5268      5270      5266      5268      5271      5270      5268      5271
      5268      5271      5273      5268      5271      5277      5273      5271      5277
      5266      5274      5276      5266      5274      5277      5276      5274      5277
      5271      5277      5274      5271      5277      5279      5274      5277      5279
      5283      5281      5284      5283      5281      5285      5283      5281      5286
      5284      5281      5285      5284      5281      5286      5285      5281      5286
      5281      5286      5288      5281      5286      5294      5288      5286      5294
      5286      5288      5290      5286      5288      5291      5290      5288      5291
      5288      5291      5293      5288      5291      5297      5293      5291      5297
      5286      5294      5296      5286      5294      5297      5296      5294      5297
      5291      5297      5294      5291      5297      5299      5294      5297      5299
      5303      5301      5304      5303      5301      5305      5303      5301      5306
      5304      5301      5305      5304      5301      5306      5305      5301      5306
      5301      5306      5308      5301      5306      5314      5308      5306      5314
      5306      5308      5310      5306      5308      5311      5310      5308      5311
      5308      5311      5313      5308      5311      5317      5313      5311      5317
      5306      5314      5316      5306      5314      5317      5316      5314      5317
      5311      5317      5314      5311      5317      5319      5314      5317      5319
      5323      5321      5324      5323      5321      5325      5323      5321      5326
      5324      5321      5325      5324      5321      5326      5325      5321      5326
      5321      5326      5328      5321      5326      5334      5328      5326      5334
      5326      5328      5330      5326      5328      5331      5330      5328      5331
      5328      5331      5333      5328      5331      5337      5333      5331      5337
      5326      5334      5336      5326      5334      5337      5336      5334      5337
      5331      5337      5334      5331      5337      5339      5334      5337      5339
      5343      5341      5344      5343      5341      5345      5343      5341      5346
      5344      5341      5345      5344      5341      5346      5345      5341      5346
      5341      5346      5348      5341      5346      5354      5348      5346      5354
      5346      5348      5350      5346      5348      5351      5350      5348      5351
      5348      5351      5353      5348      5351      5357      5353      5351      5357
      5346      5354      5356      5346      5354      5357      5356      5354      5357
      5351      5357      5354      5351      5357      5359      5354      5357      5359
      5363      5361      5364      5363      5361      5365      5363      5361      5366
      5364      5361      5365      5364      5361      5366      5365      5361      5366
      5361      5366      5368      5361      5366      5374      5368      5366      5374
      5366      5368      5370      5366      5368      5371      5370      5368      5371
      5368      5371      5373      5368      5371      5377      5373      5371      5377
      5366      5374      5376      5366      5374      5377      5376      5374      5377
      5371      5377      5374      5371      5377      5379      5374      5377      5379
      5383      5381      5384      5383      5381      5385      5383      5381      5386
      5384      5381      5385      5384      5381      5386      5385      5381      5386
      5381      5386      5388      5381      5386      5394      5388      5386      5394
      5386      5388      5390      5386      5388      5391      5390      5388      5391
      5388      5391      5393      5388      5391      5397      5393      5391      5397
      5386      5394      5396      5386      5394      5397      5396      5394      5397
      5391      5397      5394      5391      5397      5399      5394      5397      5399
      5403      5401      5404      5403      5401      5405      5403      5401      5406
      5404      5401      5405      5404      5401      5406      5405      5401      5406
      5401      5406      5408      5401      5406      5414      5408      5406      5414
      5406      5408      5410      5406      5408      5411      5410      5408      5411
      5408      5411      5413      5408      5411      5417      5413      5411      5417
      5406      5414      5416      5406      5414      5417      5416      5414      5417
      5411      5417      5414      5411      5417      5419      5414      5417      5419
      5423      5421      5424      5423      5421      5425      5423      5421      5426
      5424      5421      5425      5424      5421      5426      5425      5421      5426
      5421      5426      5428      5421      5426      5434      5428      5426      5434
      5426      5428      5430      5426      5428      5431      5430      5428      5431
      5428      5431      5433      5428      5431      5437      5433      5431      5437
      5426      5434      5436      5426      5434      5437      5436      5434      5437
      5431      5437      5434      5431      5437      5439      5434      5437      5439
      5443      5441      5444      5443      5441      5445      5443      5441      5446
      5444      5441      5445      5444      5441      5446      5445      5441      5446
      5441      5446      5448      5441      5446      5454      5448      5446      5454
      5446      5448      5450      5446      5448      5451      5450      5448      5451
      5448      5451      5453      5448      5451      5457      5453      5451      5457
      5446      5454      5456      5446      5454      5457      5456      5454      5457
      5451      5457      5454      5451      5457      5459      5454      5457      5459
      5463      5461      5464      5463      5461      5465      5463      5461      5466
      5464      5461      5465      5464      5461      5466      5465      5461      5466
      5461      5466      5468      5461      5466      5474      5468      5466      5474
      5466      5468      5470      5466      5468      5471      5470      5468      5471
      5468      5471      5473      5468      5471      5477      5473      5471      5477
      5466      5474      5476      5466      5474      5477      5476      5474      5477
      5471      5477      5474      5471      5477      5479      5474      5477      5479
      5483      5481      5484      5483      5481      5485      5483      5481      5486
      5484      5481      5485      5484      5481      5486      5485      5481      5486
      5481      5486      5488      5481      5486      5494      5488      5486      5494
      5486      5488      5490      5486      5488      5491      5490      5488      5491
      5488      5491      5493      5488      5491      5497      5493      5491      5497
      5486      5494      5496      5486      5494      5497      5496      5494      5497
      5491      5497      5494      5491      5497      5499      5494      5497      5499
      5503      5501      5504      5503      5501      5505      5503      5501      5506
      5504      5501      5505      5504      5501      5506      5505      5501      5506
      5501      5506      5508      5501      5506      5514      5508      5506      5514
      5506      5508      5510      5506      5508      5511      5510      5508      5511
      5508      5511      5513      5508      5511      5517      5513      5511      5517
      5506      5514      5516      5506      5514      5517      5516      5514      5517
      5511      5517      5514      5511      5517      5519      5514      5517      5519
      5523      5521      5524      5523      5521      5525      5523      5521      5526
      5524      5521      5525      5524      5521      5526      5525      5521      5526
      5521      5526      5528      5521      5526      5534      5528      5526      5534
      5526      5528      5530      5526      5528      5531      5530      5528      5531
      5528      5531      5533      5528      5531      5537      5533      5531      5537
      5526      5534      5536      5526      5534      5537      5536      5534      5537
      5531      5537      5534      5531      5537      5539      5534      5537      5539
      5543      5541      5544      5543      5541      5545      5543      5541      5546
      5544      5541      5545      5544      5541      5546      5545      5541      5546
      5541      5546      5548      5541      5546      5554      5548      5546      5554
      5546      5548      5550      5546      5548      5551      5550      5548      5551
      5548      5551      5553      5548      5551      5557      5553      5551      5557
      5546      5554      5556      5546      5554      5557      5556      5554      5557
      5551      5557      5554      5551      5557      5559      5554      5557      5559
      5563      5561      5564      5563      5561      5565      5563      5561      5566
      5564      5561      5565      5564      5561      5566      5565      5561      5566
      5561      5566      5568      5561      5566      5574      5568      5566      5574
      5566      5568      5570      5566      5568      5571      5570      5568      5571
      5568      5571      5573      5568      5571      5577      5573      5571      5577
      5566      5574      5576      5566      5574      5577      5576      5574      5577
      5571      5577      5574      5571      5577      5579      5574      5577      5579
      5583      5581      5584      5583      5581      5585      5583      5581      5586
      5584      5581      5585      5584      5581      5586      5585      5581      5586
      5581      5586      5588      5581      5586      5594      5588      5586      5594
      5586      5588      5590      5586      5588      5591      5590      5588      5591
      5588      5591      5593      5588      5591      5597      5593      5591      5597
      5586      5594      5596      5586      5594      5597      5596      5594      5597
      5591      5597      5594      5591      5597      5599      5594      5597      5599
      5603      5601      5604      5603      5601      5605      5603      5601      5606
      5604      5601      5605      5604      5601      5606      5605      5601      5606
      5601      5606      5608      5601      5606      5614      5608      5606      5614
      5606      5608      5610      5606      5608      5611      5610      5608      5611
      5608      5611      5613      5608      5611      5617      5613      5611      5617
      5606      5614      5616      5606      5614      5617      5616      5614      5617
      5611      5617      5614      5611      5617      5619      5614      5617      5619
      5623      5621      5624      5623      5621      5625      5623      5621      5626
      5624      5621      5625      5624      5621      5626      5625      5621      5626
      5621      5626      5628      5621      5626      5634      5628      5626      5634
      5626      5628      5630      5626      5628      5631      5630      5628      5631
      5628      5631      5633      5628      5631      5637      5633      5631      5637
      5626      5634      5636      5626      5634      5637      5636      5634      5637
      5631      5637      5634      5631      5637      5639      5634      5637      5639
      5643      5641      5644      5643      5641      5645      5643      5641      5646
      5644      5641      5645      5644      5641      5646      5645      5641      5646
      5641      5646      5648      5641      5646      5654      5648      5646      5654
      5646      5648      5650      5646      5648      5651      5650      5648      5651
      5648      5651      5653      5648      5651      5657      5653      5651      5657
      5646      5654      5656      5646      5654      5657      5656      5654      5657
      5651      5657      5654      5651      5657      5659      5654      5657      5659
      5663      5661      5664      5663      5661      5665      5663      5661      5666
      5664      5661      5665      5664      5661      5666      5665      5661      5666
      5661      5666      5668      5661      5666      5674      5668      5666      5674
      5666      5668      5670      5666      5668      5671      5670      5668      5671
      5668      5671      5673      5668      5671      5677      5673      5671      5677
      5666      5674      5676      5666      5674      5677      5676      5674      5677
      5671      5677      5674      5671      5677      5679      5674      5677      5679
      5683      5681      5684      5683      5681      5685      5683      5681      5686
      5684      5681      5685      5684      5681      5686      5685      5681      5686
      5681      5686      5688      5681      5686      5694      5688      5686      5694
      5686      5688      5690      5686      5688      5691      5690      5688      5691
      5688      5691      5693      5688      5691      5697      5693      5691      5697
      5686      5694      5696      5686      5694      5697      5696      5694      5697
      5691      5697      5694      5691      5697      5699      5694      5697      5699
      5703      5701      5704      5703      5701      5705      5703      5701      5706
      5704      5701      5705      5704      5701      5706      5705      5701      5706
      5701      5706      5708      5701      5706      5714      5708      5706      5714
      5706      5708      5710      5706      5708      5711      5710      5708      5711
      5708      5711      5713      5708      5711      5717      5713      5711      5717
      5706      5714      5716      5706      5714      5717      5716      5714      5717
      5711      5717      5714      5711      5717      5719      5714      5717      5719
      5723      5721      5724      5723      5721      5725      5723      5721      5726
      5724      5721      5725      5724      5721      5726      5725      5721      5726
      5721      5726      5728      5721      5726      5734      5728      5726      5734
      5726      5728      5730      5726      5728      5731      5730      5728      5731
      5728      5731      5733      5728      5731      5737      5733      5731      5737
      5726      5734      5736      5726      5734      5737      5736      5734      5737
      5731      5737      5734      5731      5737      5739      5734      5737      5739
      5743      5741      5744      5743      5741      5745      5743      5741      5746
      5744      5741      5745      5744      5741      5746      5745      5741      5746
      5741      5746      5748      5741      5746      5754      5748      5746      5754
      5746      5748      5750      5746      5748      5751      5750      5748      5751
      5748      5751      5753      5748      5751      5757      5753      5751      5757
      5746      5754      5756      5746      5754      5757      5756      5754      5757
      5751      5757      5754      5751      5757      5759      5754      5757      5759
      5763      5761      5764      5763      5761      5765      5763      5761      5766
      5764      5761      5765      5764      5761      5766      5765      5761      5766
      5761      5766      5768      5761      5766      5774      5768      5766      5774
      5766      5768      5770      5766      5768      5771      5770      5768      5771
      5768      5771      5773      5768      5771      5777      5773      5771      5777
      5766      5774      5776      5766      5774      5777      5776      5774      5777
      5771      5777      5774      5771      5777      5779      5774      5777      5779
      5783      5781      5784      5783      5781      5785      5783      5781      5786
      5784      5781      5785      5784      5781      5786      5785      5781      5786
      5781      5786      5788      5781      5786      5794      5788      5786      5794
      5786      5788      5790      5786      5788      5791      5790      5788      5791
      5788      5791      5793      5788      5791      5797      5793      5791      5797
      5786      5794      5796      5786      5794      5797      5796      5794      5797
      5791      5797      5794      5791      5797      5799      5794      5797      5799
      5803      5801      5804      5803      5801      5805      5803      5801      5806
      5804      5801      5805      5804      5801      5806      5805      5801      5806
      5801      5806      5808      5801      5806      5814      5808      5806      5814
      5806      5808      5810      5806      5808      5811      5810      5808      5811
      5808      5811      5813      5808      5811      5817      5813      5811      5817
      5806      5814      5816      5806      5814      5817      5816      5814      5817
      5811      5817      5814      5811      5817      5819      5814      5817      5819
      5823      5821      5824      5823      5821      5825      5823      5821      5826
      5824      5821      5825      5824      5821      5826      5825      5821      5826
      5821      5826      5828      5821      5826      5834      5828      5826      5834
      5826      5828      5830      5826      5828      5831      5830      5828      5831
      5828      5831      5833      5828      5831      5837      5833      5831      5837
      5826      5834      5836      5826      5834      5837      5836      5834      5837
      5831      5837      5834      5831      5837      5839      5834      5837      5839
      5843      5841      5844      5843      5841      5845      5843      5841      5846
      5844      5841      5845      5844      5841      5846      5845      5841      5846
      5841      5846      5848      5841      5846      5854      5848      5846      5854
      5846      5848      5850      5846      5848      5851      5850      5848      5851
      5848      5851      5853      5848      5851      5857      5853      5851      5857
      5846      5854      5856      5846      5854      5857      5856      5854      5857
      5851      5857      5854      5851      5857      5859      5854      5857      5859
      5863      5861      5864      5863      5861      5865      5863      5861      5866
      5864      5861      5865      5864      5861      5866      5865      5861      5866
      5861      5866      5868      5861      5866      5874      5868      5866      5874
      5866      5868      5870      5866      5868      5871      5870      5868      5871
      5868      5871      5873      5868      5871      5877      5873      5871      5877
      5866      5874      5876      5866      5874      5877      5876      5874      5877
      5871      5877      5874      5871      5877      5879      5874      5877      5879
      5883      5881      5884      5883      5881      5885      5883      5881      5886
      5884      5881      5885      5884      5881      5886      5885      5881      5886
      5881      5886      5888      5881      5886      5894      5888      5886      5894
      5886      5888      5890      5886      5888      5891      5890      5888      5891
      5888      5891      5893      5888      5891      5897      5893      5891      5897
      5886      5894      5896      5886      5894      5897      5896      5894      5897
      5891      5897      5894      5891      5897      5899      5894      5897      5899
      5903      5901      5904      5903      5901      5905      5903      5901      5906
      5904      5901      5905      5904      5901      5906      5905      5901      5906
      5901      5906      5908      5901      5906      5914      5908      5906      5914
      5906      5908      5910      5906      5908      5911      5910      5908      5911
      5908      5911      5913      5908      5911      5917      5913      5911      5917
      5906      5914      5916      5906      5914      5917      5916      5914      5917
      5911      5917      5914      5911      5917      5919      5914      5917      5919
      5923      5921      5924      5923      5921      5925      5923      5921      5926
      5924      5921      5925      5924      5921      5926      5925      5921      5926
      5921      5926      5928      5921      5926      5934      5928      5926      5934
      5926      5928      5930      5926      5928      5931      5930      5928      5931
      5928      5931      5933      5928      5931      5937      5933      5931      5937
      5926      5934      5936      5926      5934      5937      5936      5934      5937
      5931      5937      5934      5931      5937      5939      5934      5937      5939
      5943      5941      5944      5943      5941      5945      5943      5941      5946
      5944      5941      5945      5944      5941      5946      5945      5941      5946
      5941      5946      5948      5941      5946      5954      5948      5946      5954
      5946      5948      5950      5946      5948      5951      5950      5948      5951
      5948      5951      5953      5948      5951      5957      5953      5951      5957
      5946      5954      5956      5946      5954      5957      5956      5954      5957
      5951      5957      5954      5951      5957      5959      5954      5957      5959
      5963      5961      5964      5963      5961      5965      5963      5961      5966
      5964      5961      5965      5964      5961      5966      5965      5961      5966
      5961      5966      5968      5961      5966      5974      5968      5966      5974
      5966      5968      5970      5966      5968      5971      5970      5968      5971
      5968      5971      5973      5968      5971      5977      5973      5971      5977
      5966      5974      5976      5966      5974      5977      5976      5974      5977
      5971      5977      5974      5971      5977      5979      5974      5977      5979
      5983      5981      5984      5983      5981      5985      5983      5981      5986
      5984      5981      5985      5984      5981      5986      5985      5981      5986
      5981      5986      5988      5981      5986      5994      5988      5986      5994
      5986      5988      5990      5986      5988      5991      5990      5988      5991
      5988      5991      5993      5988      5991      5997      5993      5991      5997
      5986      5994      5996      5986      5994      5997      5996      5994      5997
      5991      5997      5994      5991      5997      5999      5994      5997      5999
      6003      6001      6004      6003      6001      6005      6003      6001      6006
      6004      6001      6005      6004      6001      6006      6005      6001      6006
      6001      6006      6008      6001      6006      6014      6008      6006      6014
      6006      6008      6010      6006      6008      6011      6010      6008      6011
      6008      6011      6013      6008      6011      6017      6013      6011      6017
      6006      6014      6016      6006      6014      6017      6016      6014      6017
      6011      6017      6014      6011      6017      6019      6014      6017      6019
      6023      6021      6024      6023      6021      6025      6023      6021      6026
      6024      6021      6025      6024      6021      6026      6025      6021      6026
      6021      6026      6028      6021      6026      6034      6028      6026      6034
      6026      6028      6030      6026      6028      6031      6030      6028      6031
      6028      6031      6033      6028      6031      6037      6033      6031      6037
      6026      6034      6036      6026      6034      6037      6036      6034      6037
      6031      6037      6034      6031      6037      6039      6034      6037      6039
      6043      6041      6044      6043      6041      6045      6043      6041      6046
      6044      6041      6045      6044      6041      6046      6045      6041      6046
      6041      6046      6048      6041      6046      6054      6048      6046      6054
      6046      6048      6050      6046      6048      6051      6050      6048      6051
      6048      6051      6053      6048      6051      6057      6053      6051      6057
      6046      6054      6056      6046      6054      6057      6056      6054      6057
      6051      6057      6054      6051      6057      6059      6054      6057      6059
      6063      6061      6064      6063      6061      6065      6063      6061      6066
      6064      6061      6065      6064      6061      6066      6065      6061      6066
      6061      6066      6068      6061      6066      6074      6068      6066      6074
      6066      6068      6070      6066      6068      6071      6070      6068      6071
      6068      6071      6073      6068      6071      6077      6073      6071      6077
      6066      6074      6076      6066      6074      6077      6076      6074      6077
      6071      6077      6074      6071      6077      6079      6074      6077      6079
      6083      6081      6084      6083      6081      6085      6083      6081      6086
      6084      6081      6085      6084      6081      6086      6085      6081      6086
      6081      6086      6088      6081      6086      6094      6088      6086      6094
      6086      6088      6090      6086      6088      6091      6090      6088      6091
      6088      6091      6093      6088      6091      6097      6093      6091      6097
      6086      6094      6096      6086      6094      6097      6096      6094      6097
      6091      6097      6094      6091      6097      6099      6094      6097      6099
      6103      6101      6104      6103      6101      6105      6103      6101      6106
      6104      6101      6105      6104      6101      6106      6105      6101      6106
      6101      6106      6108      6101      6106      6114      6108      6106      6114
      6106      6108      6110      6106      6108      6111      6110      6108      6111
      6108      6111      6113      6108      6111      6117      6113      6111      6117
      6106      6114      6116      6106      6114      6117      6116      6114      6117
      6111      6117      6114      6111      6117      6119      6114      6117      6119
      6123      6121      6124      6123      6121      6125      6123      6121      6126
      6124      6121      6125      6124      6121      6126      6125      6121      6126
      6121      6126      6128      6121      6126      6134      6128      6126      6134
      6126      6128      6130      6126      6128      6131      6130      6128      6131
      6128      6131      6133      6128      6131      6137      6133      6131      6137
      6126      6134      6136      6126      6134      6137      6136      6134      6137
      6131      6137      6134      6131      6137      6139      6134      6137      6139
      6143      6141      6144      6143      6141      6145      6143      6141      6146
      6144      6141      6145      6144      6141      6146      6145      6141      6146
      6141      6146      6148      6141      6146      6154      6148      6146      6154
      6146      6148      6150      6146      6148      6151      6150      6148      6151
      6148      6151      6153      6148      6151      6157      6153      6151      6157
      6146      6154      6156      6146      6154      6157      6156      6154      6157
      6151      6157      6154      6151      6157      6159      6154      6157      6159
      6163      6161      6164      6163      6161      6165      6163      6161      6166
      6164      6161      6165      6164      6161      6166      6165      6161      6166
      6161      6166      6168      6161      6166      6174      6168      6166      6174
      6166      6168      6170      6166      6168      6171      6170      6168      6171
      6168      6171      6173      6168      6171      6177      6173      6171      6177
      6166      6174      6176      6166      6174      6177      6176      6174      6177
      6171      6177      6174      6171      6177      6179      6174      6177      6179
      6183      6181      6184      6183      6181      6185      6183      6181      6186
      6184      6181      6185      6184      6181      6186      6185      6181      6186
      6181      6186      6188      6181      6186      6194      6188      6186      6194
      6186      6188      6190      6186      6188      6191      6190      6188      6191
      6188      6191      6193      6188      6191      6197      6193      6191      6197
      6186      6194      6196      6186      6194      6197      6196      6194      6197
      6191      6197      6194      6191      6197      6199      6194      6197      6199
      6203      6201      6204      6203      6201      6205      6203      6201      6206
      6204      6201      6205      6204      6201      6206      6205      6201      6206
      6201      6206      6208      6201      6206      6214      6208      6206      6214
      6206      6208      6210      6206      6208      6211      6210      6208      6211
      6208      6211      6213      6208      6211      6217      6213      6211      6217
      6206      6214      6216      6206      6214      6217      6216      6214      6217
      6211      6217      6214      6211      6217      6219      6214      6217      6219
      6223      6221      6224      6223      6221      6225      6223      6221      6226
      6224      6221      6225      6224      6221      6226      6225      6221      6226
      6221      6226      6228      6221      6226      6234      6228      6226      6234
      6226      6228      6230      6226      6228      6231      6230      6228      6231
      6228      6231      6233      6228      6231      6237      6233      6231      6237
      6226      6234      6236      6226      6234      6237      6236      6234      6237
      6231      6237      6234      6231      6237      6239      6234      6237      6239
      6243      6241      6244      6243      6241      6245      6243      6241      6246
      6244      6241      6245      6244      6241      6246      6245      6241      6246
      6241      6246      6248      6241      6246      6254      6248      6246      6254
      6246      6248      6250      6246      6248      6251      6250      6248      6251
      6248      6251      6253      6248      6251      6257      6253      6251      6257
      6246      6254      6256      6246      6254      6257      6256      6254      6257
      6251      6257      6254      6251      6257      6259      6254      6257      6259
      6263      6261      6264      6263      6261      6265      6263      6261      6266
      6264      6261      6265      6264      6261      6266      6265      6261      6266
      6261      6266      6268      6261      6266      6274      6268      6266      6274
      6266      6268      6270      6266      6268      6271      6270      6268      6271
      6268      6271      6273      6268      6271      6277      6273      6271      6277
      6266      6274      6276      6266      6274      6277      6276      6274      6277
      6271      6277      6274      6271      6277      6279      6274      6277      6279
      6283      6281      6284      6283      6281      6285      6283      6281      6286
      6284      6281      6285      6284      6281      6286      6285      6281      6286
      6281      6286      6288      6281      6286      6294      6288      6286      6294
      6286      6288      6290      6286      6288      6291      6290      6288      6291
      6288      6291      6293      6288      6291      6297      6293      6291      6297
      6286      6294      6296      6286      6294      6297      6296      6294      6297
      6291      6297      6294      6291      6297      6299      6294      6297      6299
      6303      6301      6304      6303      6301      6305      6303      6301      6306
      6304      6301      6305      6304      6301      6306      6305      6301      6306
      6301      6306      6308      6301      6306      6314      6308      6306      6314
      6306      6308      6310      6306      6308      6311      6310      6308      6311
      6308      6311      6313      6308      6311      6317      6313      6311      6317
      6306      6314      6316      6306      6314      6317      6316      6314      6317
      6311      6317      6314      6311      6317      6319      6314      6317      6319
      6323      6321      6324      6323      6321      6325      6323      6321      6326
      6324      6321      6325      6324      6321      6326      6325      6321      6326
      6321      6326      6328      6321      6326      6334      6328      6326      6334
      6326      6328      6330      6326      6328      6331      6330      6328      6331
      6328      6331      6333      6328      6331      6337      6333      6331      6337
      6326      6334      6336      6326      6334      6337      6336      6334      6337
      6331      6337      6334      6331      6337      6339      6334      6337      6339
      6343      6341      6344      6343      6341      6345      6343      6341      6346
      6344      6341      6345      6344      6341      6346      6345      6341      6346
      6341      6346      6348      6341      6346      6354      6348      6346      6354
      6346      6348      6350      6346      6348      6351      6350      6348      6351
      6348      6351      6353      6348      6351      6357      6353      6351      6357
      6346      6354      6356      6346      6354      6357      6356      6354      6357
      6351      6357      6354      6351      6357      6359      6354      6357      6359
      6363      6361      6364      6363      6361      6365      6363      6361      6366
      6364      6361      6365      6364      6361      6366      6365      6361      6366
      6361      6366      6368      6361      6366      6374      6368      6366      6374
      6366      6368      6370      6366      6368      6371      6370      6368      6371
      6368      6371      6373      6368      6371      6377      6373      6371      6377
      6366      6374      6376      6366      6374      6377      6376      6374      6377
      6371      6377      6374      6371      6377      6379      6374      6377      6379
      6383      6381      6384      6383      6381      6385      6383      6381      6386
      6384      6381      6385      6384      6381      6386      6385      6381      6386
      6381      6386      6388      6381      6386      6394      6388      6386      6394
      6386      6388      6390      6386      6388      6391      6390      6388      6391
      6388      6391      6393      6388      6391      6397      6393      6391      6397
      6386      6394      6396      6386      6394      6397      6396      6394      6397
      6391      6397      6394      6391      6397      6399      6394      6397      6399
      6403      6401      6404      6403      6401      6405      6403      6401      6406
      6404      6401      6405      6404      6401      6406      6405      6401      6406
      6401      6406      6408      6401      6406      6414      6408      6406      6414
      6406      6408      6410      6406      6408      6411      6410      6408      6411
      6408      6411      6413      6408      6411      6417      6413      6411      6417
      6406      6414      6416      6406      6414      6417      6416      6414      6417
      6411      6417      6414      6411      6417      6419      6414      6417      6419
      6423      6421      6424      6423      6421      6425      6423      6421      6426
      6424      6421      6425      6424      6421      6426      6425      6421      6426
      6421      6426      6428      6421      6426      6434      6428      6426      6434
      6426      6428      6430      6426      6428      6431      6430      6428      6431
      6428      6431      6433      6428      6431      6437      6433      6431      6437
      6426      6434      6436      6426      6434      6437      6436      6434      6437
      6431      6437      6434      6431      6437      6439      6434      6437      6439
      6443      6441      6444      6443      6441      6445      6443      6441      6446
      6444      6441      6445      6444      6441      6446      6445      6441      6446
      6441      6446      6448      6441      6446      6454      6448      6446      6454
      6446      6448      6450      6446      6448      6451      6450      6448      6451
      6448      6451      6453      6448      6451      6457      6453      6451      6457
      6446      6454      6456      6446      6454      6457      6456      6454      6457
      6451      6457      6454      6451      6457      6459      6454      6457      6459
      6463      6461      6464      6463      6461      6465      6463      6461      6466
      6464      6461      6465      6464      6461      6466      6465      6461      6466
      6461      6466      6468      6461      6466      6474      6468      6466      6474
      6466      6468      6470      6466      6468      6471      6470      6468      6471
      6468      6471      6473      6468      6471      6477      6473      6471      6477
      6466      6474      6476      6466      6474      6477      6476      6474      6477
      6471      6477      6474      6471      6477      6479      6474      6477      6479
      6483      6481      6484      6483      6481      6485      6483      6481      6486
      6484      6481      6485      6484      6481      6486      6485      6481      6486
      6481      6486      6488      6481      6486      6494      6488      6486      6494
      6486      6488      6490      6486      6488      6491      6490      6488      6491
      6488      6491      6493      6488      6491      6497      6493      6491      6497
      6486      6494      6496      6486      6494      6497      6496      6494      6497
      6491      6497      6494      6491      6497      6499      6494      6497      6499
      6503      6501      6504      6503      6501      6505      6503      6501      6506
      6504      6501      6505      6504      6501      6506      6505      6501      6506
      6501      6506      6508      6501      6506      6514      6508      6506      6514
      6506      6508      6510      6506      6508      6511      6510      6508      6511
      6508      6511      6513      6508      6511      6517      6513      6511      6517
      6506      6514      6516      6506      6514      6517      6516      6514      6517
      6511      6517      6514      6511      6517      6519      6514      6517      6519
      6523      6521      6524      6523      6521      6525      6523      6521      6526
      6524      6521      6525      6524      6521      6526      6525      6521      6526
      6521      6526      6528      6521      6526      6534      6528      6526      6534
      6526      6528      6530      6526      6528      6531      6530      6528      6531
      6528      6531      6533      6528      6531      6537      6533      6531      6537
      6526      6534      6536      6526      6534      6537      6536      6534      6537
      6531      6537      6534      6531      6537      6539      6534      6537      6539
      6543      6541      6544      6543      6541      6545      6543      6541      6546
      6544      6541      6545      6544      6541      6546      6545      6541      6546
      6541      6546      6548      6541      6546      6554      6548      6546      6554
      6546      6548      6550      6546      6548      6551      6550      6548      6551
      6548      6551      6553      6548      6551      6557      6553      6551      6557
      6546      6554      6556      6546      6554      6557      6556      6554      6557
      6551      6557      6554      6551      6557      6559      6554      6557      6559
      6563      6561      6564      6563      6561      6565      6563      6561      6566
      6564      6561      6565      6564      6561      6566      6565      6561      6566
      6561      6566      6568      6561      6566      6574      6568      6566      6574
      6566      6568      6570      6566      6568      6571      6570      6568      6571
      6568      6571      6573      6568      6571      6577      6573      6571      6577
      6566      6574      6576      6566      6574      6577      6576      6574      6577
      6571      6577      6574      6571      6577      6579      6574      6577      6579
      6583      6581      6584      6583      6581      6585      6583      6581      6586
      6584      6581      6585      6584      6581      6586      6585      6581      6586
      6581      6586      6588      6581      6586      6594      6588      6586      6594
      6586      6588      6590      6586      6588      6591      6590      6588      6591
      6588      6591      6593      6588      6591      6597      6593      6591      6597
      6586      6594      6596      6586      6594      6597      6596      6594      6597
      6591      6597      6594      6591      6597      6599      6594      6597      6599
      6603      6601      6604      6603      6601      6605      6603      6601      6606
      6604      6601      6605      6604      6601      6606      6605      6601      6606
      6601      6606      6608      6601      6606      6614      6608      6606      6614
      6606      6608      6610      6606      6608      6611      6610      6608      6611
      6608      6611      6613      6608      6611      6617      6613      6611      6617
      6606      6614      6616      6606      6614      6617      6616      6614      6617
      6611      6617      6614      6611      6617      6619      6614      6617      6619
      6623      6621      6624      6623      6621      6625      6623      6621      6626
      6624      6621      6625      6624      6621      6626      6625      6621      6626
      6621      6626      6628      6621      6626      6634      6628      6626      6634
      6626      6628      6630      6626      6628      6631      6630      6628      6631
      6628      6631      6633      6628      6631      6637      6633      6631      6637
      6626      6634      6636      6626      6634      6637      6636      6634      6637
      6631      6637      6634      6631      6637      6639      6634      6637      6639
      6643      6641      6644      6643      6641      6645      6643      6641      6646
      6644      6641      6645      6644      6641      6646      6645      6641      6646
      6641      6646      6648      6641      6646      6654      6648      6646      6654
      6646      6648      6650      6646      6648      6651      6650      6648      6651
      6648      6651      6653      6648      6651      6657      6653      6651      6657
      6646      6654      6656      6646      6654      6657      6656      6654      6657
      6651      6657      6654      6651      6657      6659      6654      6657      6659
      6663      6661      6664      6663      6661      6665      6663      6661      6666
      6664      6661      6665      6664      6661      6666      6665      6661      6666
      6661      6666      6668      6661      6666      6674      6668      6666      6674
      6666      6668      6670      6666      6668      6671      6670      6668      6671
      6668      6671      6673      6668      6671      6677      6673      6671      6677
      6666      6674      6676      6666      6674      6677      6676      6674      6677
      6671      6677      6674      6671      6677      6679      6674      6677      6679
      6683      6681      6684      6683      6681      6685      6683      6681      6686
      6684      6681      6685      6684      6681      6686      6685      6681      6686
      6681      6686      6688      6681      6686      6694      6688      6686      6694
      6686      6688      6690      6686      6688      6691      6690      6688      6691
      6688      6691      6693      6688      6691      6697      6693      6691      6697
      6686      6694      6696      6686      6694      6697      6696      6694      6697
      6691      6697      6694      6691      6697      6699      6694      6697      6699
      6703      6701      6704      6703      6701      6705      6703      6701      6706
      6704      6701      6705      6704      6701      6706      6705      6701      6706
      6701      6706      6708      6701      6706      6714      6708      6706      6714
      6706      6708      6710      6706      6708      6711      6710      6708      6711
      6708      6711      6713      6708      6711      6717      6713      6711      6717
      6706      6714      6716      6706      6714      6717      6716      6714      6717
      6711      6717      6714      6711      6717      6719      6714      6717      6719
      6723      6721      6724      6723      6721      6725      6723      6721      6726
      6724      6721      6725      6724      6721      6726      6725      6721      6726
      6721      6726      6728      6721      6726      6734      6728      6726      6734
      6726      6728      6730      6726      6728      6731      6730      6728      6731
      6728      6731      6733      6728      6731      6737      6733      6731      6737
      6726      6734      6736      6726      6734      6737      6736      6734      6737
      6731      6737      6734      6731      6737      6739      6734      6737      6739
      6743      6741      6744      6743      6741      6745      6743      6741      6746
      6744      6741      6745      6744      6741      6746      6745      6741      6746
      6741      6746      6748      6741      6746      6754      6748      6746      6754
      6746      6748      6750      6746      6748      6751      6750      6748      6751
      6748      6751      6753      6748      6751      6757      6753      6751      6757
      6746      6754      6756      6746      6754      6757      6756      6754      6757
      6751      6757      6754      6751      6757      6759      6754      6757      6759
      6763      6761      6764      6763      6761      6765      6763      6761      6766
      6764      6761      6765      6764      6761      6766      6765      6761      6766
      6761      6766      6768      6761      6766      6774      6768      6766      6774
      6766      6768      6770      6766      6768      6771      6770      6768      6771
      6768      6771      6773      6768      6771      6777      6773      6771      6777
      6766      6774      6776      6766      6774      6777      6776      6774      6777
      6771      6777      6774      6771      6777      6779      6774      6777      6779
      6783      6781      6784      6783      6781      6785      6783      6781      6786
      6784      6781      6785      6784      6781      6786      6785      6781      6786
      6781      6786      6788      6781      6786      6794      6788      6786      6794
      6786      6788      6790      6786      6788      6791      6790      6788      6791
      6788      6791      6793      6788      6791      6797      6793      6791      6797
      6786      6794      6796      6786      6794      6797      6796      6794      6797
      6791      6797      6794      6791      6797      6799      6794      6797      6799
      6803      6801      6804      6803      6801      6805      6803      6801      6806
      6804      6801      6805      6804      6801      6806      6805      6801      6806
      6801      6806      6808      6801      6806      6814      6808      6806      6814
      6806      6808      6810      6806      6808      6811      6810      6808      6811
      6808      6811      6813      6808      6811      6817      6813      6811      6817
      6806      6814      6816      6806      6814      6817      6816      6814      6817
      6811      6817      6814      6811      6817      6819      6814      6817      6819
      6823      6821      6824      6823      6821      6825      6823      6821      6826
      6824      6821      6825      6824      6821      6826      6825      6821      6826
      6821      6826      6828      6821      6826      6834      6828      6826      6834
      6826      6828      6830      6826      6828      6831      6830      6828      6831
      6828      6831      6833      6828      6831      6837      6833      6831      6837
      6826      6834      6836      6826      6834      6837      6836      6834      6837
      6831      6837      6834      6831      6837      6839      6834      6837      6839
      6843      6841      6844      6843      6841      6845      6843      6841      6846
      6844      6841      6845      6844      6841      6846      6845      6841      6846
      6841      6846      6848      6841      6846      6854      6848      6846      6854
      6846      6848      6850      6846      6848      6851      6850      6848      6851
      6848      6851      6853      6848      6851      6857      6853      6851      6857
      6846      6854      6856      6846      6854      6857      6856      6854      6857
      6851      6857      6854      6851      6857      6859      6854      6857      6859
      6863      6861      6864      6863      6861      6865      6863      6861      6866
      6864      6861      6865      6864      6861      6866      6865      6861      6866
      6861      6866      6868      6861      6866      6874      6868      6866      6874
      6866      6868      6870      6866      6868      6871      6870      6868      6871
      6868      6871      6873      6868      6871      6877      6873      6871      6877
      6866      6874      6876      6866      6874      6877      6876      6874      6877
      6871      6877      6874      6871      6877      6879      6874      6877      6879
      6883      6881      6884      6883      6881      6885      6883      6881      6886
      6884      6881      6885      6884      6881      6886      6885      6881      6886
      6881      6886      6888      6881      6886      6894      6888      6886      6894
      6886      6888      6890      6886      6888      6891      6890      6888      6891
      6888      6891      6893      6888      6891      6897      6893      6891      6897
      6886      6894      6896      6886      6894      6897      6896      6894      6897
      6891      6897      6894      6891      6897      6899      6894      6897      6899
      6903      6901      6904      6903      6901      6905      6903      6901      6906
      6904      6901      6905      6904      6901      6906      6905      6901      6906
      6901      6906      6908      6901      6906      6914      6908      6906      6914
      6906      6908      6910      6906      6908      6911      6910      6908      6911
      6908      6911      6913      6908      6911      6917      6913      6911      6917
      6906      6914      6916      6906      6914      6917      6916      6914      6917
      6911      6917      6914      6911      6917      6919      6914      6917      6919
      6923      6921      6924      6923      6921      6925      6923      6921      6926
      6924      6921      6925      6924      6921      6926      6925      6921      6926
      6921      6926      6928      6921      6926      6934      6928      6926      6934
      6926      6928      6930      6926      6928      6931      6930      6928      6931
      6928      6931      6933      6928      6931      6937      6933      6931      6937
      6926      6934      6936      6926      6934      6937      6936      6934      6937
      6931      6937      6934      6931      6937      6939      6934      6937      6939
      6943      6941      6944      6943      6941      6945      6943      6941      6946
      6944      6941      6945      6944      6941      6946      6945      6941      6946
      6941      6946      6948      6941      6946      6954      6948      6946      6954
      6946      6948      6950      6946      6948      6951      6950      6948      6951
      6948      6951      6953      6948      6951      6957      6953      6951      6957
      6946      6954      6956      6946      6954      6957      6956      6954      6957
      6951      6957      6954      6951      6957      6959      6954      6957      6959
      6963      6961      6964      6963      6961      6965      6963      6961      6966
      6964      6961      6965      6964      6961      6966      6965      6961      6966
      6961      6966      6968      6961      6966      6974      6968      6966      6974
      6966      6968      6970      6966      6968      6971      6970      6968      6971
      6968      6971      6973      6968      6971      6977      6973      6971      6977
      6966      6974      6976      6966      6974      6977      6976      6974      6977
      6971      6977      6974      6971      6977      6979      6974      6977      6979
      6983      6981      6984      6983      6981      6985      6983      6981      6986
      6984      6981      6985      6984      6981      6986      6985      6981      6986
      6981      6986      6988      6981      6986      6994      6988      6986      6994
      6986      6988      6990      6986      6988      6991      6990      6988      6991
      6988      6991      6993      6988      6991      6997      6993      6991      6997
      6986      6994      6996      6986      6994      6997      6996      6994      6997
      6991      6997      6994      6991      6997      6999      6994      6997      6999
      7003      7001      7004      7003      7001      7005      7003      7001      7006
      7004      7001      7005      7004      7001      7006      7005      7001      7006
      7001      7006      7008      7001      7006      7014      7008      7006      7014
      7006      7008      7010      7006      7008      7011      7010      7008      7011
      7008      7011      7013      7008      7011      7017      7013      7011      7017
      7006      7014      7016      7006      7014      7017      7016      7014      7017
      7011      7017      7014      7011      7017      7019      7014      7017      7019
      7023      7021      7024      7023      7021      7025      7023      7021      7026
      7024      7021      7025      7024      7021      7026      7025      7021      7026
      7021      7026      7028      7021      7026      7034      7028      7026      7034
      7026      7028      7030      7026      7028      7031      7030      7028      7031
      7028      7031      7033      7028      7031      7037      7033      7031      7037
      7026      7034      7036      7026      7034      7037      7036      7034      7037
      7031      7037      7034      7031      7037      7039      7034      7037      7039
      7043      7041      7044      7043      7041      7045      7043      7041      7046
      7044      7041      7045      7044      7041      7046      7045      7041      7046
      7041      7046      7048      7041      7046      7054      7048      7046      7054
      7046      7048      7050      7046      7048      7051      7050      7048      7051
      7048      7051      7053      7048      7051      7057      7053      7051      7057
      7046      7054      7056      7046      7054      7057      7056      7054      7057
      7051      7057      7054      7051      7057      7059      7054      7057      7059
      7063      7061      7064      7063      7061      7065      7063      7061      7066
      7064      7061      7065      7064      7061      7066      7065      7061      7066
      7061      7066      7068      7061      7066      7074      7068      7066      7074
      7066      7068      7070      7066      7068      7071      7070      7068      7071
      7068      7071      7073      7068      7071      7077      7073      7071      7077
      7066      7074      7076      7066      7074      7077      7076      7074      7077
      7071      7077      7074      7071      7077      7079      7074      7077      7079
      7083      7081      7084      7083      7081      7085      7083      7081      7086
      7084      7081      7085      7084      7081      7086      7085      7081      7086
      7081      7086      7088      7081      7086      7094      7088      7086      7094
      7086      7088      7090      7086      7088      7091      7090      7088      7091
      7088      7091      7093      7088      7091      7097      7093      7091      7097
      7086      7094      7096      7086      7094      7097      7096      7094      7097
      7091      7097      7094      7091      7097      7099      7094      7097      7099
      7103      7101      7104      7103      7101      7105      7103      7101      7106
      7104      7101      7105      7104      7101      7106      7105      7101      7106
      7101      7106      7108      7101      7106      7114      7108      7106      7114
      7106      7108      7110      7106      7108      7111      7110      7108      7111
      7108      7111      7113      7108      7111      7117      7113      7111      7117
      7106      7114      7116      7106      7114      7117      7116      7114      7117
      7111      7117      7114      7111      7117      7119      7114      7117      7119
      7123      7121      7124      7123      7121      7125      7123      7121      7126
      7124      7121      7125      7124      7121      7126      7125      7121      7126
      7121      7126      7128      7121      7126      7134      7128      7126      7134
      7126      7128      7130      7126      7128      7131      7130      7128      7131
      7128      7131      7133      7128      7131      7137      7133      7131      7137
      7126      7134      7136      7126      7134      7137      7136      7134      7137
      7131      7137      7134      7131      7137      7139      7134      7137      7139
      7143      7141      7144      7143      7141      7145      7143      7141      7146
      7144      7141      7145      7144      7141      7146      7145      7141      7146
      7141      7146      7148      7141      7146      7154      7148      7146      7154
      7146      7148      7150      7146      7148      7151      7150      7148      7151
      7148      7151      7153      7148      7151      7157      7153      7151      7157
      7146      7154      7156      7146      7154      7157      7156      7154      7157
      7151      7157      7154      7151      7157      7159      7154      7157      7159
      7163      7161      7164      7163      7161      7165      7163      7161      7166
      7164      7161      7165      7164      7161      7166      7165      7161      7166
      7161      7166      7168      7161      7166      7174      7168      7166      7174
      7166      7168      7170      7166      7168      7171      7170      7168      7171
      7168      7171      7173      7168      7171      7177      7173      7171      7177
      7166      7174      7176      7166      7174      7177      7176      7174      7177
      7171      7177      7174      7171      7177      7179      7174      7177      7179
      7183      7181      7184      7183      7181      7185      7183      7181      7186
      7184      7181      7185      7184      7181      7186      7185      7181      7186
      7181      7186      7188      7181      7186      7194      7188      7186      7194
      7186      7188      7190      7186      7188      7191      7190      7188      7191
      7188      7191      7193      7188      7191      7197      7193      7191      7197
      7186      7194      7196      7186      7194      7197      7196      7194      7197
      7191      7197      7194      7191      7197      7199      7194      7197      7199
      7203      7201      7204      7203      7201      7205      7203      7201      7206
      7204      7201      7205      7204      7201      7206      7205      7201      7206
      7201      7206      7208      7201      7206      7214      7208      7206      7214
      7206      7208      7210      7206      7208      7211      7210      7208      7211
      7208      7211      7213      7208      7211      7217      7213      7211      7217
      7206      7214      7216      7206      7214      7217      7216      7214      7217
      7211      7217      7214      7211      7217      7219      7214      7217      7219
      7223      7221      7224      7223      7221      7225      7223      7221      7226
      7224      7221      7225      7224      7221      7226      7225      7221      7226
      7221      7226      7228      7221      7226      7234      7228      7226      7234
      7226      7228      7230      7226      7228      7231      7230      7228      7231
      7228      7231      7233      7228      7231      7237      7233      7231      7237
      7226      7234      7236      7226      7234      7237      7236      7234      7237
      7231      7237      7234      7231      7237      7239      7234      7237      7239
      7243      7241      7244      7243      7241      7245      7243      7241      7246
      7244      7241      7245      7244      7241      7246      7245      7241      7246
      7241      7246      7248      7241      7246      7254      7248      7246      7254
      7246      7248      7250      7246      7248      7251      7250      7248      7251
      7248      7251      7253      7248      7251      7257      7253      7251      7257
      7246      7254      7256      7246      7254      7257      7256      7254      7257
      7251      7257      7254      7251      7257      7259      7254      7257      7259
      7263      7261      7264      7263      7261      7265      7263      7261      7266
      7264      7261      7265      7264      7261      7266      7265      7261      7266
      7261      7266      7268      7261      7266      7274      7268      7266      7274
      7266      7268      7270      7266      7268      7271      7270      7268      7271
      7268      7271      7273      7268      7271      7277      7273      7271      7277
      7266      7274      7276      7266      7274      7277      7276      7274      7277
      7271      7277      7274      7271      7277      7279      7274      7277      7279
      7283      7281      7284      7283      7281      7285      7283      7281      7286
      7284      7281      7285      7284      7281      7286      7285      7281      7286
      7281      7286      7288      7281      7286      7294      7288      7286      7294
      7286      7288      7290      7286      7288      7291      7290      7288      7291
      7288      7291      7293      7288      7291      7297      7293      7291      7297
      7286      7294      7296      7286      7294      7297      7296      7294      7297
      7291      7297      7294      7291      7297      7299      7294      7297      7299
      7303      7301      7304      7303      7301      7305      7303      7301      7306
      7304      7301      7305      7304      7301      7306      7305      7301      7306
      7301      7306      7308      7301      7306      7314      7308      7306      7314
      7306      7308      7310      7306      7308      7311      7310      7308      7311
      7308      7311      7313      7308      7311      7317      7313      7311      7317
      7306      7314      7316      7306      7314      7317      7316      7314      7317
      7311      7317      7314      7311      7317      7319      7314      7317      7319
      7323      7321      7324      7323      7321      7325      7323      7321      7326
      7324      7321      7325      7324      7321      7326      7325      7321      7326
      7321      7326      7328      7321      7326      7334      7328      7326      7334
      7326      7328      7330      7326      7328      7331      7330      7328      7331
      7328      7331      7333      7328      7331      7337      7333      7331      7337
      7326      7334      7336      7326      7334      7337      7336      7334      7337
      7331      7337      7334      7331      7337      7339      7334      7337      7339
      7343      7341      7344      7343      7341      7345      7343      7341      7346
      7344      7341      7345      7344      7341      7346      7345      7341      7346
      7341      7346      7348      7341      7346      7354      7348      7346      7354
      7346      7348      7350      7346      7348      7351      7350      7348      7351
      7348      7351      7353      7348      7351      7357      7353      7351      7357
      7346      7354      7356      7346      7354      7357      7356      7354      7357
      7351      7357      7354      7351      7357      7359      7354      7357      7359
      7363      7361      7364      7363      7361      7365      7363      7361      7366
      7364      7361      7365      7364      7361      7366      7365      7361      7366
      7361      7366      7368      7361      7366      7374      7368      7366      7374
      7366      7368      7370      7366      7368      7371      7370      7368      7371
      7368      7371      7373      7368      7371      7377      7373      7371      7377
      7366      7374      7376      7366      7374      7377      7376      7374      7377
      7371      7377      7374      7371      7377      7379      7374      7377      7379
      7383      7381      7384      7383      7381      7385      7383      7381      7386
      7384      7381      7385      7384      7381      7386      7385      7381      7386
      7381      7386      7388      7381      7386      7394      7388      7386      7394
      7386      7388      7390      7386      7388      7391      7390      7388      7391
      7388      7391      7393      7388      7391      7397      7393      7391      7397
      7386      7394      7396      7386      7394      7397      7396      7394      7397
      7391      7397      7394      7391      7397      7399      7394      7397      7399
      7403      7401      7404      7403      7401      7405      7403      7401      7406
      7404      7401      7405      7404      7401      7406      7405      7401      7406
      7401      7406      7408      7401      7406      7414      7408      7406      7414
      7406      7408      7410      7406      7408      7411      7410      7408      7411
      7408      7411      7413      7408      7411      7417      7413      7411      7417
      7406      7414      7416      7406      7414      7417      7416      7414      7417
      7411      7417      7414      7411      7417      7419      7414      7417      7419
      7423      7421      7424      7423      7421      7425      7423      7421      7426
      7424      7421      7425      7424      7421      7426      7425      7421      7426
      7421      7426      7428      7421      7426      7434      7428      7426      7434
      7426      7428      7430      7426      7428      7431      7430      7428      7431
      7428      7431      7433      7428      7431      7437      7433      7431      7437
      7426      7434      7436      7426      7434      7437      7436      7434      7437
      7431      7437      7434      7431      7437      7439      7434      7437      7439
      7443      7441      7444      7443      7441      7445      7443      7441      7446
      7444      7441      7445      7444      7441      7446      7445      7441      7446
      7441      7446      7448      7441      7446      7454      7448      7446      7454
      7446      7448      7450      7446      7448      7451      7450      7448      7451
      7448      7451      7453      7448      7451      7457      7453      7451      7457
      7446      7454      7456      7446      7454      7457      7456      7454      7457
      7451      7457      7454      7451      7457      7459      7454      7457      7459
      7463      7461      7464      7463      7461      7465      7463      7461      7466
      7464      7461      7465      7464      7461      7466      7465      7461      7466
      7461      7466      7468      7461      7466      7474      7468      7466      7474
      7466      7468      7470      7466      7468      7471      7470      7468      7471
      7468      7471      7473      7468      7471      7477      7473      7471      7477
      7466      7474      7476      7466      7474      7477      7476      7474      7477
      7471      7477      7474      7471      7477      7479      7474      7477      7479
      7483      7481      7484      7483      7481      7485      7483      7481      7486
      7484      7481      7485      7484      7481      7486      7485      7481      7486
      7481      7486      7488      7481      7486      7494      7488      7486      7494
      7486      7488      7490      7486      7488      7491      7490      7488      7491
      7488      7491      7493      7488      7491      7497      7493      7491      7497
      7486      7494      7496      7486      7494      7497      7496      7494      7497
      7491      7497      7494      7491      7497      7499      7494      7497      7499
      7503      7501      7504      7503      7501      7505      7503      7501      7506
      7504      7501      7505      7504      7501      7506      7505      7501      7506
      7501      7506      7508      7501      7506      7514      7508      7506      7514
      7506      7508      7510      7506      7508      7511      7510      7508      7511
      7508      7511      7513      7508      7511      7517      7513      7511      7517
      7506      7514      7516      7506      7514      7517      7516      7514      7517
      7511      7517      7514      7511      7517      7519      7514      7517      7519
      7523      7521      7524      7523      7521      7525      7523      7521      7526
      7524      7521      7525      7524      7521      7526      7525      7521      7526
      7521      7526      7528      7521      7526      7534      7528      7526      7534
      7526      7528      7530      7526      7528      7531      7530      7528      7531
      7528      7531      7533      7528      7531      7537      7533      7531      7537
      7526      7534      7536      7526      7534      7537      7536      7534      7537
      7531      7537      7534      7531      7537      7539      7534      7537      7539
      7543      7541      7544      7543      7541      7545      7543      7541      7546
      7544      7541      7545      7544      7541      7546      7545      7541      7546
      7541      7546      7548      7541      7546      7554      7548      7546      7554
      7546      7548      7550      7546      7548      7551      7550      7548      7551
      7548      7551      7553      7548      7551      7557      7553      7551      7557
      7546      7554      7556      7546      7554      7557      7556      7554      7557
      7551      7557      7554      7551      7557      7559      7554      7557      7559
      7563      7561      7564      7563      7561      7565      7563      7561      7566
      7564      7561      7565      7564      7561      7566      7565      7561      7566
      7561      7566      7568      7561      7566      7574      7568      7566      7574
      7566      7568      7570      7566      7568      7571      7570      7568      7571
      7568      7571      7573      7568      7571      7577      7573      7571      7577
      7566      7574      7576      7566      7574      7577      7576      7574      7577
      7571      7577      7574      7571      7577      7579      7574      7577      7579
      7583      7581      7584      7583      7581      7585      7583      7581      7586
      7584      7581      7585      7584      7581      7586      7585      7581      7586
      7581      7586      7588      7581      7586      7594      7588      7586      7594
      7586      7588      7590      7586      7588      7591      7590      7588      7591
      7588      7591      7593      7588      7591      7597      7593      7591      7597
      7586      7594      7596      7586      7594      7597      7596      7594      7597
      7591      7597      7594      7591      7597      7599      7594      7597      7599
      7603      7601      7604      7603      7601      7605      7603      7601      7606
      7604      7601      7605      7604      7601      7606      7605      7601      7606
      7601      7606      7608      7601      7606      7614      7608      7606      7614
      7606      7608      7610      7606      7608      7611      7610      7608      7611
      7608      7611      7613      7608      7611      7617      7613      7611      7617
      7606      7614      7616      7606      7614      7617      7616      7614      7617
      7611      7617      7614      7611      7617      7619      7614      7617      7619
      7623      7621      7624      7623      7621      7625      7623      7621      7626
      7624      7621      7625      7624      7621      7626      7625      7621      7626
      7621      7626      7628      7621      7626      7634      7628      7626      7634
      7626      7628      7630      7626      7628      7631      7630      7628      7631
      7628      7631      7633      7628      7631      7637      7633      7631      7637
      7626      7634      7636      7626      7634      7637      7636      7634      7637
      7631      7637      7634      7631      7637      7639      7634      7637      7639
      7643      7641      7644      7643      7641      7645      7643      7641      7646
      7644      7641      7645      7644      7641      7646      7645      7641      7646
      7641      7646      7648      7641      7646      7654      7648      7646      7654
      7646      7648      7650      7646      7648      7651      7650      7648      7651
      7648      7651      7653      7648      7651      7657      7653      7651      7657
      7646      7654      7656      7646      7654      7657      7656      7654      7657
      7651      7657      7654      7651      7657      7659      7654      7657      7659
      7663      7661      7664      7663      7661      7665      7663      7661      7666
      7664      7661      7665      7664      7661      7666      7665      7661      7666
      7661      7666      7668      7661      7666      7674      7668      7666      7674
      7666      7668      7670      7666      7668      7671      7670      7668      7671
      7668      7671      7673      7668      7671      7677      7673      7671      7677
      7666      7674      7676      7666      7674      7677      7676      7674      7677
      7671      7677      7674      7671      7677      7679      7674      7677      7679
      7683      7681      7684      7683      7681      7685      7683      7681      7686
      7684      7681      7685      7684      7681      7686      7685      7681      7686
      7681      7686      7688      7681      7686      7694      7688      7686      7694
      7686      7688      7690      7686      7688      7691      7690      7688      7691
      7688      7691      7693      7688      7691      7697      7693      7691      7697
      7686      7694      7696      7686      7694      7697      7696      7694      7697
      7691      7697      7694      7691      7697      7699      7694      7697      7699
      7703      7701      7704      7703      7701      7705      7703      7701      7706
      7704      7701      7705      7704      7701      7706      7705      7701      7706
      7701      7706      7708      7701      7706      7714      7708      7706      7714
      7706      7708      7710      7706      7708      7711      7710      7708      7711
      7708      7711      7713      7708      7711      7717      7713      7711      7717
      7706      7714      7716      7706      7714      7717      7716      7714      7717
      7711      7717      7714      7711      7717      7719      7714      7717      7719
      7723      7721      7724      7723      7721      7725      7723      7721      7726
      7724      7721      7725      7724      7721      7726      7725      7721      7726
      7721      7726      7728      7721      7726      7734      7728      7726      7734
      7726      7728      7730      7726      7728      7731      7730      7728      7731
      7728      7731      7733      7728      7731      7737      7733      7731      7737
      7726      7734      7736      7726      7734      7737      7736      7734      7737
      7731      7737      7734      7731      7737      7739      7734      7737      7739
      7743      7741      7744      7743      7741      7745      7743      7741      7746
      7744      7741      7745      7744      7741      7746      7745      7741      7746
      7741      7746      7748      7741      7746      7754      7748      7746      7754
      7746      7748      7750      7746      7748      7751      7750      7748      7751
      7748      7751      7753      7748      7751      7757      7753      7751      7757
      7746      7754      7756      7746      7754      7757      7756      7754      7757
      7751      7757      7754      7751      7757      7759      7754      7757      7759
      7763      7761      7764      7763      7761      7765      7763      7761      7766
      7764      7761      7765      7764      7761      7766      7765      7761      7766
      7761      7766      7768      7761      7766      7774      7768      7766      7774
      7766      7768      7770      7766      7768      7771      7770      7768      7771
      7768      7771      7773      7768      7771      7777      7773      7771      7777
      7766      7774      7776      7766      7774      7777      7776      7774      7777
      7771      7777      7774      7771      7777      7779      7774      7777      7779
      7783      7781      7784      7783      7781      7785      7783      7781      7786
      7784      7781      7785      7784      7781      7786      7785      7781      7786
      7781      7786      7788      7781      7786      7794      7788      7786      7794
      7786      7788      7790      7786      7788      7791      7790      7788      7791
      7788      7791      7793      7788      7791      7797      7793      7791      7797
      7786      7794      7796      7786      7794      7797      7796      7794      7797
      7791      7797      7794      7791      7797      7799      7794      7797      7799
      7803      7801      7804      7803      7801      7805      7803      7801      7806
      7804      7801      7805      7804      7801      7806      7805      7801      7806
      7801      7806      7808      7801      7806      7814      7808      7806      7814
      7806      7808      7810      7806      7808      7811      7810      7808      7811
      7808      7811      7813      7808      7811      7817      7813      7811      7817
      7806      7814      7816      7806      7814      7817      7816      7814      7817
      7811      7817      7814      7811      7817      7819      7814      7817      7819
      7823      7821      7824      7823      7821      7825      7823      7821      7826
      7824      7821      7825      7824      7821      7826      7825      7821      7826
      7821      7826      7828      7821      7826      7834      7828      7826      7834
      7826      7828      7830      7826      7828      7831      7830      7828      7831
      7828      7831      7833      7828      7831      7837      7833      7831      7837
      7826      7834      7836      7826      7834      7837      7836      7834      7837
      7831      7837      7834      7831      7837      7839      7834      7837      7839
      7843      7841      7844      7843      7841      7845      7843      7841      7846
      7844      7841      7845      7844      7841      7846      7845      7841      7846
      7841      7846      7848      7841      7846      7854      7848      7846      7854
      7846      7848      7850      7846      7848      7851      7850      7848      7851
      7848      7851      7853      7848      7851      7857      7853      7851      7857
      7846      7854      7856      7846      7854      7857      7856      7854      7857
      7851      7857      7854      7851      7857      7859      7854      7857      7859
      7863      7861      7864      7863      7861      7865      7863      7861      7866
      7864      7861      7865      7864      7861      7866      7865      7861      7866
      7861      7866      7868      7861      7866      7874      7868      7866      7874
      7866      7868      7870      7866      7868      7871      7870      7868      7871
      7868      7871      7873      7868      7871      7877      7873      7871      7877
      7866      7874      7876      7866      7874      7877      7876      7874      7877
      7871      7877      7874      7871      7877      7879      7874      7877      7879
      7883      7881      7884      7883      7881      7885      7883      7881      7886
      7884      7881      7885      7884      7881      7886      7885      7881      7886
      7881      7886      7888      7881      7886      7894      7888      7886      7894
      7886      7888      7890      7886      7888      7891      7890      7888      7891
      7888      7891      7893      7888      7891      7897      7893      7891      7897
      7886      7894      7896      7886      7894      7897      7896      7894      7897
      7891      7897      7894      7891      7897      7899      7894      7897      7899
      7903      7901      7904      7903      7901      7905      7903      7901      7906
      7904      7901      7905      7904      7901      7906      7905      7901      7906
      7901      7906      7908      7901      7906      7914      7908      7906      7914
      7906      7908      7910      7906      7908      7911      7910      7908      7911
      7908      7911      7913      7908      7911      7917      7913      7911      7917
      7906      7914      7916      7906      7914      7917      7916      7914      7917
      7911      7917      7914      7911      7917      7919      7914      7917      7919
      7923      7921      7924      7923      7921      7925      7923      7921      7926
      7924      7921      7925      7924      7921      7926      7925      7921      7926
      7921      7926      7928      7921      7926      7934      7928      7926      7934
      7926      7928      7930      7926      7928      7931      7930      7928      7931
      7928      7931      7933      7928      7931      7937      7933      7931      7937
      7926      7934      7936      7926      7934      7937      7936      7934      7937
      7931      7937      7934      7931      7937      7939      7934      7937      7939
      7943      7941      7944      7943      7941      7945      7943      7941      7946
      7944      7941      7945      7944      7941      7946      7945      7941      7946
      7941      7946      7948      7941      7946      7954      7948      7946      7954
      7946      7948      7950      7946      7948      7951      7950      7948      7951
      7948      7951      7953      7948      7951      7957      7953      7951      7957
      7946      7954      7956      7946      7954      7957      7956      7954      7957
      7951      7957      7954      7951      7957      7959      7954      7957      7959
      7963      7961      7964      7963      7961      7965      7963      7961      7966
      7964      7961      7965      7964      7961      7966      7965      7961      7966
      7961      7966      7968      7961      7966      7974      7968      7966      7974
      7966      7968      7970      7966      7968      7971      7970      7968      7971
      7968      7971      7973      7968      7971      7977      7973      7971      7977
      7966      7974      7976      7966      7974      7977      7976      7974      7977
      7971      7977      7974      7971      7977      7979      7974      7977      7979
      7983      7981      7984      7983      7981      7985      7983      7981      7986
      7984      7981      7985      7984      7981      7986      7985      7981      7986
      7981      7986      7988      7981      7986      7994      7988      7986      7994
      7986      7988      7990      7986      7988      7991      7990      7988      7991
      7988      7991      7993      7988      7991      7997      7993      7991      7997
      7986      7994      7996      7986      7994      7997      7996      7994      7997
      7991      7997      7994      7991      7997      7999      7994      7997      7999
      8003      8001      8004      8003      8001      8005      8003      8001      8006
      8004      8001      8005      8004      8001      8006      8005      8001      8006
      8001      8006      8008      8001      8006      8014      8008      8006      8014
      8006      8008      8010      8006      8008      8011      8010      8008      8011
      8008      8011      8013      8008      8011      8017      8013      8011      8017
      8006      8014      8016      8006      8014      8017      8016      8014      8017
      8011      8017      8014      8011      8017      8019      8014      8017      8019
      8023      8021      8024      8023      8021      8025      8023      8021      8026
      8024      8021      8025      8024      8021      8026      8025      8021      8026
      8021      8026      8028      8021      8026      8034      8028      8026      8034
      8026      8028      8030      8026      8028      8031      8030      8028      8031
      8028      8031      8033      8028      8031      8037      8033      8031      8037
      8026      8034      8036      8026      8034      8037      8036      8034      8037
      8031      8037      8034      8031      8037      8039      8034      8037      8039
      8043      8041      8044      8043      8041      8045      8043      8041      8046
      8044      8041      8045      8044      8041      8046      8045      8041      8046
      8041      8046      8048      8041      8046      8054      8048      8046      8054
      8046      8048      8050      8046      8048      8051      8050      8048      8051
      8048      8051      8053      8048      8051      8057      8053      8051      8057
      8046      8054      8056      8046      8054      8057      8056      8054      8057
      8051      8057      8054      8051      8057      8059      8054      8057      8059
      8063      8061      8064      8063      8061      8065      8063      8061      8066
      8064      8061      8065      8064      8061      8066      8065      8061      8066
      8061      8066      8068      8061      8066      8074      8068      8066      8074
      8066      8068      8070      8066      8068      8071      8070      8068      8071
      8068      8071      8073      8068      8071      8077      8073      8071      8077
      8066      8074      8076      8066      8074      8077      8076      8074      8077
      8071      8077      8074      8071      8077      8079      8074      8077      8079
      8083      8081      8084      8083      8081      8085      8083      8081      8086
      8084      8081      8085      8084      8081      8086      8085      8081      8086
      8081      8086      8088      8081      8086      8094      8088      8086      8094
      8086      8088      8090      8086      8088      8091      8090      8088      8091
      8088      8091      8093      8088      8091      8097      8093      8091      8097
      8086      8094      8096      8086      8094      8097      8096      8094      8097
      8091      8097      8094      8091      8097      8099      8094      8097      8099
      8103      8101      8104      8103      8101      8105      8103      8101      8106
      8104      8101      8105      8104      8101      8106      8105      8101      8106
      8101      8106      8108      8101      8106      8114      8108      8106      8114
      8106      8108      8110      8106      8108      8111      8110      8108      8111
      8108      8111      8113      8108      8111      8117      8113      8111      8117
      8106      8114      8116      8106      8114      8117      8116      8114      8117
      8111      8117      8114      8111      8117      8119      8114      8117      8119
      8123      8121      8124      8123      8121      8125      8123      8121      8126
      8124      8121      8125      8124      8121      8126      8125      8121      8126
      8121      8126      8128      8121      8126      8134      8128      8126      8134
      8126      8128      8130      8126      8128      8131      8130      8128      8131
      8128      8131      8133      8128      8131      8137      8133      8131      8137
      8126      8134      8136      8126      8134      8137      8136      8134      8137
      8131      8137      8134      8131      8137      8139      8134      8137      8139
      8143      8141      8144      8143      8141      8145      8143      8141      8146
      8144      8141      8145      8144      8141      8146      8145      8141      8146
      8141      8146      8148      8141      8146      8154      8148      8146      8154
      8146      8148      8150      8146      8148      8151      8150      8148      8151
      8148      8151      8153      8148      8151      8157      8153      8151      8157
      8146      8154      8156      8146      8154      8157      8156      8154      8157
      8151      8157      8154      8151      8157      8159      8154      8157      8159
      8163      8161      8164      8163      8161      8165      8163      8161      8166
      8164      8161      8165      8164      8161      8166      8165      8161      8166
      8161      8166      8168      8161      8166      8174      8168      8166      8174
      8166      8168      8170      8166      8168      8171      8170      8168      8171
      8168      8171      8173      8168      8171      8177      8173      8171      8177
      8166      8174      8176      8166      8174      8177      8176      8174      8177
      8171      8177      8174      8171      8177      8179      8174      8177      8179
      8183      8181      8184      8183      8181      8185      8183      8181      8186
      8184      8181      8185      8184      8181      8186      8185      8181      8186
      8181      8186      8188      8181      8186      8194      8188      8186      8194
      8186      8188      8190      8186      8188      8191      8190      8188      8191
      8188      8191      8193      8188      8191      8197      8193      8191      8197
      8186      8194      8196      8186      8194      8197      8196      8194      8197
      8191      8197      8194      8191      8197      8199      8194      8197      8199
      8203      8201      8204      8203      8201      8205      8203      8201      8206
      8204      8201      8205      8204      8201      8206      8205      8201      8206
      8201      8206      8208      8201      8206      8214      8208      8206      8214
      8206      8208      8210      8206      8208      8211      8210      8208      8211
      8208      8211      8213      8208      8211      8217      8213      8211      8217
      8206      8214      8216      8206      8214      8217      8216      8214      8217
      8211      8217      8214      8211      8217      8219      8214      8217      8219
      8223      8221      8224      8223      8221      8225      8223      8221      8226
      8224      8221      8225      8224      8221      8226      8225      8221      8226
      8221      8226      8228      8221      8226      8234      8228      8226      8234
      8226      8228      8230      8226      8228      8231      8230      8228      8231
      8228      8231      8233      8228      8231      8237      8233      8231      8237
      8226      8234      8236      8226      8234      8237      8236      8234      8237
      8231      8237      8234      8231      8237      8239      8234      8237      8239
      8243      8241      8244      8243      8241      8245      8243      8241      8246
      8244      8241      8245      8244      8241      8246      8245      8241      8246
      8241      8246      8248      8241      8246      8254      8248      8246      8254
      8246      8248      8250      8246      8248      8251      8250      8248      8251
      8248      8251      8253      8248      8251      8257      8253      8251      8257
      8246      8254      8256      8246      8254      8257      8256      8254      8257
      8251      8257      8254      8251      8257      8259      8254      8257      8259
      8263      8261      8264      8263      8261      8265      8263      8261      8266
      8264      8261      8265      8264      8261      8266      8265      8261      8266
      8261      8266      8268      8261      8266      8274      8268      8266      8274
      8266      8268      8270      8266      8268      8271      8270      8268      8271
      8268      8271      8273      8268      8271      8277      8273      8271      8277
      8266      8274      8276      8266      8274      8277      8276      8274      8277
      8271      8277      8274      8271      8277      8279      8274      8277      8279
      8283      8281      8284      8283      8281      8285      8283      8281      8286
      8284      8281      8285      8284      8281      8286      8285      8281      8286
      8281      8286      8288      8281      8286      8294      8288      8286      8294
      8286      8288      8290      8286      8288      8291      8290      8288      8291
      8288      8291      8293      8288      8291      8297      8293      8291      8297
      8286      8294      8296      8286      8294      8297      8296      8294      8297
      8291      8297      8294      8291      8297      8299      8294      8297      8299
      8303      8301      8304      8303      8301      8305      8303      8301      8306
      8304      8301      8305      8304      8301      8306      8305      8301      8306
      8301      8306      8308      8301      8306      8314      8308      8306      8314
      8306      8308      8310      8306      8308      8311      8310      8308      8311
      8308      8311      8313      8308      8311      8317      8313      8311      8317
      8306      8314      8316      8306      8314      8317      8316      8314      8317
      8311      8317      8314      8311      8317      8319      8314      8317      8319
      8323      8321      8324      8323      8321      8325      8323      8321      8326
      8324      8321      8325      8324      8321      8326      8325      8321      8326
      8321      8326      8328      8321      8326      8334      8328      8326      8334
      8326      8328      8330      8326      8328      8331      8330      8328      8331
      8328      8331      8333      8328      8331      8337      8333      8331      8337
      8326      8334      8336      8326      8334      8337      8336      8334      8337
      8331      8337      8334      8331      8337      8339      8334      8337      8339
      8343      8341      8344      8343      8341      8345      8343      8341      8346
      8344      8341      8345      8344      8341      8346      8345      8341      8346
      8341      8346      8348      8341      8346      8354      8348      8346      8354
      8346      8348      8350      8346      8348      8351      8350      8348      8351
      8348      8351      8353      8348      8351      8357      8353      8351      8357
      8346      8354      8356      8346      8354      8357      8356      8354      8357
      8351      8357      8354      8351      8357      8359      8354      8357      8359
      8363      8361      8364      8363      8361      8365      8363      8361      8366
      8364      8361      8365      8364      8361      8366      8365      8361      8366
      8361      8366      8368      8361      8366      8374      8368      8366      8374
      8366      8368      8370      8366      8368      8371      8370      8368      8371
      8368      8371      8373      8368      8371      8377      8373      8371      8377
      8366      8374      8376      8366      8374      8377      8376      8374      8377
      8371      8377      8374      8371      8377      8379      8374      8377      8379
      8383      8381      8384      8383      8381      8385      8383      8381      8386
      8384      8381      8385      8384      8381      8386      8385      8381      8386
      8381      8386      8388      8381      8386      8394      8388      8386      8394
      8386      8388      8390      8386      8388      8391      8390      8388      8391
      8388      8391      8393      8388      8391      8397      8393      8391      8397
      8386      8394      8396      8386      8394      8397      8396      8394      8397
      8391      8397      8394      8391      8397      8399      8394      8397      8399
      8403      8401      8404      8403      8401      8405      8403      8401      8406
      8404      8401      8405      8404      8401      8406      8405      8401      8406
      8401      8406      8408      8401      8406      8414      8408      8406      8414
      8406      8408      8410      8406      8408      8411      8410      8408      8411
      8408      8411      8413      8408      8411      8417      8413      8411      8417
      8406      8414      8416      8406      8414      8417      8416      8414      8417
      8411      8417      8414      8411      8417      8419      8414      8417      8419
      8423      8421      8424      8423      8421      8425      8423      8421      8426
      8424      8421      8425      8424      8421      8426      8425      8421      8426
      8421      8426      8428      8421      8426      8434      8428      8426      8434
      8426      8428      8430      8426      8428      8431      8430      8428      8431
      8428      8431      8433      8428      8431      8437      8433      8431      8437
      8426      8434      8436      8426      8434      8437      8436      8434      8437
      8431      8437      8434      8431      8437      8439      8434      8437      8439
      8443      8441      8444      8443      8441      8445      8443      8441      8446
      8444      8441      8445      8444      8441      8446      8445      8441      8446
      8441      8446      8448      8441      8446      8454      8448      8446      8454
      8446      8448      8450      8446      8448      8451      8450      8448      8451
      8448      8451      8453      8448      8451      8457      8453      8451      8457
      8446      8454      8456      8446      8454      8457      8456      8454      8457
      8451      8457      8454      8451      8457      8459      8454      8457      8459
      8463      8461      8464      8463      8461      8465      8463      8461      8466
      8464      8461      8465      8464      8461      8466      8465      8461      8466
      8461      8466      8468      8461      8466      8474      8468      8466      8474
      8466      8468      8470      8466      8468      8471      8470      8468      8471
      8468      8471      8473      8468      8471      8477      8473      8471      8477
      8466      8474      8476      8466      8474      8477      8476      8474      8477
      8471      8477      8474      8471      8477      8479      8474      8477      8479
      8483      8481      8484      8483      8481      8485      8483      8481      8486
      8484      8481      8485      8484      8481      8486      8485      8481      8486
      8481      8486      8488      8481      8486      8494      8488      8486      8494
      8486      8488      8490      8486      8488      8491      8490      8488      8491
      8488      8491      8493      8488      8491      8497      8493      8491      8497
      8486      8494      8496      8486      8494      8497      8496      8494      8497
      8491      8497      8494      8491      8497      8499      8494      8497      8499
      8503      8501      8504      8503      8501      8505      8503      8501      8506
      8504      8501      8505      8504      8501      8506      8505      8501      8506
      8501      8506      8508      8501      8506      8514      8508      8506      8514
      8506      8508      8510      8506      8508      8511      8510      8508      8511
      8508      8511      8513      8508      8511      8517      8513      8511      8517
      8506      8514      8516      8506      8514      8517      8516      8514      8517
      8511      8517      8514      8511      8517      8519      8514      8517      8519
      8523      8521      8524      8523      8521      8525      8523      8521      8526
      8524      8521      8525      8524      8521      8526      8525      8521      8526
      8521      8526      8528      8521      8526      8534      8528      8526      8534
      8526      8528      8530      8526      8528      8531      8530      8528      8531
      8528      8531      8533      8528      8531      8537      8533      8531      8537
      8526      8534      8536      8526      8534      8537      8536      8534      8537
      8531      8537      8534      8531      8537      8539      8534      8537      8539
      8543      8541      8544      8543      8541      8545      8543      8541      8546
      8544      8541      8545      8544      8541      8546      8545      8541      8546
      8541      8546      8548      8541      8546      8554      8548      8546      8554
      8546      8548      8550      8546      8548      8551      8550      8548      8551
      8548      8551      8553      8548      8551      8557      8553      8551      8557
      8546      8554      8556      8546      8554      8557      8556      8554      8557
      8551      8557      8554      8551      8557      8559      8554      8557      8559
      8563      8561      8564      8563      8561      8565      8563      8561      8566
      8564      8561      8565      8564      8561      8566      8565      8561      8566
      8561      8566      8568      8561      8566      8574      8568      8566      8574
      8566      8568      8570      8566      8568      8571      8570      8568      8571
      8568      8571      8573      8568      8571      8577      8573      8571      8577
      8566      8574      8576      8566      8574      8577      8576      8574      8577
      8571      8577      8574      8571      8577      8579      8574      8577      8579
      8583      8581      8584      8583      8581      8585      8583      8581      8586
      8584      8581      8585      8584      8581      8586      8585      8581      8586
      8581      8586      8588      8581      8586      8594      8588      8586      8594
      8586      8588      8590      8586      8588      8591      8590      8588      8591
      8588      8591      8593      8588      8591      8597      8593      8591      8597
      8586      8594      8596      8586      8594      8597      8596      8594      8597
      8591      8597      8594      8591      8597      8599      8594      8597      8599
      8603      8601      8604      8603      8601      8605      8603      8601      8606
      8604      8601      8605      8604      8601      8606      8605      8601      8606
      8601      8606      8608      8601      8606      8614      8608      8606      8614
      8606      8608      8610      8606      8608      8611      8610      8608      8611
      8608      8611      8613      8608      8611      8617      8613      8611      8617
      8606      8614      8616      8606      8614      8617      8616      8614      8617
      8611      8617      8614      8611      8617      8619      8614      8617      8619
      8623      8621      8624      8623      8621      8625      8623      8621      8626
      8624      8621      8625      8624      8621      8626      8625      8621      8626
      8621      8626      8628      8621      8626      8634      8628      8626      8634
      8626      8628      8630      8626      8628      8631      8630      8628      8631
      8628      8631      8633      8628      8631      8637      8633      8631      8637
      8626      8634      8636      8626      8634      8637      8636      8634      8637
      8631      8637      8634      8631      8637      8639      8634      8637      8639
      8643      8641      8644      8643      8641      8645      8643      8641      8646
      8644      8641      8645      8644      8641      8646      8645      8641      8646
      8641      8646      8648      8641      8646      8654      8648      8646      8654
      8646      8648      8650      8646      8648      8651      8650      8648      8651
      8648      8651      8653      8648      8651      8657      8653      8651      8657
      8646      8654      8656      8646      8654      8657      8656      8654      8657
      8651      8657      8654      8651      8657      8659      8654      8657      8659
      8663      8661      8664      8663      8661      8665      8663      8661      8666
      8664      8661      8665      8664      8661      8666      8665      8661      8666
      8661      8666      8668      8661      8666      8674      8668      8666      8674
      8666      8668      8670      8666      8668      8671      8670      8668      8671
      8668      8671      8673      8668      8671      8677      8673      8671      8677
      8666      8674      8676      8666      8674      8677      8676      8674      8677
      8671      8677      8674      8671      8677      8679      8674      8677      8679
      8683      8681      8684      8683      8681      8685      8683      8681      8686
      8684      8681      8685      8684      8681      8686      8685      8681      8686
      8681      8686      8688      8681      8686      8694      8688      8686      8694
      8686      8688      8690      8686      8688      8691      8690      8688      8691
      8688      8691      8693      8688      8691      8697      8693      8691      8697
      8686      8694      8696      8686      8694      8697      8696      8694      8697
      8691      8697      8694      8691      8697      8699      8694      8697      8699
      8703      8701      8704      8703      8701      8705      8703      8701      8706
      8704      8701      8705      8704      8701      8706      8705      8701      8706
      8701      8706      8708      8701      8706      8714      8708      8706      8714
      8706      8708      8710      8706      8708      8711      8710      8708      8711
      8708      8711      8713      8708      8711      8717      8713      8711      8717
      8706      8714      8716      8706      8714      8717      8716      8714      8717
      8711      8717      8714      8711      8717      8719      8714      8717      8719
      8723      8721      8724      8723      8721      8725      8723      8721      8726
      8724      8721      8725      8724      8721      8726      8725      8721      8726
      8721      8726      8728      8721      8726      8734      8728      8726      8734
      8726      8728      8730      8726      8728      8731      8730      8728      8731
      8728      8731      8733      8728      8731      8737      8733      8731      8737
      8726      8734      8736      8726      8734      8737      8736      8734      8737
      8731      8737      8734      8731      8737      8739      8734      8737      8739
      8743      8741      8744      8743      8741      8745      8743      8741      8746
      8744      8741      8745      8744      8741      8746      8745      8741      8746
      8741      8746      8748      8741      8746      8754      8748      8746      8754
      8746      8748      8750      8746      8748      8751      8750      8748      8751
      8748      8751      8753      8748      8751      8757      8753      8751      8757
      8746      8754      8756      8746      8754      8757      8756      8754      8757
      8751      8757      8754      8751      8757      8759      8754      8757      8759
      8763      8761      8764      8763      8761      8765      8763      8761      8766
      8764      8761      8765      8764      8761      8766      8765      8761      8766
      8761      8766      8768      8761      8766      8774      8768      8766      8774
      8766      8768      8770      8766      8768      8771      8770      8768      8771
      8768      8771      8773      8768      8771      8777      8773      8771      8777
      8766      8774      8776      8766      8774      8777      8776      8774      8777
      8771      8777      8774      8771      8777      8779      8774      8777      8779
      8783      8781      8784      8783      8781      8785      8783      8781      8786
      8784      8781      8785      8784      8781      8786      8785      8781      8786
      8781      8786      8788      8781      8786      8794      8788      8786      8794
      8786      8788      8790      8786      8788      8791      8790      8788      8791
      8788      8791      8793      8788      8791      8797      8793      8791      8797
      8786      8794      8796      8786      8794      8797      8796      8794      8797
      8791      8797      8794      8791      8797      8799      8794      8797      8799
      8803      8801      8804      8803      8801      8805      8803      8801      8806
      8804      8801      8805      8804      8801      8806      8805      8801      8806
      8801      8806      8808      8801      8806      8814      8808      8806      8814
      8806      8808      8810      8806      8808      8811      8810      8808      8811
      8808      8811      8813      8808      8811      8817      8813      8811      8817
      8806      8814      8816      8806      8814      8817      8816      8814      8817
      8811      8817      8814      8811      8817      8819      8814      8817      8819
      8823      8821      8824      8823      8821      8825      8823      8821      8826
      8824      8821      8825      8824      8821      8826      8825      8821      8826
      8821      8826      8828      8821      8826      8834      8828      8826      8834
      8826      8828      8830      8826      8828      8831      8830      8828      8831
      8828      8831      8833      8828      8831      8837      8833      8831      8837
      8826      8834      8836      8826      8834      8837      8836      8834      8837
      8831      8837      8834      8831      8837      8839      8834      8837      8839
      8843      8841      8844      8843      8841      8845      8843      8841      8846
      8844      8841      8845      8844      8841      8846      8845      8841      8846
      8841      8846      8848      8841      8846      8854      8848      8846      8854
      8846      8848      8850      8846      8848      8851      8850      8848      8851
      8848      8851      8853      8848      8851      8857      8853      8851      8857
      8846      8854      8856      8846      8854      8857      8856      8854      8857
      8851      8857      8854      8851      8857      8859      8854      8857      8859
      8863      8861      8864      8863      8861      8865      8863      8861      8866
      8864      8861      8865      8864      8861      8866      8865      8861      8866
      8861      8866      8868      8861      8866      8874      8868      8866      8874
      8866      8868      8870      8866      8868      8871      8870      8868      8871
      8868      8871      8873      8868      8871      8877      8873      8871      8877
      8866      8874      8876      8866      8874      8877      8876      8874      8877
      8871      8877      8874      8871      8877      8879      8874      8877      8879
      8883      8881      8884      8883      8881      8885      8883      8881      8886
      8884      8881      8885      8884      8881      8886      8885      8881      8886
      8881      8886      8888      8881      8886      8894      8888      8886      8894
      8886      8888      8890      8886      8888      8891      8890      8888      8891
      8888      8891      8893      8888      8891      8897      8893      8891      8897
      8886      8894      8896      8886      8894      8897      8896      8894      8897
      8891      8897      8894      8891      8897      8899      8894      8897      8899
      8903      8901      8904      8903      8901      8905      8903      8901      8906
      8904      8901      8905      8904      8901      8906      8905      8901      8906
      8901      8906      8908      8901      8906      8914      8908      8906      8914
      8906      8908      8910      8906      8908      8911      8910      8908      8911
      8908      8911      8913      8908      8911      8917      8913      8911      8917
      8906      8914      8916      8906      8914      8917      8916      8914      8917
      8911      8917      8914      8911      8917      8919      8914      8917      8919
      8923      8921      8924      8923      8921      8925      8923      8921      8926
      8924      8921      8925      8924      8921      8926      8925      8921      8926
      8921      8926      8928      8921      8926      8934      8928      8926      8934
      8926      8928      8930      8926      8928      8931      8930      8928      8931
      8928      8931      8933      8928      8931      8937      8933      8931      8937
      8926      8934      8936      8926      8934      8937      8936      8934      8937
      8931      8937      8934      8931      8937      8939      8934      8937      8939
      8943      8941      8944      8943      8941      8945      8943      8941      8946
      8944      8941      8945      8944      8941      8946      8945      8941      8946
      8941      8946      8948      8941      8946      8954      8948      8946      8954
      8946      8948      8950      8946      8948      8951      8950      8948      8951
      8948      8951      8953      8948      8951      8957      8953      8951      8957
      8946      8954      8956      8946      8954      8957      8956      8954      8957
      8951      8957      8954      8951      8957      8959      8954      8957      8959
      8963      8961      8964      8963      8961      8965      8963      8961      8966
      8964      8961      8965      8964      8961      8966      8965      8961      8966
      8961      8966      8968      8961      8966      8974      8968      8966      8974
      8966      8968      8970      8966      8968      8971      8970      8968      8971
      8968      8971      8973      8968      8971      8977      8973      8971      8977
      8966      8974      8976      8966      8974      8977      8976      8974      8977
      8971      8977      8974      8971      8977      8979      8974      8977      8979
      8983      8981      8984      8983      8981      8985      8983      8981      8986
      8984      8981      8985      8984      8981      8986      8985      8981      8986
      8981      8986      8988      8981      8986      8994      8988      8986      8994
      8986      8988      8990      8986      8988      8991      8990      8988      8991
      8988      8991      8993      8988      8991      8997      8993      8991      8997
      8986      8994      8996      8986      8994      8997      8996      8994      8997
      8991      8997      8994      8991      8997      8999      8994      8997      8999
      9003      9001      9004      9003      9001      9005      9003      9001      9006
      9004      9001      9005      9004      9001      9006      9005      9001      9006
      9001      9006      9008      9001      9006      9014      9008      9006      9014
      9006      9008      9010      9006      9008      9011      9010      9008      9011
      9008      9011      9013      9008      9011      9017      9013      9011      9017
      9006      9014      9016      9006      9014      9017      9016      9014      9017
      9011      9017      9014      9011      9017      9019      9014      9017      9019
      9023      9021      9024      9023      9021      9025      9023      9021      9026
      9024      9021      9025      9024      9021      9026      9025      9021      9026
      9021      9026      9028      9021      9026      9034      9028      9026      9034
      9026      9028      9030      9026      9028      9031      9030      9028      9031
      9028      9031      9033      9028      9031      9037      9033      9031      9037
      9026      9034      9036      9026      9034      9037      9036      9034      9037
      9031      9037      9034      9031      9037      9039      9034      9037      9039
      9043      9041      9044      9043      9041      9045      9043      9041      9046
      9044      9041      9045      9044      9041      9046      9045      9041      9046
      9041      9046      9048      9041      9046      9054      9048      9046      9054
      9046      9048      9050      9046      9048      9051      9050      9048      9051
      9048      9051      9053      9048      9051      9057      9053      9051      9057
      9046      9054      9056      9046      9054      9057      9056      9054      9057
      9051      9057      9054      9051      9057      9059      9054      9057      9059
      9063      9061      9064      9063      9061      9065      9063      9061      9066
      9064      9061      9065      9064      9061      9066      9065      9061      9066
      9061      9066      9068      9061      9066      9074      9068      9066      9074
      9066      9068      9070      9066      9068      9071      9070      9068      9071
      9068      9071      9073      9068      9071      9077      9073      9071      9077
      9066      9074      9076      9066      9074      9077      9076      9074      9077
      9071      9077      9074      9071      9077      9079      9074      9077      9079
      9083      9081      9084      9083      9081      9085      9083      9081      9086
      9084      9081      9085      9084      9081      9086      9085      9081      9086
      9081      9086      9088      9081      9086      9094      9088      9086      9094
      9086      9088      9090      9086      9088      9091      9090      9088      9091
      9088      9091      9093      9088      9091      9097      9093      9091      9097
      9086      9094      9096      9086      9094      9097      9096      9094      9097
      9091      9097      9094      9091      9097      9099      9094      9097      9099
      9103      9101      9104      9103      9101      9105      9103      9101      9106
      9104      9101      9105      9104      9101      9106      9105      9101      9106
      9101      9106      9108      9101      9106      9114      9108      9106      9114
      9106      9108      9110      9106      9108      9111      9110      9108      9111
      9108      9111      9113      9108      9111      9117      9113      9111      9117
      9106      9114      9116      9106      9114      9117      9116      9114      9117
      9111      9117      9114      9111      9117      9119      9114      9117      9119
      9123      9121      9124      9123      9121      9125      9123      9121      9126
      9124      9121      9125      9124      9121      9126      9125      9121      9126
      9121      9126      9128      9121      9126      9134      9128      9126      9134
      9126      9128      9130      9126      9128      9131      9130      9128      9131
      9128      9131      9133      9128      9131      9137      9133      9131      9137
      9126      9134      9136      9126      9134      9137      9136      9134      9137
      9131      9137      9134      9131      9137      9139      9134      9137      9139
      9143      9141      9144      9143      9141      9145      9143      9141      9146
      9144      9141      9145      9144      9141      9146      9145      9141      9146
      9141      9146      9148      9141      9146      9154      9148      9146      9154
      9146      9148      9150      9146      9148      9151      9150      9148      9151
      9148      9151      9153      9148      9151      9157      9153      9151      9157
      9146      9154      9156      9146      9154      9157      9156      9154      9157
      9151      9157      9154      9151      9157      9159      9154      9157      9159
      9163      9161      9164      9163      9161      9165      9163      9161      9166
      9164      9161      9165      9164      9161      9166      9165      9161      9166
      9161      9166      9168      9161      9166      9174      9168      9166      9174
      9166      9168      9170      9166      9168      9171      9170      9168      9171
      9168      9171      9173      9168      9171      9177      9173      9171      9177
      9166      9174      9176      9166      9174      9177      9176      9174      9177
      9171      9177      9174      9171      9177      9179      9174      9177      9179
      9183      9181      9184      9183      9181      9185      9183      9181      9186
      9184      9181      9185      9184      9181      9186      9185      9181      9186
      9181      9186      9188      9181      9186      9194      9188      9186      9194
      9186      9188      9190      9186      9188      9191      9190      9188      9191
      9188      9191      9193      9188      9191      9197      9193      9191      9197
      9186      9194      9196      9186      9194      9197      9196      9194      9197
      9191      9197      9194      9191      9197      9199      9194      9197      9199
      9203      9201      9204      9203      9201      9205      9203      9201      9206
      9204      9201      9205      9204      9201      9206      9205      9201      9206
      9201      9206      9208      9201      9206      9214      9208      9206      9214
      9206      9208      9210      9206      9208      9211      9210      9208      9211
      9208      9211      9213      9208      9211      9217      9213      9211      9217
      9206      9214      9216      9206      9214      9217      9216      9214      9217
      9211      9217      9214      9211      9217      9219      9214      9217      9219
      9223      9221      9224      9223      9221      9225      9223      9221      9226
      9224      9221      9225      9224      9221      9226      9225      9221      9226
      9221      9226      9228      9221      9226      9234      9228      9226      9234
      9226      9228      9230      9226      9228      9231      9230      9228      9231
      9228      9231      9233      9228      9231      9237      9233      9231      9237
      9226      9234      9236      9226      9234      9237      9236      9234      9237
      9231      9237      9234      9231      9237      9239      9234      9237      9239
      9243      9241      9244      9243      9241      9245      9243      9241      9246
      9244      9241      9245      9244      9241      9246      9245      9241      9246
      9241      9246      9248      9241      9246      9254      9248      9246      9254
      9246      9248      9250      9246      9248      9251      9250      9248      9251
      9248      9251      9253      9248      9251      9257      9253      9251      9257
      9246      9254      9256      9246      9254      9257      9256      9254      9257
      9251      9257      9254      9251      9257      9259      9254      9257      9259
      9263      9261      9264      9263      9261      9265      9263      9261      9266
      9264      9261      9265      9264      9261      9266      9265      9261      9266
      9261      9266      9268      9261      9266      9274      9268      9266      9274
      9266      9268      9270      9266      9268      9271      9270      9268      9271
      9268      9271      9273      9268      9271      9277      9273      9271      9277
      9266      9274      9276      9266      9274      9277      9276      9274      9277
      9271      9277      9274      9271      9277      9279      9274      9277      9279
      9283      9281      9284      9283      9281      9285      9283      9281      9286
      9284      9281      9285      9284      9281      9286      9285      9281      9286
      9281      9286      9288      9281      9286      9294      9288      9286      9294
      9286      9288      9290      9286      9288      9291      9290      9288      9291
      9288      9291      9293      9288      9291      9297      9293      9291      9297
      9286      9294      9296      9286      9294      9297      9296      9294      9297
      9291      9297      9294      9291      9297      9299      9294      9297      9299
      9303      9301      9304      9303      9301      9305      9303      9301      9306
      9304      9301      9305      9304      9301      9306      9305      9301      9306
      9301      9306      9308      9301      9306      9314      9308      9306      9314
      9306      9308      9310      9306      9308      9311      9310      9308      9311
      9308      9311      9313      9308      9311      9317      9313      9311      9317
      9306      9314      9316      9306      9314      9317      9316      9314      9317
      9311      9317      9314      9311      9317      9319      9314      9317      9319
      9323      9321      9324      9323      9321      9325      9323      9321      9326
      9324      9321      9325      9324      9321      9326      9325      9321      9326
      9321      9326      9328      9321      9326      9334      9328      9326      9334
      9326      9328      9330      9326      9328      9331      9330      9328      9331
      9328      9331      9333      9328      9331      9337      9333      9331      9337
      9326      9334      9336      9326      9334      9337      9336      9334      9337
      9331      9337      9334      9331      9337      9339      9334      9337      9339
      9343      9341      9344      9343      9341      9345      9343      9341      9346
      9344      9341      9345      9344      9341      9346      9345      9341      9346
      9341      9346      9348      9341      9346      9354      9348      9346      9354
      9346      9348      9350      9346      9348      9351      9350      9348      9351
      9348      9351      9353      9348      9351      9357      9353      9351      9357
      9346      9354      9356      9346      9354      9357      9356      9354      9357
      9351      9357      9354      9351      9357      9359      9354      9357      9359
      9363      9361      9364      9363      9361      9365      9363      9361      9366
      9364      9361      9365      9364      9361      9366      9365      9361      9366
      9361      9366      9368      9361      9366      9374      9368      9366      9374
      9366      9368      9370      9366      9368      9371      9370      9368      9371
      9368      9371      9373      9368      9371      9377      9373      9371      9377
      9366      9374      9376      9366      9374      9377      9376      9374      9377
      9371      9377      9374      9371      9377      9379      9374      9377      9379
      9383      9381      9384      9383      9381      9385      9383      9381      9386
      9384      9381      9385      9384      9381      9386      9385      9381      9386
      9381      9386      9388      9381      9386      9394      9388      9386      9394
      9386      9388      9390      9386      9388      9391      9390      9388      9391
      9388      9391      9393      9388      9391      9397      9393      9391      9397
      9386      9394      9396      9386      9394      9397      9396      9394      9397
      9391      9397      9394      9391      9397      9399      9394      9397      9399
      9403      9401      9404      9403      9401      9405      9403      9401      9406
      9404      9401      9405      9404      9401      9406      9405      9401      9406
      9401      9406      9408      9401      9406      9414      9408      9406      9414
      9406      9408      9410      9406      9408      9411      9410      9408      9411
      9408      9411      9413      9408      9411      9417      9413      9411      9417
      9406      9414      9416      9406      9414      9417      9416      9414      9417
      9411      9417      9414      9411      9417      9419      9414      9417      9419
      9423      9421      9424      9423      9421      9425      9423      9421      9426
      9424      9421      9425      9424      9421      9426      9425      9421      9426
      9421      9426      9428      9421      9426      9434      9428      9426      9434
      9426      9428      9430      9426      9428      9431      9430      9428      9431
      9428      9431      9433      9428      9431      9437      9433      9431      9437
      9426      9434      9436      9426      9434      9437      9436      9434      9437
      9431      9437      9434      9431      9437      9439      9434      9437      9439
      9443      9441      9444      9443      9441      9445      9443      9441      9446
      9444      9441      9445      9444      9441      9446      9445      9441      9446
      9441      9446      9448      9441      9446      9454      9448      9446      9454
      9446      9448      9450      9446      9448      9451      9450      9448      9451
      9448      9451      9453      9448      9451      9457      9453      9451      9457
      9446      9454      9456      9446      9454      9457      9456      9454      9457
      9451      9457      9454      9451      9457      9459      9454      9457      9459
      9463      9461      9464      9463      9461      9465      9463      9461      9466
      9464      9461      9465      9464      9461      9466      9465      9461      9466
      9461      9466      9468      9461      9466      9474      9468      9466      9474
      9466      9468      9470      9466      9468      9471      9470      9468      9471
      9468      9471      9473      9468      9471      9477      9473      9471      9477
      9466      9474      9476      9466      9474      9477      9476      9474      9477
      9471      9477      9474      9471      9477      9479      9474      9477      9479
      9483      9481      9484      9483      9481      9485      9483      9481      9486
      9484      9481      9485      9484      9481      9486      9485      9481      9486
      9481      9486      9488      9481      9486      9494      9488      9486      9494
      9486      9488      9490      9486      9488      9491      9490      9488      9491
      9488      9491      9493      9488      9491      9497      9493      9491      9497
      9486      9494      9496      9486      9494      9497      9496      9494      9497
      9491      9497      9494      9491      9497      9499      9494      9497      9499
      9503      9501      9504      9503      9501      9505      9503      9501      9506
      9504      9501      9505      9504      9501      9506      9505      9501      9506
      9501      9506      9508      9501      9506      9514      9508      9506      9514
      9506      9508      9510      9506      9508      9511      9510      9508      9511
      9508      9511      9513      9508      9511      9517      9513      9511      9517
      9506      9514      9516      9506      9514      9517      9516      9514      9517
      9511      9517      9514      9511      9517      9519      9514      9517      9519
      9523      9521      9524      9523      9521      9525      9523      9521      9526
      9524      9521      9525      9524      9521      9526      9525      9521      9526
      9521      9526      9528      9521      9526      9534      9528      9526      9534
      9526      9528      9530      9526      9528      9531      9530      9528      9531
      9528      9531      9533      9528      9531      9537      9533      9531      9537
      9526      9534      9536      9526      9534      9537      9536      9534      9537
      9531      9537      9534      9531      9537      9539      9534      9537      9539
      9543      9541      9544      9543      9541      9545      9543      9541      9546
      9544      9541      9545      9544      9541      9546      9545      9541      9546
      9541      9546      9548      9541      9546      9554      9548      9546      9554
      9546      9548      9550      9546      9548      9551      9550      9548      9551
      9548      9551      9553      9548      9551      9557      9553      9551      9557
      9546      9554      9556      9546      9554      9557      9556      9554      9557
      9551      9557      9554      9551      9557      9559      9554      9557      9559
      9563      9561      9564      9563      9561      9565      9563      9561      9566
      9564      9561      9565      9564      9561      9566      9565      9561      9566
      9561      9566      9568      9561      9566      9574      9568      9566      9574
      9566      9568      9570      9566      9568      9571      9570      9568      9571
      9568      9571      9573      9568      9571      9577      9573      9571      9577
      9566      9574      9576      9566      9574      9577      9576      9574      9577
      9571      9577      9574      9571      9577      9579      9574      9577      9579
      9583      9581      9584      9583      9581      9585      9583      9581      9586
      9584      9581      9585      9584      9581      9586      9585      9581      9586
      9581      9586      9588      9581      9586      9594      9588      9586      9594
      9586      9588      9590      9586      9588      9591      9590      9588      9591
      9588      9591      9593      9588      9591      9597      9593      9591      9597
      9586      9594      9596      9586      9594      9597      9596      9594      9597
      9591      9597      9594      9591      9597      9599      9594      9597      9599
      9603      9601      9604      9603      9601      9605      9603      9601      9606
      9604      9601      9605      9604      9601      9606      9605      9601      9606
      9601      9606      9608      9601      9606      9614      9608      9606      9614
      9606      9608      9610      9606      9608      9611      9610      9608      9611
      9608      9611      9613      9608      9611      9617      9613      9611      9617
      9606      9614      9616      9606      9614      9617      9616      9614      9617
      9611      9617      9614      9611      9617      9619      9614      9617      9619
      9623      9621      9624      9623      9621      9625      9623      9621      9626
      9624      9621      9625      9624      9621      9626      9625      9621      9626
      9621      9626      9628      9621      9626      9634      9628      9626      9634
      9626      9628      9630      9626      9628      9631      9630      9628      9631
      9628      9631      9633      9628      9631      9637      9633      9631      9637
      9626      9634      9636      9626      9634      9637      9636      9634      9637
      9631      9637      9634      9631      9637      9639      9634      9637      9639
      9643      9641      9644      9643      9641      9645      9643      9641      9646
      9644      9641      9645      9644      9641      9646      9645      9641      9646
      9641      9646      9648      9641      9646      9654      9648      9646      9654
      9646      9648      9650      9646      9648      9651      9650      9648      9651
      9648      9651      9653      9648      9651      9657      9653      9651      9657
      9646      9654      9656      9646      9654      9657      9656      9654      9657
      9651      9657      9654      9651      9657      9659      9654      9657      9659
      9663      9661      9664      9663      9661      9665      9663      9661      9666
      9664      9661      9665      9664      9661      9666      9665      9661      9666
      9661      9666      9668      9661      9666      9674      9668      9666      9674
      9666      9668      9670      9666      9668      9671      9670      9668      9671
      9668      9671      9673      9668      9671      9677      9673      9671      9677
      9666      9674      9676      9666      9674      9677      9676      9674      9677
      9671      9677      9674      9671      9677      9679      9674      9677      9679
      9683      9681      9684      9683      9681      9685      9683      9681      9686
      9684      9681      9685      9684      9681      9686      9685      9681      9686
      9681      9686      9688      9681      9686      9694      9688      9686      9694
      9686      9688      9690      9686      9688      9691      9690      9688      9691
      9688      9691      9693      9688      9691      9697      9693      9691      9697
      9686      9694      9696      9686      9694      9697      9696      9694      9697
      9691      9697      9694      9691      9697      9699      9694      9697      9699
      9703      9701      9704      9703      9701      9705      9703      9701      9706
      9704      9701      9705      9704      9701      9706      9705      9701      9706
      9701      9706      9708      9701      9706      9714      9708      9706      9714
      9706      9708      9710      9706      9708      9711      9710      9708      9711
      9708      9711      9713      9708      9711      9717      9713      9711      9717
      9706      9714      9716      9706      9714      9717      9716      9714      9717
      9711      9717      9714      9711      9717      9719      9714      9717      9719
      9723      9721      9724      9723      9721      9725      9723      9721      9726
      9724      9721      9725      9724      9721      9726      9725      9721      9726
      9721      9726      9728      9721      9726      9734      9728      9726      9734
      9726      9728      9730      9726      9728      9731      9730      9728      9731
      9728      9731      9733      9728      9731      9737      9733      9731      9737
      9726      9734      9736      9726      9734      9737      9736      9734      9737
      9731      9737      9734      9731      9737      9739      9734      9737      9739
      9743      9741      9744      9743      9741      9745      9743      9741      9746
      9744      9741      9745      9744      9741      9746      9745      9741      9746
      9741      9746      9748      9741      9746      9754      9748      9746      9754
      9746      9748      9750      9746      9748      9751      9750      9748      9751
      9748      9751      9753      9748      9751      9757      9753      9751      9757
      9746      9754      9756      9746      9754      9757      9756      9754      9757
      9751      9757      9754      9751      9757      9759      9754      9757      9759
      9763      9761      9764      9763      9761      9765      9763      9761      9766
      9764      9761      9765      9764      9761      9766      9765      9761      9766
      9761      9766      9768      9761      9766      9774      9768      9766      9774
      9766      9768      9770      9766      9768      9771      9770      9768      9771
      9768      9771      9773      9768      9771      9777      9773      9771      9777
      9766      9774      9776      9766      9774      9777      9776      9774      9777
      9771      9777      9774      9771      9777      9779      9774      9777      9779
      9783      9781      9784      9783      9781      9785      9783      9781      9786
      9784      9781      9785      9784      9781      9786      9785      9781      9786
      9781      9786      9788      9781      9786      9794      9788      9786      9794
      9786      9788      9790      9786      9788      9791      9790      9788      9791
      9788      9791      9793      9788      9791      9797      9793      9791      9797
      9786      9794      9796      9786      9794      9797      9796      9794      9797
      9791      9797      9794      9791      9797      9799      9794      9797      9799
      9803      9801      9804      9803      9801      9805      9803      9801      9806
      9804      9801      9805      9804      9801      9806      9805      9801      9806
      9801      9806      9808      9801      9806      9814      9808      9806      9814
      9806      9808      9810      9806      9808      9811      9810      9808      9811
      9808      9811      9813      9808      9811      9817      9813      9811      9817
      9806      9814      9816      9806      9814      9817      9816      9814      9817
      9811      9817      9814      9811      9817      9819      9814      9817      9819
      9823      9821      9824      9823      9821      9825      9823      9821      9826
      9824      9821      9825      9824      9821      9826      9825      9821      9826
      9821      9826      9828      9821      9826      9834      9828      9826      9834
      9826      9828      9830      9826      9828      9831      9830      9828      9831
      9828      9831      9833      9828      9831      9837      9833      9831      9837
      9826      9834      9836      9826      9834      9837      9836      9834      9837
      9831      9837      9834      9831      9837      9839      9834      9837      9839
      9843      9841      9844      9843      9841      9845      9843      9841      9846
      9844      9841      9845      9844      9841      9846      9845      9841      9846
      9841      9846      9848      9841      9846      9854      9848      9846      9854
      9846      9848      9850      9846      9848      9851      9850      9848      9851
      9848      9851      9853      9848      9851      9857      9853      9851      9857
      9846      9854      9856      9846      9854      9857      9856      9854      9857
      9851      9857      9854      9851      9857      9859      9854      9857      9859
      9863      9861      9864      9863      9861      9865      9863      9861      9866
      9864      9861      9865      9864      9861      9866      9865      9861      9866
      9861      9866      9868      9861      9866      9874      9868      9866      9874
      9866      9868      9870      9866      9868      9871      9870      9868      9871
      9868      9871      9873      9868      9871      9877      9873      9871      9877
      9866      9874      9876      9866      9874      9877      9876      9874      9877
      9871      9877      9874      9871      9877      9879      9874      9877      9879
      9883      9881      9884      9883      9881      9885      9883      9881      9886
      9884      9881      9885      9884      9881      9886      9885      9881      9886
      9881      9886      9888      9881      9886      9894      9888      9886      9894
      9886      9888      9890      9886      9888      9891      9890      9888      9891
      9888      9891      9893      9888      9891      9897      9893      9891      9897
      9886      9894      9896      9886      9894      9897      9896      9894      9897
      9891      9897      9894      9891      9897      9899      9894      9897      9899
      9903      9901      9904      9903      9901      9905      9903      9901      9906
      9904      9901      9905      9904      9901      9906      9905      9901      9906
      9901      9906      9908      9901      9906      9914      9908      9906      9914
      9906      9908      9910      9906      9908      9911      9910      9908      9911
      9908      9911      9913      9908      9911      9917      9913      9911      9917
      9906      9914      9916      9906      9914      9917      9916      9914      9917
      9911      9917      9914      9911      9917      9919      9914      9917      9919
      9923      9921      9924      9923      9921      9925      9923      9921      9926
      9924      9921      9925      9924      9921      9926      9925      9921      9926
      9921      9926      9928      9921      9926      9934      9928      9926      9934
      9926      9928      9930      9926      9928      9931      9930      9928      9931
      9928      9931      9933      9928      9931      9937      9933      9931      9937
      9926      9934      9936      9926      9934      9937      9936      9934      9937
      9931      9937      9934      9931      9937      9939      9934      9937      9939
      9943      9941      9944      9943      9941      9945      9943      9941      9946
      9944      9941      9945      9944      9941      9946      9945      9941      9946
      9941      9946      9948      9941      9946      9954      9948      9946      9954
      9946      9948      9950      9946      9948      9951      9950      9948      9951
      9948      9951      9953      9948      9951      9957      9953      9951      9957
      9946      9954      9956      9946      9954      9957      9956      9954      9957
      9951      9957      9954      9951      9957      9959      9954      9957      9959
      9963      9961      9964      9963      9961      9965      9963      9961      9966
      9964      9961      9965      9964      9961      9966      9965      9961      9966
      9961      9966      9968      9961      9966      9974      9968      9966      9974
      9966      9968      9970      9966      9968      9971      9970      9968      9971
      9968      9971      9973      9968      9971      9977      9973      9971      9977
      9966      9974      9976      9966      9974      9977      9976      9974      9977
      9971      9977      9974      9971      9977      9979      9974      9977      9979
      9983      9981      9984      9983      9981      9985      9983      9981      9986
      9984      9981      9985      9984      9981      9986      9985      9981      9986
      9981      9986      9988      9981      9986      9994      9988      9986      9994
      9986      9988      9990      9986      9988      9991      9990      9988      9991
      9988      9991      9993      9988      9991      9997      9993      9991      9997
      9986      9994      9996      9986      9994      9997      9996      9994      9997
      9991      9997      9994      9991      9997      9999      9994      9997      9999
     10003     10001     10004     10003     10001     10006     10004     10001     10006
     10001     10006     10008     10015     10013     10016     10015     10013     10018
     10016     10013     10018     10013     10018     10020     10027     10025     10028
     10027     10025     10030     10028     10025     10030     10025     10030     10032
     10039     10037     10040     10039     10037     10042     10040     10037     10042
     10037     10042     10044     10051     10049     10052     10051     10049     10054
     10052     10049     10054     10049     10054     10056     10063     10061     10064
     10063     10061     10066     10064     10061     10066     10061     10066     10068
     10075     10073     10076     10075     10073     10078     10076     10073     10078
     10073     10078     10080     10087     10085     10088     10087     10085     10090
     10088     10085     10090     10085     10090     10092     10099     10097     10100
     10099     10097     10102     10100     10097     10102     10097     10102     10104
     10111     10109     10112     10111     10109     10114     10112     10109     10114
     10109     10114     10116     10123     10121     10124     10123     10121     10126
     10124     10121     10126     10121     10126     10128     10135     10133     10136
     10135     10133     10138     10136     10133     10138     10133     10138     10140
     10147     10145     10148     10147     10145     10150     10148     10145     10150
     10145     10150     10152     10159     10157     10160     10159     10157     10162
     10160     10157     10162     10157     10162     10164     10171     10169     10172
     10171     10169     10174     10172     10169     10174     10169     10174     10176
     10183     10181     10184     10183     10181     10186     10184     10181     10186
     10181     10186     10188     10195     10193     10196     10195     10193     10198
     10196     10193     10198     10193     10198     10200     10207     10205     10208
     10207     10205     10210     10208     10205     10210     10205     10210     10212
     10219     10217     10220     10219     10217     10222     10220     10217     10222
     10217     10222     10224     10231     10229     10232     10231     10229     10234
     10232     10229     10234     10229     10234     10236     10243     10241     10244
     10243     10241     10246     10244     10241     10246     10241     10246     10248
     10255     10253     10256     10255     10253     10258     10256     10253     10258
     10253     10258     10260     10267     10265     10268     10267     10265     10270
     10268     10265     10270     10265     10270     10272     10279     10277     10280
     10279     10277     10282     10280     10277     10282     10277     10282     10284
     10291     10289     10292     10291     10289     10294     10292     10289     10294
     10289     10294     10296     10303     10301     10304     10303     10301     10306
     10304     10301     10306     10301     10306     10308     10315     10313     10316
     10315     10313     10318     10316     10313     10318     10313     10318     10320
     10327     10325     10328     10327     10325     10330     10328     10325     10330
     10325     10330     10332     10339     10337     10340     10339     10337     10342
     10340     10337     10342     10337     10342     10344     10351     10349     10352
     10351     10349     10354     10352     10349     10354     10349     10354     10356
     10363     10361     10364     10363     10361     10366     10364     10361     10366
     10361     10366     10368     10375     10373     10376     10375     10373     10378
     10376     10373     10378     10373     10378     10380     10387     10385     10388
     10387     10385     10390     10388     10385     10390     10385     10390     10392
     10399     10397     10400     10399     10397     10402     10400     10397     10402
     10397     10402     10404     10411     10409     10412     10411     10409     10414
     10412     10409     10414     10409     10414     10416     10423     10421     10424
     10423     10421     10426     10424     10421     10426     10421     10426     10428
     10435     10433     10436     10435     10433     10438     10436     10433     10438
     10433     10438     10440     10447     10445     10448     10447     10445     10450
     10448     10445     10450     10445     10450     10452     10459     10457     10460
     10459     10457     10462     10460     10457     10462     10457     10462     10464
     10471     10469     10472     10471     10469     10474     10472     10469     10474
     10469     10474     10476     10483     10481     10484     10483     10481     10486
     10484     10481     10486     10481     10486     10488     10495     10493     10496
     10495     10493     10498     10496     10493     10498     10493     10498     10500
     10507     10505     10508     10507     10505     10510     10508     10505     10510
     10505     10510     10512     10519     10517     10520     10519     10517     10522
     10520     10517     10522     10517     10522     10524     10531     10529     10532
     10531     10529     10534     10532     10529     10534     10529     10534     10536
     10543     10541     10544     10543     10541     10546     10544     10541     10546
     10541     10546     10548     10555     10553     10556     10555     10553     10558
     10556     10553     10558     10553     10558     10560     10567     10565     10568
     10567     10565     10570     10568     10565     10570     10565     10570     10572
     10579     10577     10580     10579     10577     10582     10580     10577     10582
     10577     10582     10584     10591     10589     10592     10591     10589     10594
     10592     10589     10594     10589     10594     10596     10603     10601     10604
     10603     10601     10606     10604     10601     10606     10601     10606     10608
     10615     10613     10616     10615     10613     10618     10616     10613     10618
     10613     10618     10620     10627     10625     10628     10627     10625     10630
     10628     10625     10630     10625     10630     10632     10639     10637     10640
     10639     10637     10642     10640     10637     10642     10637     10642     10644
     10651     10649     10652     10651     10649     10654     10652     10649     10654
     10649     10654     10656     10663     10661     10664     10663     10661     10666
     10664     10661     10666     10661     10666     10668     10675     10673     10676
     10675     10673     10678     10676     10673     10678     10673     10678     10680
     10687     10685     10688     10687     10685     10690     10688     10685     10690
     10685     10690     10692     10699     10697     10700     10699     10697     10702
     10700     10697     10702     10697     10702     10704     10711     10709     10712
     10711     10709     10714     10712     10709     10714     10709     10714     10716
     10723     10721     10724     10723     10721     10726     10724     10721     10726
     10721     10726     10728     10735     10733     10736     10735     10733     10738
     10736     10733     10738     10733     10738     10740     10747     10745     10748
     10747     10745     10750     10748     10745     10750     10745     10750     10752
     10759     10757     10760     10759     10757     10762     10760     10757     10762
     10757     10762     10764     10771     10769     10772     10771     10769     10774
     10772     10769     10774     10769     10774     10776     10783     10781     10784
     10783     10781     10786     10784     10781     10786     10781     10786     10788
     10795     10793     10796     10795     10793     10798     10796     10793     10798
     10793     10798     10800     10807     10805     10808     10807     10805     10810
     10808     10805     10810     10805     10810     10812     10819     10817     10820
     10819     10817     10822     10820     10817     10822     10817     10822     10824
     10831     10829     10832     10831     10829     10834     10832     10829     10834
     10829     10834     10836     10843     10841     10844     10843     10841     10846
     10844     10841     10846     10841     10846     10848     10855     10853     10856
     10855     10853     10858     10856     10853     10858     10853     10858     10860
     10867     10865     10868     10867     10865     10870     10868     10865     10870
     10865     10870     10872     10879     10877     10880     10879     10877     10882
     10880     10877     10882     10877     10882     10884     10891     10889     10892
     10891     10889     10894     10892     10889     10894     10889     10894     10896
     10903     10901     10904     10903     10901     10906     10904     10901     10906
     10901     10906     10908     10915     10913     10916     10915     10913     10918
     10916     10913     10918     10913     10918     10920     10927     10925     10928
     10927     10925     10930     10928     10925     10930     10925     10930     10932
     10939     10937     10940     10939     10937     10942     10940     10937     10942
     10937     10942     10944     10951     10949     10952     10951     10949     10954
     10952     10949     10954     10949     10954     10956     10963     10961     10964
     10963     10961     10966     10964     10961     10966     10961     10966     10968
     10975     10973     10976     10975     10973     10978     10976     10973     10978
     10973     10978     10980     10987     10985     10988     10987     10985     10990
     10988     10985     10990     10985     10990     10992     10999     10997     11000
     10999     10997     11002     11000     10997     11002     10997     11002     11004
     11011     11009     11012     11011     11009     11014     11012     11009     11014
     11009     11014     11016     11023     11021     11024     11023     11021     11026
     11024     11021     11026     11021     11026     11028     11035     11033     11036
     11035     11033     11038     11036     11033     11038     11033     11038     11040
     11047     11045     11048     11047     11045     11050     11048     11045     11050
     11045     11050     11052     11059     11057     11060     11059     11057     11062
     11060     11057     11062     11057     11062     11064     11071     11069     11072
     11071     11069     11074     11072     11069     11074     11069     11074     11076
     11083     11081     11084     11083     11081     11086     11084     11081     11086
     11081     11086     11088     11095     11093     11096     11095     11093     11098
     11096     11093     11098     11093     11098     11100     11107     11105     11108
     11107     11105     11110     11108     11105     11110     11105     11110     11112
     11119     11117     11120     11119     11117     11122     11120     11117     11122
     11117     11122     11124     11131     11129     11132     11131     11129     11134
     11132     11129     11134     11129     11134     11136     11143     11141     11144
     11143     11141     11146     11144     11141     11146     11141     11146     11148
     11155     11153     11156     11155     11153     11158     11156     11153     11158
     11153     11158     11160     11167     11165     11168     11167     11165     11170
     11168     11165     11170     11165     11170     11172     11179     11177     11180
     11179     11177     11182     11180     11177     11182     11177     11182     11184
     11191     11189     11192     11191     11189     11194     11192     11189     11194
     11189     11194     11196     11203     11201     11204     11203     11201     11206
     11204     11201     11206     11201     11206     11208     11215     11213     11216
     11215     11213     11218     11216     11213     11218     11213     11218     11220
     11227     11225     11228     11227     11225     11230     11228     11225     11230
     11225     11230     11232     11239     11237     11240     11239     11237     11242
     11240     11237     11242     11237     11242     11244     11251     11249     11252
     11251     11249     11254     11252     11249     11254     11249     11254     11256
     11263     11261     11264     11263     11261     11266     11264     11261     11266
     11261     11266     11268     11275     11273     11276     11275     11273     11278
     11276     11273     11278     11273     11278     11280     11287     11285     11288
     11287     11285     11290     11288     11285     11290     11285     11290     11292
     11299     11297     11300     11299     11297     11302     11300     11297     11302
     11297     11302     11304     11311     11309     11312     11311     11309     11314
     11312     11309     11314     11309     11314     11316     11323     11321     11324
     11323     11321     11326     11324     11321     11326     11321     11326     11328
     11335     11333     11336     11335     11333     11338     11336     11333     11338
     11333     11338     11340     11347     11345     11348     11347     11345     11350
     11348     11345     11350     11345     11350     11352     11359     11357     11360
     11359     11357     11362     11360     11357     11362     11357     11362     11364
     11371     11369     11372     11371     11369     11374     11372     11369     11374
     11369     11374     11376     11383     11381     11384     11383     11381     11386
     11384     11381     11386     11381     11386     11388     11395     11393     11396
     11395     11393     11398     11396     11393     11398     11393     11398     11400
     11407     11405     11408     11407     11405     11410     11408     11405     11410
     11405     11410     11412     11419     11417     11420     11419     11417     11422
     11420     11417     11422     11417     11422     11424     11431     11429     11432
     11431     11429     11434     11432     11429     11434     11429     11434     11436
     11443     11441     11444     11443     11441     11446     11444     11441     11446
     11441     11446     11448     11455     11453     11456     11455     11453     11458
     11456     11453     11458     11453     11458     11460     11467     11465     11468
     11467     11465     11470     11468     11465     11470     11465     11470     11472
     11479     11477     11480     11479     11477     11482     11480     11477     11482
     11477     11482     11484     11491     11489     11492     11491     11489     11494
     11492     11489     11494     11489     11494     11496     11503     11501     11504
     11503     11501     11506     11504     11501     11506     11501     11506     11508
     11515     11513     11516     11515     11513     11518     11516     11513     11518
     11513     11518     11520     11527     11525     11528     11527     11525     11530
     11528     11525     11530     11525     11530     11532     11539     11537     11540
     11539     11537     11542     11540     11537     11542     11537     11542     11544
     11551     11549     11552     11551     11549     11554     11552     11549     11554
     11549     11554     11556     11563     11561     11564     11563     11561     11566
     11564     11561     11566     11561     11566     11568     11575     11573     11576
     11575     11573     11578     11576     11573     11578     11573     11578     11580
     11587     11585     11588     11587     11585     11590     11588     11585     11590
     11585     11590     11592     11599     11597     11600     11599     11597     11602
     11600     11597     11602     11597     11602     11604     11611     11609     11612
     11611     11609     11614     11612     11609     11614     11609     11614     11616
     11623     11621     11624     11623     11621     11626     11624     11621     11626
     11621     11626     11628     11635     11633     11636     11635     11633     11638
     11636     11633     11638     11633     11638     11640     11647     11645     11648
     11647     11645     11650     11648     11645     11650     11645     11650     11652
     11659     11657     11660     11659     11657     11662     11660     11657     11662
     11657     11662     11664     11671     11669     11672     11671     11669     11674
     11672     11669     11674     11669     11674     11676     11683     11681     11684
     11683     11681     11686     11684     11681     11686     11681     11686     11688
     11695     11693     11696     11695     11693     11698     11696     11693     11698
     11693     11698     11700     11707     11705     11708     11707     11705     11710
     11708     11705     11710     11705     11710     11712     11719     11717     11720
     11719     11717     11722     11720     11717     11722     11717     11722     11724
     11731     11729     11732     11731     11729     11734     11732     11729     11734
     11729     11734     11736     11743     11741     11744     11743     11741     11746
     11744     11741     11746     11741     11746     11748     11755     11753     11756
     11755     11753     11758     11756     11753     11758     11753     11758     11760
     11767     11765     11768     11767     11765     11770     11768     11765     11770
     11765     11770     11772     11779     11777     11780     11779     11777     11782
     11780     11777     11782     11777     11782     11784     11791     11789     11792
     11791     11789     11794     11792     11789     11794     11789     11794     11796
     11803     11801     11804     11803     11801     11806     11804     11801     11806
     11801     11806     11808     11815     11813     11816     11815     11813     11818
     11816     11813     11818     11813     11818     11820     11827     11825     11828
     11827     11825     11830     11828     11825     11830     11825     11830     11832
     11839     11837     11840     11839     11837     11842     11840     11837     11842
     11837     11842     11844     11851     11849     11852     11851     11849     11854
     11852     11849     11854     11849     11854     11856     11863     11861     11864
     11863     11861     11866     11864     11861     11866     11861     11866     11868
     11875     11873     11876     11875     11873     11878     11876     11873     11878
     11873     11878     11880     11887     11885     11888     11887     11885     11890
     11888     11885     11890     11885     11890     11892     11899     11897     11900
     11899     11897     11902     11900     11897     11902     11897     11902     11904
     11911     11909     11912     11911     11909     11914     11912     11909     11914
     11909     11914     11916     11923     11921     11924     11923     11921     11926
     11924     11921     11926     11921     11926     11928     11935     11933     11936
     11935     11933     11938     11936     11933     11938     11933     11938     11940
     11947     11945     11948     11947     11945     11950     11948     11945     11950
     11945     11950     11952     11959     11957     11960     11959     11957     11962
     11960     11957     11962     11957     11962     11964     11971     11969     11972
     11971     11969     11974     11972     11969     11974     11969     11974     11976
     11983     11981     11984     11983     11981     11986     11984     11981     11986
     11981     11986     11988     11995     11993     11996     11995     11993     11998
     11996     11993     11998     11993     11998     12000     12007     12005     12008
     12007     12005     12010     12008     12005     12010     12005     12010     12012
     12019     12017     12020     12019     12017     12022     12020     12017     12022
     12017     12022     12024     12031     12029     12032     12031     12029     12034
     12032     12029     12034     12029     12034     12036     12043     12041     12044
     12043     12041     12046     12044     12041     12046     12041     12046     12048
     12055     12053     12056     12055     12053     12058     12056     12053     12058
     12053     12058     12060     12067     12065     12068     12067     12065     12070
     12068     12065     12070     12065     12070     12072     12079     12077     12080
     12079     12077     12082     12080     12077     12082     12077     12082     12084
     12091     12089     12092     12091     12089     12094     12092     12089     12094
     12089     12094     12096     12103     12101     12104     12103     12101     12106
     12104     12101     12106     12101     12106     12108     12115     12113     12116
     12115     12113     12118     12116     12113     12118     12113     12118     12120
     12127     12125     12128     12127     12125     12130     12128     12125     12130
     12125     12130     12132     12139     12137     12140     12139     12137     12142
     12140     12137     12142     12137     12142     12144     12151     12149     12152
     12151     12149     12154     12152     12149     12154     12149     12154     12156
     12163     12161     12164     12163     12161     12166     12164     12161     12166
     12161     12166     12168     12175     12173     12176     12175     12173     12178
     12176     12173     12178     12173     12178     12180     12187     12185     12188
     12187     12185     12190     12188     12185     12190     12185     12190     12192
     12199     12197     12200     12199     12197     12202     12200     12197     12202
     12197     12202     12204     12211     12209     12212     12211     12209     12214
     12212     12209     12214     12209     12214     12216     12223     12221     12224
     12223     12221     12226     12224     12221     12226     12221     12226     12228
     12235     12233     12236     12235     12233     12238     12236     12233     12238
     12233     12238     12240     12247     12245     12248     12247     12245     12250
     12248     12245     12250     12245     12250     12252     12259     12257     12260
     12259     12257     12262     12260     12257     12262     12257     12262     12264
     12271     12269     12272     12271     12269     12274     12272     12269     12274
     12269     12274     12276     12283     12281     12284     12283     12281     12286
     12284     12281     12286     12281     12286     12288     12295     12293     12296
     12295     12293     12298     12296     12293     12298     12293     12298     12300
     12307     12305     12308     12307     12305     12310     12308     12305     12310
     12305     12310     12312     12319     12317     12320     12319     12317     12322
     12320     12317     12322     12317     12322     12324     12331     12329     12332
     12331     12329     12334     12332     12329     12334     12329     12334     12336
     12343     12341     12344     12343     12341     12346     12344     12341     12346
     12341     12346     12348     12355     12353     12356     12355     12353     12358
     12356     12353     12358     12353     12358     12360     12367     12365     12368
     12367     12365     12370     12368     12365     12370     12365     12370     12372
     12379     12377     12380     12379     12377     12382     12380     12377     12382
     12377     12382     12384     12391     12389     12392     12391     12389     12394
     12392     12389     12394     12389     12394     12396     12403     12401     12404
     12403     12401     12406     12404     12401     12406     12401     12406     12408
     12415     12413     12416     12415     12413     12418     12416     12413     12418
     12413     12418     12420     12427     12425     12428     12427     12425     12430
     12428     12425     12430     12425     12430     12432     12439     12437     12440
     12439     12437     12442     12440     12437     12442     12437     12442     12444
     12451     12449     12452     12451     12449     12454     12452     12449     12454
     12449     12454     12456     12463     12461     12464     12463     12461     12466
     12464     12461     12466     12461     12466     12468     12475     12473     12476
     12475     12473     12478     12476     12473     12478     12473     12478     12480
     12487     12485     12488     12487     12485     12490     12488     12485     12490
     12485     12490     12492     12499     12497     12500     12499     12497     12502
     12500     12497     12502     12497     12502     12504     12511     12509     12512
     12511     12509     12514     12512     12509     12514     12509     12514     12516
     12523     12521     12524     12523     12521     12526     12524     12521     12526
     12521     12526     12528     12535     12533     12536     12535     12533     12538
     12536     12533     12538     12533     12538     12540     12547     12545     12548
     12547     12545     12550     12548     12545     12550     12545     12550     12552
     12559     12557     12560     12559     12557     12562     12560     12557     12562
     12557     12562     12564     12571     12569     12572     12571     12569     12574
     12572     12569     12574     12569     12574     12576     12583     12581     12584
     12583     12581     12586     12584     12581     12586     12581     12586     12588
     12595     12593     12596     12595     12593     12598     12596     12593     12598
     12593     12598     12600     12607     12605     12608     12607     12605     12610
     12608     12605     12610     12605     12610     12612     12619     12617     12620
     12619     12617     12622     12620     12617     12622     12617     12622     12624
     12631     12629     12632     12631     12629     12634     12632     12629     12634
     12629     12634     12636     12643     12641     12644     12643     12641     12646
     12644     12641     12646     12641     12646     12648     12655     12653     12656
     12655     12653     12658     12656     12653     12658     12653     12658     12660
     12667     12665     12668     12667     12665     12670     12668     12665     12670
     12665     12670     12672     12679     12677     12680     12679     12677     12682
     12680     12677     12682     12677     12682     12684     12691     12689     12692
     12691     12689     12694     12692     12689     12694     12689     12694     12696
     12703     12701     12704     12703     12701     12706     12704     12701     12706
     12701     12706     12708     12715     12713     12716     12715     12713     12718
     12716     12713     12718     12713     12718     12720     12727     12725     12728
     12727     12725     12730     12728     12725     12730     12725     12730     12732
     12739     12737     12740     12739     12737     12742     12740     12737     12742
     12737     12742     12744     12751     12749     12752     12751     12749     12754
     12752     12749     12754     12749     12754     12756     12763     12761     12764
     12763     12761     12766     12764     12761     12766     12761     12766     12768
     12775     12773     12776     12775     12773     12778     12776     12773     12778
     12773     12778     12780     12787     12785     12788     12787     12785     12790
     12788     12785     12790     12785     12790     12792     12799     12797     12800
     12799     12797     12802     12800     12797     12802     12797     12802     12804
     12811     12809     12812     12811     12809     12814     12812     12809     12814
     12809     12814     12816     12823     12821     12824     12823     12821     12826
     12824     12821     12826     12821     12826     12828     12835     12833     12836
     12835     12833     12838     12836     12833     12838     12833     12838     12840
     12847     12845     12848     12847     12845     12850     12848     12845     12850
     12845     12850     12852     12859     12857     12860     12859     12857     12862
     12860     12857     12862     12857     12862     12864     12871     12869     12872
     12871     12869     12874     12872     12869     12874     12869     12874     12876
     12883     12881     12884     12883     12881     12886     12884     12881     12886
     12881     12886     12888     12895     12893     12896     12895     12893     12898
     12896     12893     12898     12893     12898     12900     12907     12905     12908
     12907     12905     12910     12908     12905     12910     12905     12910     12912
     12919     12917     12920     12919     12917     12922     12920     12917     12922
     12917     12922     12924     12931     12929     12932     12931     12929     12934
     12932     12929     12934     12929     12934     12936     12943     12941     12944
     12943     12941     12946     12944     12941     12946     12941     12946     12948
     12955     12953     12956     12955     12953     12958     12956     12953     12958
     12953     12958     12960     12967     12965     12968     12967     12965     12970
     12968     12965     12970     12965     12970     12972     12979     12977     12980
     12979     12977     12982     12980     12977     12982     12977     12982     12984
     12991     12989     12992     12991     12989     12994     12992     12989     12994
     12989     12994     12996     13003     13001     13004     13003     13001     13006
     13004     13001     13006     13001     13006     13008     13015     13013     13016
     13015     13013     13018     13016     13013     13018     13013     13018     13020
     13027     13025     13028     13027     13025     13030     13028     13025     13030
     13025     13030     13032     13039     13037     13040     13039     13037     13042
     13040     13037     13042     13037     13042     13044     13051     13049     13052
     13051     13049     13054     13052     13049     13054     13049     13054     13056
     13063     13061     13064     13063     13061     13066     13064     13061     13066
     13061     13066     13068     13075     13073     13076     13075     13073     13078
     13076     13073     13078     13073     13078     13080     13087     13085     13088
     13087     13085     13090     13088     13085     13090     13085     13090     13092
     13099     13097     13100     13099     13097     13102     13100     13097     13102
     13097     13102     13104     13111     13109     13112     13111     13109     13114
     13112     13109     13114     13109     13114     13116     13123     13121     13124
     13123     13121     13126     13124     13121     13126     13121     13126     13128
     13135     13133     13136     13135     13133     13138     13136     13133     13138
     13133     13138     13140     13147     13145     13148     13147     13145     13150
     13148     13145     13150     13145     13150     13152     13159     13157     13160
     13159     13157     13162     13160     13157     13162     13157     13162     13164
     13171     13169     13172     13171     13169     13174     13172     13169     13174
     13169     13174     13176     13183     13181     13184     13183     13181     13186
     13184     13181     13186     13181     13186     13188     13195     13193     13196
     13195     13193     13198     13196     13193     13198     13193     13198     13200
     13207     13205     13208     13207     13205     13210     13208     13205     13210
     13205     13210     13212     13219     13217     13220     13219     13217     13222
     13220     13217     13222     13217     13222     13224     13231     13229     13232
     13231     13229     13234     13232     13229     13234     13229     13234     13236
     13243     13241     13244     13243     13241     13246     13244     13241     13246
     13241     13246     13248     13255     13253     13256     13255     13253     13258
     13256     13253     13258     13253     13258     13260     13267     13265     13268
     13267     13265     13270     13268     13265     13270     13265     13270     13272
     13279     13277     13280     13279     13277     13282     13280     13277     13282
     13277     13282     13284     13291     13289     13292     13291     13289     13294
     13292     13289     13294     13289     13294     13296     13303     13301     13304
     13303     13301     13306     13304     13301     13306     13301     13306     13308
     13315     13313     13316     13315     13313     13318     13316     13313     13318
     13313     13318     13320     13327     13325     13328     13327     13325     13330
     13328     13325     13330     13325     13330     13332     13339     13337     13340
     13339     13337     13342     13340     13337     13342     13337     13342     13344
     13351     13349     13352     13351     13349     13354     13352     13349     13354
     13349     13354     13356     13363     13361     13364     13363     13361     13366
     13364     13361     13366     13361     13366     13368     13375     13373     13376
     13375     13373     13378     13376     13373     13378     13373     13378     13380
     13387     13385     13388     13387     13385     13390     13388     13385     13390
     13385     13390     13392     13399     13397     13400     13399     13397     13402
     13400     13397     13402     13397     13402     13404     13411     13409     13412
     13411     13409     13414     13412     13409     13414     13409     13414     13416
     13423     13421     13424     13423     13421     13426     13424     13421     13426
     13421     13426     13428     13435     13433     13436     13435     13433     13438
     13436     13433     13438     13433     13438     13440     13447     13445     13448
     13447     13445     13450     13448     13445     13450     13445     13450     13452
     13459     13457     13460     13459     13457     13462     13460     13457     13462
     13457     13462     13464     13471     13469     13472     13471     13469     13474
     13472     13469     13474     13469     13474     13476     13483     13481     13484
     13483     13481     13486     13484     13481     13486     13481     13486     13488
     13495     13493     13496     13495     13493     13498     13496     13493     13498
     13493     13498     13500     13507     13505     13508     13507     13505     13510
     13508     13505     13510     13505     13510     13512     13519     13517     13520
     13519     13517     13522     13520     13517     13522     13517     13522     13524
     13531     13529     13532     13531     13529     13534     13532     13529     13534
     13529     13534     13536     13543     13541     13544     13543     13541     13546
     13544     13541     13546     13541     13546     13548     13555     13553     13556
     13555     13553     13558     13556     13553     13558     13553     13558     13560
     13567     13565     13568     13567     13565     13570     13568     13565     13570
     13565     13570     13572     13579     13577     13580     13579     13577     13582
     13580     13577     13582     13577     13582     13584     13591     13589     13592
     13591     13589     13594     13592     13589     13594     13589     13594     13596
     13603     13601     13604     13603     13601     13606     13604     13601     13606
     13601     13606     13608     13615     13613     13616     13615     13613     13618
     13616     13613     13618     13613     13618     13620     13627     13625     13628
     13627     13625     13630     13628     13625     13630     13625     13630     13632
     13639     13637     13640     13639     13637     13642     13640     13637     13642
     13637     13642     13644     13651     13649     13652     13651     13649     13654
     13652     13649     13654     13649     13654     13656     13663     13661     13664
     13663     13661     13666     13664     13661     13666     13661     13666     13668
     13675     13673     13676     13675     13673     13678     13676     13673     13678
     13673     13678     13680     13687     13685     13688     13687     13685     13690
     13688     13685     13690     13685     13690     13692     13699     13697     13700
     13699     13697     13702     13700     13697     13702     13697     13702     13704
     13711     13709     13712     13711     13709     13714     13712     13709     13714
     13709     13714     13716     13723     13721     13724     13723     13721     13726
     13724     13721     13726     13721     13726     13728     13735     13733     13736
     13735     13733     13738     13736     13733     13738     13733     13738     13740
     13747     13745     13748     13747     13745     13750     13748     13745     13750
     13745     13750     13752     13759     13757     13760     13759     13757     13762
     13760     13757     13762     13757     13762     13764     13771     13769     13772
     13771     13769     13774     13772     13769     13774     13769     13774     13776
     13783     13781     13784     13783     13781     13786     13784     13781     13786
     13781     13786     13788     13795     13793     13796     13795     13793     13798
     13796     13793     13798     13793     13798     13800     13807     13805     13808
     13807     13805     13810     13808     13805     13810     13805     13810     13812
     13819     13817     13820     13819     13817     13822     13820     13817     13822
     13817     13822     13824     13831     13829     13832     13831     13829     13834
     13832     13829     13834     13829     13834     13836     13843     13841     13844
     13843     13841     13846     13844     13841     13846     13841     13846     13848
     13855     13853     13856     13855     13853     13858     13856     13853     13858
     13853     13858     13860     13867     13865     13868     13867     13865     13870
     13868     13865     13870     13865     13870     13872     13879     13877     13880
     13879     13877     13882     13880     13877     13882     13877     13882     13884
     13891     13889     13892     13891     13889     13894     13892     13889     13894
     13889     13894     13896     13903     13901     13904     13903     13901     13906
     13904     13901     13906     13901     13906     13908     13915     13913     13916
     13915     13913     13918     13916     13913     13918     13913     13918     13920
     13927     13925     13928     13927     13925     13930     13928     13925     13930
     13925     13930     13932     13939     13937     13940     13939     13937     13942
     13940     13937     13942     13937     13942     13944     13951     13949     13952
     13951     13949     13954     13952     13949     13954     13949     13954     13956
     13963     13961     13964     13963     13961     13966     13964     13961     13966
     13961     13966     13968     13975     13973     13976     13975     13973     13978
     13976     13973     13978     13973     13978     13980     13987     13985     13988
     13987     13985     13990     13988     13985     13990     13985     13990     13992
     13999     13997     14000     13999     13997     14002     14000     13997     14002
     13997     14002     14004     14011     14009     14012     14011     14009     14014
     14012     14009     14014     14009     14014     14016     14023     14021     14024
     14023     14021     14026     14024     14021     14026     14021     14026     14028
     14035     14033     14036     14035     14033     14038     14036     14033     14038
     14033     14038     14040     14047     14045     14048     14047     14045     14050
     14048     14045     14050     14045     14050     14052     14059     14057     14060
     14059     14057     14062     14060     14057     14062     14057     14062     14064
     14071     14069     14072     14071     14069     14074     14072     14069     14074
     14069     14074     14076     14083     14081     14084     14083     14081     14086
     14084     14081     14086     14081     14086     14088     14095     14093     14096
     14095     14093     14098     14096     14093     14098     14093     14098     14100
     14107     14105     14108     14107     14105     14110     14108     14105     14110
     14105     14110     14112     14119     14117     14120     14119     14117     14122
     14120     14117     14122     14117     14122     14124     14131     14129     14132
     14131     14129     14134     14132     14129     14134     14129     14134     14136
     14143     14141     14144     14143     14141     14146     14144     14141     14146
     14141     14146     14148     14155     14153     14156     14155     14153     14158
     14156     14153     14158     14153     14158     14160     14167     14165     14168
     14167     14165     14170     14168     14165     14170     14165     14170     14172
     14179     14177     14180     14179     14177     14182     14180     14177     14182
     14177     14182     14184     14191     14189     14192     14191     14189     14194
     14192     14189     14194     14189     14194     14196     14203     14201     14204
     14203     14201     14206     14204     14201     14206     14201     14206     14208
     14215     14213     14216     14215     14213     14218     14216     14213     14218
     14213     14218     14220     14227     14225     14228     14227     14225     14230
     14228     14225     14230     14225     14230     14232     14239     14237     14240
     14239     14237     14242     14240     14237     14242     14237     14242     14244
     14251     14249     14252     14251     14249     14254     14252     14249     14254
     14249     14254     14256     14263     14261     14264     14263     14261     14266
     14264     14261     14266     14261     14266     14268     14275     14273     14276
     14275     14273     14278     14276     14273     14278     14273     14278     14280
     14287     14285     14288     14287     14285     14290     14288     14285     14290
     14285     14290     14292     14299     14297     14300     14299     14297     14302
     14300     14297     14302     14297     14302     14304     14311     14309     14312
     14311     14309     14314     14312     14309     14314     14309     14314     14316
     14323     14321     14324     14323     14321     14326     14324     14321     14326
     14321     14326     14328     14335     14333     14336     14335     14333     14338
     14336     14333     14338     14333     14338     14340     14347     14345     14348
     14347     14345     14350     14348     14345     14350     14345     14350     14352
     14359     14357     14360     14359     14357     14362     14360     14357     14362
     14357     14362     14364     14371     14369     14372     14371     14369     14374
     14372     14369     14374     14369     14374     14376     14383     14381     14384
     14383     14381     14386     14384     14381     14386     14381     14386     14388
     14395     14393     14396     14395     14393     14398     14396     14393     14398
     14393     14398     14400     14407     14405     14408     14407     14405     14410
     14408     14405     14410     14405     14410     14412     14419     14417     14420
     14419     14417     14422     14420     14417     14422     14417     14422     14424
     14431     14429     14432     14431     14429     14434     14432     14429     14434
     14429     14434     14436     14443     14441     14444     14443     14441     14446
     14444     14441     14446     14441     14446     14448     14455     14453     14456
     14455     14453     14458     14456     14453     14458     14453     14458     14460
     14467     14465     14468     14467     14465     14470     14468     14465     14470
     14465     14470     14472     14479     14477     14480     14479     14477     14482
     14480     14477     14482     14477     14482     14484     14491     14489     14492
     14491     14489     14494     14492     14489     14494     14489     14494     14496
     14503     14501     14504     14503     14501     14506     14504     14501     14506
     14501     14506     14508     14515     14513     14516     14515     14513     14518
     14516     14513     14518     14513     14518     14520     14527     14525     14528
     14527     14525     14530     14528     14525     14530     14525     14530     14532
     14539     14537     14540     14539     14537     14542     14540     14537     14542
     14537     14542     14544     14551     14549     14552     14551     14549     14554
     14552     14549     14554     14549     14554     14556     14563     14561     14564
     14563     14561     14566     14564     14561     14566     14561     14566     14568
     14575     14573     14576     14575     14573     14578     14576     14573     14578
     14573     14578     14580     14587     14585     14588     14587     14585     14590
     14588     14585     14590     14585     14590     14592     14599     14597     14600
     14599     14597     14602     14600     14597     14602     14597     14602     14604
     14611     14609     14612     14611     14609     14614     14612     14609     14614
     14609     14614     14616     14623     14621     14624     14623     14621     14626
     14624     14621     14626     14621     14626     14628     14635     14633     14636
     14635     14633     14638     14636     14633     14638     14633     14638     14640
     14647     14645     14648     14647     14645     14650     14648     14645     14650
     14645     14650     14652     14659     14657     14660     14659     14657     14662
     14660     14657     14662     14657     14662     14664     14671     14669     14672
     14671     14669     14674     14672     14669     14674     14669     14674     14676
     14683     14681     14684     14683     14681     14686     14684     14681     14686
     14681     14686     14688     14695     14693     14696     14695     14693     14698
     14696     14693     14698     14693     14698     14700     14707     14705     14708
     14707     14705     14710     14708     14705     14710     14705     14710     14712
     14719     14717     14720     14719     14717     14722     14720     14717     14722
     14717     14722     14724     14731     14729     14732     14731     14729     14734
     14732     14729     14734     14729     14734     14736     14743     14741     14744
     14743     14741     14746     14744     14741     14746     14741     14746     14748
     14755     14753     14756     14755     14753     14758     14756     14753     14758
     14753     14758     14760     14767     14765     14768     14767     14765     14770
     14768     14765     14770     14765     14770     14772     14779     14777     14780
     14779     14777     14782     14780     14777     14782     14777     14782     14784
     14791     14789     14792     14791     14789     14794     14792     14789     14794
     14789     14794     14796     14803     14801     14804     14803     14801     14806
     14804     14801     14806     14801     14806     14808     14815     14813     14816
     14815     14813     14818     14816     14813     14818     14813     14818     14820
     14827     14825     14828     14827     14825     14830     14828     14825     14830
     14825     14830     14832     14839     14837     14840     14839     14837     14842
     14840     14837     14842     14837     14842     14844     14851     14849     14852
     14851     14849     14854     14852     14849     14854     14849     14854     14856
     14863     14861     14864     14863     14861     14866     14864     14861     14866
     14861     14866     14868     14875     14873     14876     14875     14873     14878
     14876     14873     14878     14873     14878     14880     14887     14885     14888
     14887     14885     14890     14888     14885     14890     14885     14890     14892
     14899     14897     14900     14899     14897     14902     14900     14897     14902
     14897     14902     14904     14911     14909     14912     14911     14909     14914
     14912     14909     14914     14909     14914     14916     14923     14921     14924
     14923     14921     14926     14924     14921     14926     14921     14926     14928
     14935     14933     14936     14935     14933     14938     14936     14933     14938
     14933     14938     14940     14947     14945     14948     14947     14945     14950
     14948     14945     14950     14945     14950     14952     14959     14957     14960
     14959     14957     14962     14960     14957     14962     14957     14962     14964
     14971     14969     14972     14971     14969     14974     14972     14969     14974
     14969     14974     14976     14983     14981     14984     14983     14981     14986
     14984     14981     14986     14981     14986     14988     14995     14993     14996
     14995     14993     14998     14996     14993     14998     14993     14998     15000
     15007     15005     15008     15007     15005     15010     15008     15005     15010
     15005     15010     15012     15019     15017     15020     15019     15017     15022
     15020     15017     15022     15017     15022     15024     15031     15029     15032
     15031     15029     15034     15032     15029     15034     15029     15034     15036
     15043     15041     15044     15043     15041     15046     15044     15041     15046
     15041     15046     15048     15055     15053     15056     15055     15053     15058
     15056     15053     15058     15053     15058     15060     15067     15065     15068
     15067     15065     15070     15068     15065     15070     15065     15070     15072
     15079     15077     15080     15079     15077     15082     15080     15077     15082
     15077     15082     15084     15091     15089     15092     15091     15089     15094
     15092     15089     15094     15089     15094     15096     15103     15101     15104
     15103     15101     15106     15104     15101     15106     15101     15106     15108
     15115     15113     15116     15115     15113     15118     15116     15113     15118
     15113     15118     15120     15127     15125     15128     15127     15125     15130
     15128     15125     15130     15125     15130     15132     15139     15137     15140
     15139     15137     15142     15140     15137     15142     15137     15142     15144
     15151     15149     15152     15151     15149     15154     15152     15149     15154
     15149     15154     15156     15163     15161     15164     15163     15161     15166
     15164     15161     15166     15161     15166     15168     15175     15173     15176
     15175     15173     15178     15176     15173     15178     15173     15178     15180
     15187     15185     15188     15187     15185     15190     15188     15185     15190
     15185     15190     15192     15199     15197     15200     15199     15197     15202
     15200     15197     15202     15197     15202     15204     15211     15209     15212
     15211     15209     15214     15212     15209     15214     15209     15214     15216
     15223     15221     15224     15223     15221     15226     15224     15221     15226
     15221     15226     15228     15235     15233     15236     15235     15233     15238
     15236     15233     15238     15233     15238     15240     15247     15245     15248
     15247     15245     15250     15248     15245     15250     15245     15250     15252
     15259     15257     15260     15259     15257     15262     15260     15257     15262
     15257     15262     15264     15271     15269     15272     15271     15269     15274
     15272     15269     15274     15269     15274     15276     15283     15281     15284
     15283     15281     15286     15284     15281     15286     15281     15286     15288
     15295     15293     15296     15295     15293     15298     15296     15293     15298
     15293     15298     15300     15307     15305     15308     15307     15305     15310
     15308     15305     15310     15305     15310     15312     15319     15317     15320
     15319     15317     15322     15320     15317     15322     15317     15322     15324
     15331     15329     15332     15331     15329     15334     15332     15329     15334
     15329     15334     15336     15343     15341     15344     15343     15341     15346
     15344     15341     15346     15341     15346     15348     15355     15353     15356
     15355     15353     15358     15356     15353     15358     15353     15358     15360
     15367     15365     15368     15367     15365     15370     15368     15365     15370
     15365     15370     15372     15379     15377     15380     15379     15377     15382
     15380     15377     15382     15377     15382     15384     15391     15389     15392
     15391     15389     15394     15392     15389     15394     15389     15394     15396
     15403     15401     15404     15403     15401     15406     15404     15401     15406
     15401     15406     15408     15415     15413     15416     15415     15413     15418
     15416     15413     15418     15413     15418     15420     15427     15425     15428
     15427     15425     15430     15428     15425     15430     15425     15430     15432
     15439     15437     15440     15439     15437     15442     15440     15437     15442
     15437     15442     15444     15451     15449     15452     15451     15449     15454
     15452     15449     15454     15449     15454     15456     15463     15461     15464
     15463     15461     15466     15464     15461     15466     15461     15466     15468
     15475     15473     15476     15475     15473     15478     15476     15473     15478
     15473     15478     15480     15487     15485     15488     15487     15485     15490
     15488     15485     15490     15485     15490     15492     15499     15497     15500
     15499     15497     15502     15500     15497     15502     15497     15502     15504
     15511     15509     15512     15511     15509     15514     15512     15509     15514
     15509     15514     15516     15523     15521     15524     15523     15521     15526
     15524     15521     15526     15521     15526     15528     15535     15533     15536
     15535     15533     15538     15536     15533     15538     15533     15538     15540
     15547     15545     15548     15547     15545     15550     15548     15545     15550
     15545     15550     15552     15559     15557     15560     15559     15557     15562
     15560     15557     15562     15557     15562     15564     15571     15569     15572
     15571     15569     15574     15572     15569     15574     15569     15574     15576
     15583     15581     15584     15583     15581     15586     15584     15581     15586
     15581     15586     15588     15595     15593     15596     15595     15593     15598
     15596     15593     15598     15593     15598     15600     15607     15605     15608
     15607     15605     15610     15608     15605     15610     15605     15610     15612
     15619     15617     15620     15619     15617     15622     15620     15617     15622
     15617     15622     15624     15631     15629     15632     15631     15629     15634
     15632     15629     15634     15629     15634     15636     15643     15641     15644
     15643     15641     15646     15644     15641     15646     15641     15646     15648
     15655     15653     15656     15655     15653     15658     15656     15653     15658
     15653     15658     15660     15667     15665     15668     15667     15665     15670
     15668     15665     15670     15665     15670     15672     15679     15677     15680
     15679     15677     15682     15680     15677     15682     15677     15682     15684
     15691     15689     15692     15691     15689     15694     15692     15689     15694
     15689     15694     15696     15703     15701     15704     15703     15701     15706
     15704     15701     15706     15701     15706     15708     15715     15713     15716
     15715     15713     15718     15716     15713     15718     15713     15718     15720
     15727     15725     15728     15727     15725     15730     15728     15725     15730
     15725     15730     15732     15739     15737     15740     15739     15737     15742
     15740     15737     15742     15737     15742     15744     15751     15749     15752
     15751     15749     15754     15752     15749     15754     15749     15754     15756
     15763     15761     15764     15763     15761     15766     15764     15761     15766
     15761     15766     15768     15775     15773     15776     15775     15773     15778
     15776     15773     15778     15773     15778     15780     15787     15785     15788
     15787     15785     15790     15788     15785     15790     15785     15790     15792
     15799     15797     15800     15799     15797     15802     15800     15797     15802
     15797     15802     15804     15811     15809     15812     15811     15809     15814
     15812     15809     15814     15809     15814     15816     15823     15821     15824
     15823     15821     15826     15824     15821     15826     15821     15826     15828
     15835     15833     15836     15835     15833     15838     15836     15833     15838
     15833     15838     15840     15847     15845     15848     15847     15845     15850
     15848     15845     15850     15845     15850     15852     15859     15857     15860
     15859     15857     15862     15860     15857     15862     15857     15862     15864
     15871     15869     15872     15871     15869     15874     15872     15869     15874
     15869     15874     15876     15883     15881     15884     15883     15881     15886
     15884     15881     15886     15881     15886     15888     15895     15893     15896
     15895     15893     15898     15896     15893     15898     15893     15898     15900
     15907     15905     15908     15907     15905     15910     15908     15905     15910
     15905     15910     15912     15919     15917     15920     15919     15917     15922
     15920     15917     15922     15917     15922     15924     15931     15929     15932
     15931     15929     15934     15932     15929     15934     15929     15934     15936
     15943     15941     15944     15943     15941     15946     15944     15941     15946
     15941     15946     15948     15955     15953     15956     15955     15953     15958
     15956     15953     15958     15953     15958     15960     15967     15965     15968
     15967     15965     15970     15968     15965     15970     15965     15970     15972
     15979     15977     15980     15979     15977     15982     15980     15977     15982
     15977     15982     15984     15991     15989     15992     15991     15989     15994
     15992     15989     15994     15989     15994     15996     16003     16001     16004
     16003     16001     16005     16003     16001     16006     16004     16001     16005
     16004     16001     16006     16005     16001     16006     16001     16006     16008
     16001     16006     16014     16008     16006     16014     16006     16008     16010
     16006     16008     16011     16010     16008     16011     16008     16011     16013
     16008     16011     16017     16013     16011     16017     16006     16014     16016
     16006     16014     16017     16016     16014     16017     16011     16017     16014
     16011     16017     16019     16014     16017     16019     16023     16021     16024
     16023     16021     16025     16023     16021     16026     16024     16021     16025
     16024     16021     16026     16025     16021     16026     16021     16026     16028
     16021     16026     16034     16028     16026     16034     16026     16028     16030
     16026     16028     16031     16030     16028     16031     16028     16031     16033
     16028     16031     16037     16033     16031     16037     16026     16034     16036
     16026     16034     16037     16036     16034     16037     16031     16037     16034
     16031     16037     16039     16034     16037     16039     16043     16041     16044
     16043     16041     16045     16043     16041     16046     16044     16041     16045
     16044     16041     16046     16045     16041     16046     16041     16046     16048
     16041     16046     16054     16048     16046     16054     16046     16048     16050
     16046     16048     16051     16050     16048     16051     16048     16051     16053
     16048     16051     16057     16053     16051     16057     16046     16054     16056
     16046     16054     16057     16056     16054     16057     16051     16057     16054
     16051     16057     16059     16054     16057     16059     16063     16061     16064
     16063     16061     16065     16063     16061     16066     16064     16061     16065
     16064     16061     16066     16065     16061     16066     16061     16066     16068
     16061     16066     16074     16068     16066     16074     16066     16068     16070
     16066     16068     16071     16070     16068     16071     16068     16071     16073
     16068     16071     16077     16073     16071     16077     16066     16074     16076
     16066     16074     16077     16076     16074     16077     16071     16077     16074
     16071     16077     16079     16074     16077     16079     16083     16081     16084
     16083     16081     16085     16083     16081     16086     16084     16081     16085
     16084     16081     16086     16085     16081     16086     16081     16086     16088
     16081     16086     16094     16088     16086     16094     16086     16088     16090
     16086     16088     16091     16090     16088     16091     16088     16091     16093
     16088     16091     16097     16093     16091     16097     16086     16094     16096
     16086     16094     16097     16096     16094     16097     16091     16097     16094
     16091     16097     16099     16094     16097     16099     16103     16101     16104
     16103     16101     16105     16103     16101     16106     16104     16101     16105
     16104     16101     16106     16105     16101     16106     16101     16106     16108
     16101     16106     16114     16108     16106     16114     16106     16108     16110
     16106     16108     16111     16110     16108     16111     16108     16111     16113
     16108     16111     16117     16113     16111     16117     16106     16114     16116
     16106     16114     16117     16116     16114     16117     16111     16117     16114
     16111     16117     16119     16114     16117     16119     16123     16121     16124
     16123     16121     16125     16123     16121     16126     16124     16121     16125
     16124     16121     16126     16125     16121     16126     16121     16126     16128
     16121     16126     16134     16128     16126     16134     16126     16128     16130
     16126     16128     16131     16130     16128     16131     16128     16131     16133
     16128     16131     16137     16133     16131     16137     16126     16134     16136
     16126     16134     16137     16136     16134     16137     16131     16137     16134
     16131     16137     16139     16134     16137     16139     16143     16141     16144
     16143     16141     16145     16143     16141     16146     16144     16141     16145
     16144     16141     16146     16145     16141     16146     16141     16146     16148
     16141     16146     16154     16148     16146     16154     16146     16148     16150
     16146     16148     16151     16150     16148     16151     16148     16151     16153
     16148     16151     16157     16153     16151     16157     16146     16154     16156
     16146     16154     16157     16156     16154     16157     16151     16157     16154
     16151     16157     16159     16154     16157     16159     16163     16161     16164
     16163     16161     16165     16163     16161     16166     16164     16161     16165
     16164     16161     16166     16165     16161     16166     16161     16166     16168
     16161     16166     16174     16168     16166     16174     16166     16168     16170
     16166     16168     16171     16170     16168     16171     16168     16171     16173
     16168     16171     16177     16173     16171     16177     16166     16174     16176
     16166     16174     16177     16176     16174     16177     16171     16177     16174
     16171     16177     16179     16174     16177     16179     16183     16181     16184
     16183     16181     16185     16183     16181     16186     16184     16181     16185
     16184     16181     16186     16185     16181     16186     16181     16186     16188
     16181     16186     16194     16188     16186     16194     16186     16188     16190
     16186     16188     16191     16190     16188     16191     16188     16191     16193
     16188     16191     16197     16193     16191     16197     16186     16194     16196
     16186     16194     16197     16196     16194     16197     16191     16197     16194
     16191     16197     16199     16194     16197     16199     16203     16201     16204
     16203     16201     16205     16203     16201     16206     16204     16201     16205
     16204     16201     16206     16205     16201     16206     16201     16206     16208
     16201     16206     16214     16208     16206     16214     16206     16208     16210
     16206     16208     16211     16210     16208     16211     16208     16211     16213
     16208     16211     16217     16213     16211     16217     16206     16214     16216
     16206     16214     16217     16216     16214     16217     16211     16217     16214
     16211     16217     16219     16214     16217     16219     16223     16221     16224
     16223     16221     16225     16223     16221     16226     16224     16221     16225
     16224     16221     16226     16225     16221     16226     16221     16226     16228
     16221     16226     16234     16228     16226     16234     16226     16228     16230
     16226     16228     16231     16230     16228     16231     16228     16231     16233
     16228     16231     16237     16233     16231     16237     16226     16234     16236
     16226     16234     16237     16236     16234     16237     16231     16237     16234
     16231     16237     16239     16234     16237     16239     16243     16241     16244
     16243     16241     16245     16243     16241     16246     16244     16241     16245
     16244     16241     16246     16245     16241     16246     16241     16246     16248
     16241     16246     16254     16248     16246     16254     16246     16248     16250
     16246     16248     16251     16250     16248     16251     16248     16251     16253
     16248     16251     16257     16253     16251     16257     16246     16254     16256
     16246     16254     16257     16256     16254     16257     16251     16257     16254
     16251     16257     16259     16254     16257     16259     16263     16261     16264
     16263     16261     16265     16263     16261     16266     16264     16261     16265
     16264     16261     16266     16265     16261     16266     16261     16266     16268
     16261     16266     16274     16268     16266     16274     16266     16268     16270
     16266     16268     16271     16270     16268     16271     16268     16271     16273
     16268     16271     16277     16273     16271     16277     16266     16274     16276
     16266     16274     16277     16276     16274     16277     16271     16277     16274
     16271     16277     16279     16274     16277     16279     16283     16281     16284
     16283     16281     16285     16283     16281     16286     16284     16281     16285
     16284     16281     16286     16285     16281     16286     16281     16286     16288
     16281     16286     16294     16288     16286     16294     16286     16288     16290
     16286     16288     16291     16290     16288     16291     16288     16291     16293
     16288     16291     16297     16293     16291     16297     16286     16294     16296
     16286     16294     16297     16296     16294     16297     16291     16297     16294
     16291     16297     16299     16294     16297     16299     16303     16301     16304
     16303     16301     16305     16303     16301     16306     16304     16301     16305
     16304     16301     16306     16305     16301     16306     16301     16306     16308
     16301     16306     16314     16308     16306     16314     16306     16308     16310
     16306     16308     16311     16310     16308     16311     16308     16311     16313
     16308     16311     16317     16313     16311     16317     16306     16314     16316
     16306     16314     16317     16316     16314     16317     16311     16317     16314
     16311     16317     16319     16314     16317     16319     16323     16321     16324
     16323     16321     16325     16323     16321     16326     16324     16321     16325
     16324     16321     16326     16325     16321     16326     16321     16326     16328
     16321     16326     16334     16328     16326     16334     16326     16328     16330
     16326     16328     16331     16330     16328     16331     16328     16331     16333
     16328     16331     16337     16333     16331     16337     16326     16334     16336
     16326     16334     16337     16336     16334     16337     16331     16337     16334
     16331     16337     16339     16334     16337     16339     16343     16341     16344
     16343     16341     16345     16343     16341     16346     16344     16341     16345
     16344     16341     16346     16345     16341     16346     16341     16346     16348
     16341     16346     16354     16348     16346     16354     16346     16348     16350
     16346     16348     16351     16350     16348     16351     16348     16351     16353
     16348     16351     16357     16353     16351     16357     16346     16354     16356
     16346     16354     16357     16356     16354     16357     16351     16357     16354
     16351     16357     16359     16354     16357     16359     16363     16361     16364
     16363     16361     16365     16363     16361     16366     16364     16361     16365
     16364     16361     16366     16365     16361     16366     16361     16366     16368
     16361     16366     16374     16368     16366     16374     16366     16368     16370
     16366     16368     16371     16370     16368     16371     16368     16371     16373
     16368     16371     16377     16373     16371     16377     16366     16374     16376
     16366     16374     16377     16376     16374     16377     16371     16377     16374
     16371     16377     16379     16374     16377     16379     16383     16381     16384
     16383     16381     16385     16383     16381     16386     16384     16381     16385
     16384     16381     16386     16385     16381     16386     16381     16386     16388
     16381     16386     16394     16388     16386     16394     16386     16388     16390
     16386     16388     16391     16390     16388     16391     16388     16391     16393
     16388     16391     16397     16393     16391     16397     16386     16394     16396
     16386     16394     16397     16396     16394     16397     16391     16397     16394
     16391     16397     16399     16394     16397     16399     16403     16401     16404
     16403     16401     16405     16403     16401     16406     16404     16401     16405
     16404     16401     16406     16405     16401     16406     16401     16406     16408
     16401     16406     16414     16408     16406     16414     16406     16408     16410
     16406     16408     16411     16410     16408     16411     16408     16411     16413
     16408     16411     16417     16413     16411     16417     16406     16414     16416
     16406     16414     16417     16416     16414     16417     16411     16417     16414
     16411     16417     16419     16414     16417     16419     16423     16421     16424
     16423     16421     16425     16423     16421     16426     16424     16421     16425
     16424     16421     16426     16425     16421     16426     16421     16426     16428
     16421     16426     16434     16428     16426     16434     16426     16428     16430
     16426     16428     16431     16430     16428     16431     16428     16431     16433
     16428     16431     16437     16433     16431     16437     16426     16434     16436
     16426     16434     16437     16436     16434     16437     16431     16437     16434
     16431     16437     16439     16434     16437     16439     16443     16441     16444
     16443     16441     16445     16443     16441     16446     16444     16441     16445
     16444     16441     16446     16445     16441     16446     16441     16446     16448
     16441     16446     16454     16448     16446     16454     16446     16448     16450
     16446     16448     16451     16450     16448     16451     16448     16451     16453
     16448     16451     16457     16453     16451     16457     16446     16454     16456
     16446     16454     16457     16456     16454     16457     16451     16457     16454
     16451     16457     16459     16454     16457     16459     16463     16461     16464
     16463     16461     16465     16463     16461     16466     16464     16461     16465
     16464     16461     16466     16465     16461     16466     16461     16466     16468
     16461     16466     16474     16468     16466     16474     16466     16468     16470
     16466     16468     16471     16470     16468     16471     16468     16471     16473
     16468     16471     16477     16473     16471     16477     16466     16474     16476
     16466     16474     16477     16476     16474     16477     16471     16477     16474
     16471     16477     16479     16474     16477     16479     16483     16481     16484
     16483     16481     16485     16483     16481     16486     16484     16481     16485
     16484     16481     16486     16485     16481     16486     16481     16486     16488
     16481     16486     16494     16488     16486     16494     16486     16488     16490
     16486     16488     16491     16490     16488     16491     16488     16491     16493
     16488     16491     16497     16493     16491     16497     16486     16494     16496
     16486     16494     16497     16496     16494     16497     16491     16497     16494
     16491     16497     16499     16494     16497     16499     16503     16501     16504
     16503     16501     16505     16503     16501     16506     16504     16501     16505
     16504     16501     16506     16505     16501     16506     16501     16506     16508
     16501     16506     16514     16508     16506     16514     16506     16508     16510
     16506     16508     16511     16510     16508     16511     16508     16511     16513
     16508     16511     16517     16513     16511     16517     16506     16514     16516
     16506     16514     16517     16516     16514     16517     16511     16517     16514
     16511     16517     16519     16514     16517     16519     16523     16521     16524
     16523     16521     16525     16523     16521     16526     16524     16521     16525
     16524     16521     16526     16525     16521     16526     16521     16526     16528
     16521     16526     16534     16528     16526     16534     16526     16528     16530
     16526     16528     16531     16530     16528     16531     16528     16531     16533
     16528     16531     16537     16533     16531     16537     16526     16534     16536
     16526     16534     16537     16536     16534     16537     16531     16537     16534
     16531     16537     16539     16534     16537     16539     16543     16541     16544
     16543     16541     16545     16543     16541     16546     16544     16541     16545
     16544     16541     16546     16545     16541     16546     16541     16546     16548
     16541     16546     16554     16548     16546     16554     16546     16548     16550
     16546     16548     16551     16550     16548     16551     16548     16551     16553
     16548     16551     16557     16553     16551     16557     16546     16554     16556
     16546     16554     16557     16556     16554     16557     16551     16557     16554
     16551     16557     16559     16554     16557     16559     16563     16561     16564
     16563     16561     16565     16563     16561     16566     16564     16561     16565
     16564     16561     16566     16565     16561     16566     16561     16566     16568
     16561     16566     16574     16568     16566     16574     16566     16568     16570
     16566     16568     16571     16570     16568     16571     16568     16571     16573
     16568     16571     16577     16573     16571     16577     16566     16574     16576
     16566     16574     16577     16576     16574     16577     16571     16577     16574
     16571     16577     16579     16574     16577     16579     16583     16581     16584
     16583     16581     16585     16583     16581     16586     16584     16581     16585
     16584     16581     16586     16585     16581     16586     16581     16586     16588
     16581     16586     16594     16588     16586     16594     16586     16588     16590
     16586     16588     16591     16590     16588     16591     16588     16591     16593
     16588     16591     16597     16593     16591     16597     16586     16594     16596
     16586     16594     16597     16596     16594     16597     16591     16597     16594
     16591     16597     16599     16594     16597     16599     16603     16601     16604
     16603     16601     16605     16603     16601     16606     16604     16601     16605
     16604     16601     16606     16605     16601     16606     16601     16606     16608
     16601     16606     16614     16608     16606     16614     16606     16608     16610
     16606     16608     16611     16610     16608     16611     16608     16611     16613
     16608     16611     16617     16613     16611     16617     16606     16614     16616
     16606     16614     16617     16616     16614     16617     16611     16617     16614
     16611     16617     16619     16614     16617     16619     16623     16621     16624
     16623     16621     16625     16623     16621     16626     16624     16621     16625
     16624     16621     16626     16625     16621     16626     16621     16626     16628
     16621     16626     16634     16628     16626     16634     16626     16628     16630
     16626     16628     16631     16630     16628     16631     16628     16631     16633
     16628     16631     16637     16633     16631     16637     16626     16634     16636
     16626     16634     16637     16636     16634     16637     16631     16637     16634
     16631     16637     16639     16634     16637     16639     16643     16641     16644
     16643     16641     16645     16643     16641     16646     16644     16641     16645
     16644     16641     16646     16645     16641     16646     16641     16646     16648
     16641     16646     16654     16648     16646     16654     16646     16648     16650
     16646     16648     16651     16650     16648     16651     16648     16651     16653
     16648     16651     16657     16653     16651     16657     16646     16654     16656
     16646     16654     16657     16656     16654     16657     16651     16657     16654
     16651     16657     16659     16654     16657     16659     16663     16661     16664
     16663     16661     16665     16663     16661     16666     16664     16661     16665
     16664     16661     16666     16665     16661     16666     16661     16666     16668
     16661     16666     16674     16668     16666     16674     16666     16668     16670
     16666     16668     16671     16670     16668     16671     16668     16671     16673
     16668     16671     16677     16673     16671     16677     16666     16674     16676
     16666     16674     16677     16676     16674     16677     16671     16677     16674
     16671     16677     16679     16674     16677     16679     16683     16681     16684
     16683     16681     16685     16683     16681     16686     16684     16681     16685
     16684     16681     16686     16685     16681     16686     16681     16686     16688
     16681     16686     16694     16688     16686     16694     16686     16688     16690
     16686     16688     16691     16690     16688     16691     16688     16691     16693
     16688     16691     16697     16693     16691     16697     16686     16694     16696
     16686     16694     16697     16696     16694     16697     16691     16697     16694
     16691     16697     16699     16694     16697     16699     16703     16701     16704
     16703     16701     16705     16703     16701     16706     16704     16701     16705
     16704     16701     16706     16705     16701     16706     16701     16706     16708
     16701     16706     16714     16708     16706     16714     16706     16708     16710
     16706     16708     16711     16710     16708     16711     16708     16711     16713
     16708     16711     16717     16713     16711     16717     16706     16714     16716
     16706     16714     16717     16716     16714     16717     16711     16717     16714
     16711     16717     16719     16714     16717     16719     16723     16721     16724
     16723     16721     16725     16723     16721     16726     16724     16721     16725
     16724     16721     16726     16725     16721     16726     16721     16726     16728
     16721     16726     16734     16728     16726     16734     16726     16728     16730
     16726     16728     16731     16730     16728     16731     16728     16731     16733
     16728     16731     16737     16733     16731     16737     16726     16734     16736
     16726     16734     16737     16736     16734     16737     16731     16737     16734
     16731     16737     16739     16734     16737     16739     16743     16741     16744
     16743     16741     16745     16743     16741     16746     16744     16741     16745
     16744     16741     16746     16745     16741     16746     16741     16746     16748
     16741     16746     16754     16748     16746     16754     16746     16748     16750
     16746     16748     16751     16750     16748     16751     16748     16751     16753
     16748     16751     16757     16753     16751     16757     16746     16754     16756
     16746     16754     16757     16756     16754     16757     16751     16757     16754
     16751     16757     16759     16754     16757     16759     16763     16761     16764
     16763     16761     16765     16763     16761     16766     16764     16761     16765
     16764     16761     16766     16765     16761     16766     16761     16766     16768
     16761     16766     16774     16768     16766     16774     16766     16768     16770
     16766     16768     16771     16770     16768     16771     16768     16771     16773
     16768     16771     16777     16773     16771     16777     16766     16774     16776
     16766     16774     16777     16776     16774     16777     16771     16777     16774
     16771     16777     16779     16774     16777     16779     16783     16781     16784
     16783     16781     16785     16783     16781     16786     16784     16781     16785
     16784     16781     16786     16785     16781     16786     16781     16786     16788
     16781     16786     16794     16788     16786     16794     16786     16788     16790
     16786     16788     16791     16790     16788     16791     16788     16791     16793
     16788     16791     16797     16793     16791     16797     16786     16794     16796
     16786     16794     16797     16796     16794     16797     16791     16797     16794
     16791     16797     16799     16794     16797     16799     16803     16801     16804
     16803     16801     16805     16803     16801     16806     16804     16801     16805
     16804     16801     16806     16805     16801     16806     16801     16806     16808
     16801     16806     16814     16808     16806     16814     16806     16808     16810
     16806     16808     16811     16810     16808     16811     16808     16811     16813
     16808     16811     16817     16813     16811     16817     16806     16814     16816
     16806     16814     16817     16816     16814     16817     16811     16817     16814
     16811     16817     16819     16814     16817     16819     16823     16821     16824
     16823     16821     16825     16823     16821     16826     16824     16821     16825
     16824     16821     16826     16825     16821     16826     16821     16826     16828
     16821     16826     16834     16828     16826     16834     16826     16828     16830
     16826     16828     16831     16830     16828     16831     16828     16831     16833
     16828     16831     16837     16833     16831     16837     16826     16834     16836
     16826     16834     16837     16836     16834     16837     16831     16837     16834
     16831     16837     16839     16834     16837     16839     16843     16841     16844
     16843     16841     16845     16843     16841     16846     16844     16841     16845
     16844     16841     16846     16845     16841     16846     16841     16846     16848
     16841     16846     16854     16848     16846     16854     16846     16848     16850
     16846     16848     16851     16850     16848     16851     16848     16851     16853
     16848     16851     16857     16853     16851     16857     16846     16854     16856
     16846     16854     16857     16856     16854     16857     16851     16857     16854
     16851     16857     16859     16854     16857     16859     16863     16861     16864
     16863     16861     16865     16863     16861     16866     16864     16861     16865
     16864     16861     16866     16865     16861     16866     16861     16866     16868
     16861     16866     16874     16868     16866     16874     16866     16868     16870
     16866     16868     16871     16870     16868     16871     16868     16871     16873
     16868     16871     16877     16873     16871     16877     16866     16874     16876
     16866     16874     16877     16876     16874     16877     16871     16877     16874
     16871     16877     16879     16874     16877     16879     16883     16881     16884
     16883     16881     16885     16883     16881     16886     16884     16881     16885
     16884     16881     16886     16885     16881     16886     16881     16886     16888
     16881     16886     16894     16888     16886     16894     16886     16888     16890
     16886     16888     16891     16890     16888     16891     16888     16891     16893
     16888     16891     16897     16893     16891     16897     16886     16894     16896
     16886     16894     16897     16896     16894     16897     16891     16897     16894
     16891     16897     16899     16894     16897     16899     16903     16901     16904
     16903     16901     16905     16903     16901     16906     16904     16901     16905
     16904     16901     16906     16905     16901     16906     16901     16906     16908
     16901     16906     16914     16908     16906     16914     16906     16908     16910
     16906     16908     16911     16910     16908     16911     16908     16911     16913
     16908     16911     16917     16913     16911     16917     16906     16914     16916
     16906     16914     16917     16916     16914     16917     16911     16917     16914
     16911     16917     16919     16914     16917     16919     16923     16921     16924
     16923     16921     16925     16923     16921     16926     16924     16921     16925
     16924     16921     16926     16925     16921     16926     16921     16926     16928
     16921     16926     16934     16928     16926     16934     16926     16928     16930
     16926     16928     16931     16930     16928     16931     16928     16931     16933
     16928     16931     16937     16933     16931     16937     16926     16934     16936
     16926     16934     16937     16936     16934     16937     16931     16937     16934
     16931     16937     16939     16934     16937     16939     16943     16941     16944
     16943     16941     16945     16943     16941     16946     16944     16941     16945
     16944     16941     16946     16945     16941     16946     16941     16946     16948
     16941     16946     16954     16948     16946     16954     16946     16948     16950
     16946     16948     16951     16950     16948     16951     16948     16951     16953
     16948     16951     16957     16953     16951     16957     16946     16954     16956
     16946     16954     16957     16956     16954     16957     16951     16957     16954
     16951     16957     16959     16954     16957     16959     16963     16961     16964
     16963     16961     16965     16963     16961     16966     16964     16961     16965
     16964     16961     16966     16965     16961     16966     16961     16966     16968
     16961     16966     16974     16968     16966     16974     16966     16968     16970
     16966     16968     16971     16970     16968     16971     16968     16971     16973
     16968     16971     16977     16973     16971     16977     16966     16974     16976
     16966     16974     16977     16976     16974     16977     16971     16977     16974
     16971     16977     16979     16974     16977     16979     16983     16981     16984
     16983     16981     16985     16983     16981     16986     16984     16981     16985
     16984     16981     16986     16985     16981     16986     16981     16986     16988
     16981     16986     16994     16988     16986     16994     16986     16988     16990
     16986     16988     16991     16990     16988     16991     16988     16991     16993
     16988     16991     16997     16993     16991     16997     16986     16994     16996
     16986     16994     16997     16996     16994     16997     16991     16997     16994
     16991     16997     16999     16994     16997     16999     17003     17001     17004
     17003     17001     17006     17004     17001     17006     17001     17006     17008
     17015     17013     17016     17015     17013     17018     17016     17013     17018
     17013     17018     17020     17027     17025     17028     17027     17025     17030
     17028     17025     17030     17025     17030     17032     17039     17037     17040
     17039     17037     17042     17040     17037     17042     17037     17042     17044
     17051     17049     17052     17051     17049     17054     17052     17049     17054
     17049     17054     17056     17063     17061     17064     17063     17061     17066
     17064     17061     17066     17061     17066     17068     17075     17073     17076
     17075     17073     17078     17076     17073     17078     17073     17078     17080
     17087     17085     17088     17087     17085     17090     17088     17085     17090
     17085     17090     17092     17099     17097     17100     17099     17097     17102
     17100     17097     17102     17097     17102     17104     17111     17109     17112
     17111     17109     17114     17112     17109     17114     17109     17114     17116
     17123     17121     17124     17123     17121     17126     17124     17121     17126
     17121     17126     17128     17135     17133     17136     17135     17133     17138
     17136     17133     17138     17133     17138     17140     17147     17145     17148
     17147     17145     17150     17148     17145     17150     17145     17150     17152
     17159     17157     17160     17159     17157     17162     17160     17157     17162
     17157     17162     17164     17171     17169     17172     17171     17169     17174
     17172     17169     17174     17169     17174     17176     17183     17181     17184
     17183     17181     17186     17184     17181     17186     17181     17186     17188
     17195     17193     17196     17195     17193     17198     17196     17193     17198
     17193     17198     17200     17207     17205     17208     17207     17205     17210
     17208     17205     17210     17205     17210     17212     17219     17217     17220
     17219     17217     17222     17220     17217     17222     17217     17222     17224
     17231     17229     17232     17231     17229     17234     17232     17229     17234
     17229     17234     17236     17243     17241     17244     17243     17241     17246
     17244     17241     17246     17241     17246     17248     17255     17253     17256
     17255     17253     17258     17256     17253     17258     17253     17258     17260
     17267     17265     17268     17267     17265     17270     17268     17265     17270
     17265     17270     17272     17279     17277     17280     17279     17277     17282
     17280     17277     17282     17277     17282     17284     17291     17289     17292
     17291     17289     17294     17292     17289     17294     17289     17294     17296
     17303     17301     17304     17303     17301     17306     17304     17301     17306
     17301     17306     17308     17315     17313     17316     17315     17313     17318
     17316     17313     17318     17313     17318     17320     17327     17325     17328
     17327     17325     17330     17328     17325     17330     17325     17330     17332
     17339     17337     17340     17339     17337     17342     17340     17337     17342
     17337     17342     17344     17351     17349     17352     17351     17349     17354
     17352     17349     17354     17349     17354     17356     17363     17361     17364
     17363     17361     17366     17364     17361     17366     17361     17366     17368
     17375     17373     17376     17375     17373     17378     17376     17373     17378
     17373     17378     17380     17387     17385     17388     17387     17385     17390
     17388     17385     17390     17385     17390     17392     17399     17397     17400
     17399     17397     17402     17400     17397     17402     17397     17402     17404
     17411     17409     17412     17411     17409     17414     17412     17409     17414
     17409     17414     17416     17423     17421     17424     17423     17421     17426
     17424     17421     17426     17421     17426     17428     17435     17433     17436
     17435     17433     17438     17436     17433     17438     17433     17438     17440
     17447     17445     17448     17447     17445     17450     17448     17445     17450
     17445     17450     17452     17459     17457     17460     17459     17457     17462
     17460     17457     17462     17457     17462     17464     17471     17469     17472
     17471     17469     17474     17472     17469     17474     17469     17474     17476
     17483     17481     17484     17483     17481     17486     17484     17481     17486
     17481     17486     17488     17495     17493     17496     17495     17493     17498
     17496     17493     17498     17493     17498     17500     17507     17505     17508
     17507     17505     17510     17508     17505     17510     17505     17510     17512
     17519     17517     17520     17519     17517     17522     17520     17517     17522
     17517     17522     17524     17531     17529     17532     17531     17529     17534
     17532     17529     17534     17529     17534     17536     17543     17541     17544
     17543     17541     17546     17544     17541     17546     17541     17546     17548
     17555     17553     17556     17555     17553     17558     17556     17553     17558
     17553     17558     17560     17567     17565     17568     17567     17565     17570
     17568     17565     17570     17565     17570     17572     17579     17577     17580
     17579     17577     17582     17580     17577     17582     17577     17582     17584
     17591     17589     17592     17591     17589     17594     17592     17589     17594
     17589     17594     17596

     15400 !NPHI: dihedrals
         1         6         8        10         1         6         8        11
         1         6        14        16         1         6        14        17
         3         1         6         8         3         1         6        14
         4         1         6         8         4         1         6        14
         5         1         6         8         5         1         6        14
         6         8        11        13         6         8        11        17
         6        14        17        11         6        14        17        19
         8         6        14        16         8         6        14        17
         8        11        17        14         8        11        17        19
        10         8         6        14        10         8        11        13
        10         8        11        17        11         8         6        14
        11        17        14        16        13        11        17        14
        13        11        17        19        16        14        17        19
        21        26        28        30        21        26        28        31
        21        26        34        36        21        26        34        37
        23        21        26        28        23        21        26        34
        24        21        26        28        24        21        26        34
        25        21        26        28        25        21        26        34
        26        28        31        33        26        28        31        37
        26        34        37        31        26        34        37        39
        28        26        34        36        28        26        34        37
        28        31        37        34        28        31        37        39
        30        28        26        34        30        28        31        33
        30        28        31        37        31        28        26        34
        31        37        34        36        33        31        37        34
        33        31        37        39        36        34        37        39
        41        46        48        50        41        46        48        51
        41        46        54        56        41        46        54        57
        43        41        46        48        43        41        46        54
        44        41        46        48        44        41        46        54
        45        41        46        48        45        41        46        54
        46        48        51        53        46        48        51        57
        46        54        57        51        46        54        57        59
        48        46        54        56        48        46        54        57
        48        51        57        54        48        51        57        59
        50        48        46        54        50        48        51        53
        50        48        51        57        51        48        46        54
        51        57        54        56        53        51        57        54
        53        51        57        59        56        54        57        59
        61        66        68        70        61        66        68        71
        61        66        74        76        61        66        74        77
        63        61        66        68        63        61        66        74
        64        61        66        68        64        61        66        74
        65        61        66        68        65        61        66        74
        66        68        71        73        66        68        71        77
        66        74        77        71        66        74        77        79
        68        66        74        76        68        66        74        77
        68        71        77        74        68        71        77        79
        70        68        66        74        70        68        71        73
        70        68        71        77        71        68        66        74
        71        77        74        76        73        71        77        74
        73        71        77        79        76        74        77        79
        81        86        88        90        81        86        88        91
        81        86        94        96        81        86        94        97
        83        81        86        88        83        81        86        94
        84        81        86        88        84        81        86        94
        85        81        86        88        85        81        86        94
        86        88        91        93        86        88        91        97
        86        94        97        91        86        94        97        99
        88        86        94        96        88        86        94        97
        88        91        97        94        88        91        97        99
        90        88        86        94        90        88        91        93
        90        88        91        97        91        88        86        94
        91        97        94        96        93        91        97        94
        93        91        97        99        96        94        97        99
       101       106       108       110       101       106       108       111
       101       106       114       116       101       106       114       117
       103       101       106       108       103       101       106       114
       104       101       106       108       104       101       106       114
       105       101       106       108       105       101       106       114
       106       108       111       113       106       108       111       117
       106       114       117       111       106       114       117       119
       108       106       114       116       108       106       114       117
       108       111       117       114       108       111       117       119
       110       108       106       114       110       108       111       113
       110       108       111       117       111       108       106       114
       111       117       114       116       113       111       117       114
       113       111       117       119       116       114       117       119
       121       126       128       130       121       126       128       131
       121       126       134       136       121       126       134       137
       123       121       126       128       123       121       126       134
       124       121       126       128       124       121       126       134
       125       121       126       128       125       121       126       134
       126       128       131       133       126       128       131       137
       126       134       137       131       126       134       137       139
       128       126       134       136       128       126       134       137
       128       131       137       134       128       131       137       139
       130       128       126       134       130       128       131       133
       130       128       131       137       131       128       126       134
       131       137       134       136       133       131       137       134
       133       131       137       139       136       134       137       139
       141       146       148       150       141       146       148       151
       141       146       154       156       141       146       154       157
       143       141       146       148       143       141       146       154
       144       141       146       148       144       141       146       154
       145       141       146       148       145       141       146       154
       146       148       151       153       146       148       151       157
       146       154       157       151       146       154       157       159
       148       146       154       156       148       146       154       157
       148       151       157       154       148       151       157       159
       150       148       146       154       150       148       151       153
       150       148       151       157       151       148       146       154
       151       157       154       156       153       151       157       154
       153       151       157       159       156       154       157       159
       161       166       168       170       161       166       168       171
       161       166       174       176       161       166       174       177
       163       161       166       168       163       161       166       174
       164       161       166       168       164       161       166       174
       165       161       166       168       165       161       166       174
       166       168       171       173       166       168       171       177
       166       174       177       171       166       174       177       179
       168       166       174       176       168       166       174       177
       168       171       177       174       168       171       177       179
       170       168       166       174       170       168       171       173
       170       168       171       177       171       168       166       174
       171       177       174       176       173       171       177       174
       173       171       177       179       176       174       177       179
       181       186       188       190       181       186       188       191
       181       186       194       196       181       186       194       197
       183       181       186       188       183       181       186       194
       184       181       186       188       184       181       186       194
       185       181       186       188       185       181       186       194
       186       188       191       193       186       188       191       197
       186       194       197       191       186       194       197       199
       188       186       194       196       188       186       194       197
       188       191       197       194       188       191       197       199
       190       188       186       194       190       188       191       193
       190       188       191       197       191       188       186       194
       191       197       194       196       193       191       197       194
       193       191       197       199       196       194       197       199
       201       206       208       210       201       206       208       211
       201       206       214       216       201       206       214       217
       203       201       206       208       203       201       206       214
       204       201       206       208       204       201       206       214
       205       201       206       208       205       201       206       214
       206       208       211       213       206       208       211       217
       206       214       217       211       206       214       217       219
       208       206       214       216       208       206       214       217
       208       211       217       214       208       211       217       219
       210       208       206       214       210       208       211       213
       210       208       211       217       211       208       206       214
       211       217       214       216       213       211       217       214
       213       211       217       219       216       214       217       219
       221       226       228       230       221       226       228       231
       221       226       234       236       221       226       234       237
       223       221       226       228       223       221       226       234
       224       221       226       228       224       221       226       234
       225       221       226       228       225       221       226       234
       226       228       231       233       226       228       231       237
       226       234       237       231       226       234       237       239
       228       226       234       236       228       226       234       237
       228       231       237       234       228       231       237       239
       230       228       226       234       230       228       231       233
       230       228       231       237       231       228       226       234
       231       237       234       236       233       231       237       234
       233       231       237       239       236       234       237       239
       241       246       248       250       241       246       248       251
       241       246       254       256       241       246       254       257
       243       241       246       248       243       241       246       254
       244       241       246       248       244       241       246       254
       245       241       246       248       245       241       246       254
       246       248       251       253       246       248       251       257
       246       254       257       251       246       254       257       259
       248       246       254       256       248       246       254       257
       248       251       257       254       248       251       257       259
       250       248       246       254       250       248       251       253
       250       248       251       257       251       248       246       254
       251       257       254       256       253       251       257       254
       253       251       257       259       256       254       257       259
       261       266       268       270       261       266       268       271
       261       266       274       276       261       266       274       277
       263       261       266       268       263       261       266       274
       264       261       266       268       264       261       266       274
       265       261       266       268       265       261       266       274
       266       268       271       273       266       268       271       277
       266       274       277       271       266       274       277       279
       268       266       274       276       268       266       274       277
       268       271       277       274       268       271       277       279
       270       268       266       274       270       268       271       273
       270       268       271       277       271       268       266       274
       271       277       274       276       273       271       277       274
       273       271       277       279       276       274       277       279
       281       286       288       290       281       286       288       291
       281       286       294       296       281       286       294       297
       283       281       286       288       283       281       286       294
       284       281       286       288       284       281       286       294
       285       281       286       288       285       281       286       294
       286       288       291       293       286       288       291       297
       286       294       297       291       286       294       297       299
       288       286       294       296       288       286       294       297
       288       291       297       294       288       291       297       299
       290       288       286       294       290       288       291       293
       290       288       291       297       291       288       286       294
       291       297       294       296       293       291       297       294
       293       291       297       299       296       294       297       299
       301       306       308       310       301       306       308       311
       301       306       314       316       301       306       314       317
       303       301       306       308       303       301       306       314
       304       301       306       308       304       301       306       314
       305       301       306       308       305       301       306       314
       306       308       311       313       306       308       311       317
       306       314       317       311       306       314       317       319
       308       306       314       316       308       306       314       317
       308       311       317       314       308       311       317       319
       310       308       306       314       310       308       311       313
       310       308       311       317       311       308       306       314
       311       317       314       316       313       311       317       314
       313       311       317       319       316       314       317       319
       321       326       328       330       321       326       328       331
       321       326       334       336       321       326       334       337
       323       321       326       328       323       321       326       334
       324       321       326       328       324       321       326       334
       325       321       326       328       325       321       326       334
       326       328       331       333       326       328       331       337
       326       334       337       331       326       334       337       339
       328       326       334       336       328       326       334       337
       328       331       337       334       328       331       337       339
       330       328       326       334       330       328       331       333
       330       328       331       337       331       328       326       334
       331       337       334       336       333       331       337       334
       333       331       337       339       336       334       337       339
       341       346       348       350       341       346       348       351
       341       346       354       356       341       346       354       357
       343       341       346       348       343       341       346       354
       344       341       346       348       344       341       346       354
       345       341       346       348       345       341       346       354
       346       348       351       353       346       348       351       357
       346       354       357       351       346       354       357       359
       348       346       354       356       348       346       354       357
       348       351       357       354       348       351       357       359
       350       348       346       354       350       348       351       353
       350       348       351       357       351       348       346       354
       351       357       354       356       353       351       357       354
       353       351       357       359       356       354       357       359
       361       366       368       370       361       366       368       371
       361       366       374       376       361       366       374       377
       363       361       366       368       363       361       366       374
       364       361       366       368       364       361       366       374
       365       361       366       368       365       361       366       374
       366       368       371       373       366       368       371       377
       366       374       377       371       366       374       377       379
       368       366       374       376       368       366       374       377
       368       371       377       374       368       371       377       379
       370       368       366       374       370       368       371       373
       370       368       371       377       371       368       366       374
       371       377       374       376       373       371       377       374
       373       371       377       379       376       374       377       379
       381       386       388       390       381       386       388       391
       381       386       394       396       381       386       394       397
       383       381       386       388       383       381       386       394
       384       381       386       388       384       381       386       394
       385       381       386       388       385       381       386       394
       386       388       391       393       386       388       391       397
       386       394       397       391       386       394       397       399
       388       386       394       396       388       386       394       397
       388       391       397       394       388       391       397       399
       390       388       386       394       390       388       391       393
       390       388       391       397       391       388       386       394
       391       397       394       396       393       391       397       394
       393       391       397       399       396       394       397       399
       401       406       408       410       401       406       408       411
       401       406       414       416       401       406       414       417
       403       401       406       408       403       401       406       414
       404       401       406       408       404       401       406       414
       405       401       406       408       405       401       406       414
       406       408       411       413       406       408       411       417
       406       414       417       411       406       414       417       419
       408       406       414       416       408       406       414       417
       408       411       417       414       408       411       417       419
       410       408       406       414       410       408       411       413
       410       408       411       417       411       408       406       414
       411       417       414       416       413       411       417       414
       413       411       417       419       416       414       417       419
       421       426       428       430       421       426       428       431
       421       426       434       436       421       426       434       437
       423       421       426       428       423       421       426       434
       424       421       426       428       424       421       426       434
       425       421       426       428       425       421       426       434
       426       428       431       433       426       428       431       437
       426       434       437       431       426       434       437       439
       428       426       434       436       428       426       434       437
       428       431       437       434       428       431       437       439
       430       428       426       434       430       428       431       433
       430       428       431       437       431       428       426       434
       431       437       434       436       433       431       437       434
       433       431       437       439       436       434       437       439
       441       446       448       450       441       446       448       451
       441       446       454       456       441       446       454       457
       443       441       446       448       443       441       446       454
       444       441       446       448       444       441       446       454
       445       441       446       448       445       441       446       454
       446       448       451       453       446       448       451       457
       446       454       457       451       446       454       457       459
       448       446       454       456       448       446       454       457
       448       451       457       454       448       451       457       459
       450       448       446       454       450       448       451       453
       450       448       451       457       451       448       446       454
       451       457       454       456       453       451       457       454
       453       451       457       459       456       454       457       459
       461       466       468       470       461       466       468       471
       461       466       474       476       461       466       474       477
       463       461       466       468       463       461       466       474
       464       461       466       468       464       461       466       474
       465       461       466       468       465       461       466       474
       466       468       471       473       466       468       471       477
       466       474       477       471       466       474       477       479
       468       466       474       476       468       466       474       477
       468       471       477       474       468       471       477       479
       470       468       466       474       470       468       471       473
       470       468       471       477       471       468       466       474
       471       477       474       476       473       471       477       474
       473       471       477       479       476       474       477       479
       481       486       488       490       481       486       488       491
       481       486       494       496       481       486       494       497
       483       481       486       488       483       481       486       494
       484       481       486       488       484       481       486       494
       485       481       486       488       485       481       486       494
       486       488       491       493       486       488       491       497
       486       494       497       491       486       494       497       499
       488       486       494       496       488       486       494       497
       488       491       497       494       488       491       497       499
       490       488       486       494       490       488       491       493
       490       488       491       497       491       488       486       494
       491       497       494       496       493       491       497       494
       493       491       497       499       496       494       497       499
       501       506       508       510       501       506       508       511
       501       506       514       516       501       506       514       517
       503       501       506       508       503       501       506       514
       504       501       506       508       504       501       506       514
       505       501       506       508       505       501       506       514
       506       508       511       513       506       508       511       517
       506       514       517       511       506       514       517       519
       508       506       514       516       508       506       514       517
       508       511       517       514       508       511       517       519
       510       508       506       514       510       508       511       513
       510       508       511       517       511       508       506       514
       511       517       514       516       513       511       517       514
       513       511       517       519       516       514       517       519
       521       526       528       530       521       526       528       531
       521       526       534       536       521       526       534       537
       523       521       526       528       523       521       526       534
       524       521       526       528       524       521       526       534
       525       521       526       528       525       521       526       534
       526       528       531       533       526       528       531       537
       526       534       537       531       526       534       537       539
       528       526       534       536       528       526       534       537
       528       531       537       534       528       531       537       539
       530       528       526       534       530       528       531       533
       530       528       531       537       531       528       526       534
       531       537       534       536       533       531       537       534
       533       531       537       539       536       534       537       539
       541       546       548       550       541       546       548       551
       541       546       554       556       541       546       554       557
       543       541       546       548       543       541       546       554
       544       541       546       548       544       541       546       554
       545       541       546       548       545       541       546       554
       546       548       551       553       546       548       551       557
       546       554       557       551       546       554       557       559
       548       546       554       556       548       546       554       557
       548       551       557       554       548       551       557       559
       550       548       546       554       550       548       551       553
       550       548       551       557       551       548       546       554
       551       557       554       556       553       551       557       554
       553       551       557       559       556       554       557       559
       561       566       568       570       561       566       568       571
       561       566       574       576       561       566       574       577
       563       561       566       568       563       561       566       574
       564       561       566       568       564       561       566       574
       565       561       566       568       565       561       566       574
       566       568       571       573       566       568       571       577
       566       574       577       571       566       574       577       579
       568       566       574       576       568       566       574       577
       568       571       577       574       568       571       577       579
       570       568       566       574       570       568       571       573
       570       568       571       577       571       568       566       574
       571       577       574       576       573       571       577       574
       573       571       577       579       576       574       577       579
       581       586       588       590       581       586       588       591
       581       586       594       596       581       586       594       597
       583       581       586       588       583       581       586       594
       584       581       586       588       584       581       586       594
       585       581       586       588       585       581       586       594
       586       588       591       593       586       588       591       597
       586       594       597       591       586       594       597       599
       588       586       594       596       588       586       594       597
       588       591       597       594       588       591       597       599
       590       588       586       594       590       588       591       593
       590       588       591       597       591       588       586       594
       591       597       594       596       593       591       597       594
       593       591       597       599       596       594       597       599
       601       606       608       610       601       606       608       611
       601       606       614       616       601       606       614       617
       603       601       606       608       603       601       606       614
       604       601       606       608       604       601       606       614
       605       601       606       608       605       601       606       614
       606       608       611       613       606       608       611       617
       606       614       617       611       606       614       617       619
       608       606       614       616       608       606       614       617
       608       611       617       614       608       611       617       619
       610       608       606       614       610       608       611       613
       610       608       611       617       611       608       606       614
       611       617       614       616       613       611       617       614
       613       611       617       619       616       614       617       619
       621       626       628       630       621       626       628       631
       621       626       634       636       621       626       634       637
       623       621       626       628       623       621       626       634
       624       621       626       628       624       621       626       634
       625       621       626       628       625       621       626       634
       626       628       631       633       626       628       631       637
       626       634       637       631       626       634       637       639
       628       626       634       636       628       626       634       637
       628       631       637       634       628       631       637       639
       630       628       626       634       630       628       631       633
       630       628       631       637       631       628       626       634
       631       637       634       636       633       631       637       634
       633       631       637       639       636       634       637       639
       641       646       648       650       641       646       648       651
       641       646       654       656       641       646       654       657
       643       641       646       648       643       641       646       654
       644       641       646       648       644       641       646       654
       645       641       646       648       645       641       646       654
       646       648       651       653       646       648       651       657
       646       654       657       651       646       654       657       659
       648       646       654       656       648       646       654       657
       648       651       657       654       648       651       657       659
       650       648       646       654       650       648       651       653
       650       648       651       657       651       648       646       654
       651       657       654       656       653       651       657       654
       653       651       657       659       656       654       657       659
       661       666       668       670       661       666       668       671
       661       666       674       676       661       666       674       677
       663       661       666       668       663       661       666       674
       664       661       666       668       664       661       666       674
       665       661       666       668       665       661       666       674
       666       668       671       673       666       668       671       677
       666       674       677       671       666       674       677       679
       668       666       674       676       668       666       674       677
       668       671       677       674       668       671       677       679
       670       668       666       674       670       668       671       673
       670       668       671       677       671       668       666       674
       671       677       674       676       673       671       677       674
       673       671       677       679       676       674       677       679
       681       686       688       690       681       686       688       691
       681       686       694       696       681       686       694       697
       683       681       686       688       683       681       686       694
       684       681       686       688       684       681       686       694
       685       681       686       688       685       681       686       694
       686       688       691       693       686       688       691       697
       686       694       697       691       686       694       697       699
       688       686       694       696       688       686       694       697
       688       691       697       694       688       691       697       699
       690       688       686       694       690       688       691       693
       690       688       691       697       691       688       686       694
       691       697       694       696       693       691       697       694
       693       691       697       699       696       694       697       699
       701       706       708       710       701       706       708       711
       701       706       714       716       701       706       714       717
       703       701       706       708       703       701       706       714
       704       701       706       708       704       701       706       714
       705       701       706       708       705       701       706       714
       706       708       711       713       706       708       711       717
       706       714       717       711       706       714       717       719
       708       706       714       716       708       706       714       717
       708       711       717       714       708       711       717       719
       710       708       706       714       710       708       711       713
       710       708       711       717       711       708       706       714
       711       717       714       716       713       711       717       714
       713       711       717       719       716       714       717       719
       721       726       728       730       721       726       728       731
       721       726       734       736       721       726       734       737
       723       721       726       728       723       721       726       734
       724       721       726       728       724       721       726       734
       725       721       726       728       725       721       726       734
       726       728       731       733       726       728       731       737
       726       734       737       731       726       734       737       739
       728       726       734       736       728       726       734       737
       728       731       737       734       728       731       737       739
       730       728       726       734       730       728       731       733
       730       728       731       737       731       728       726       734
       731       737       734       736       733       731       737       734
       733       731       737       739       736       734       737       739
       741       746       748       750       741       746       748       751
       741       746       754       756       741       746       754       757
       743       741       746       748       743       741       746       754
       744       741       746       748       744       741       746       754
       745       741       746       748       745       741       746       754
       746       748       751       753       746       748       751       757
       746       754       757       751       746       754       757       759
       748       746       754       756       748       746       754       757
       748       751       757       754       748       751       757       759
       750       748       746       754       750       748       751       753
       750       748       751       757       751       748       746       754
       751       757       754       756       753       751       757       754
       753       751       757       759       756       754       757       759
       761       766       768       770       761       766       768       771
       761       766       774       776       761       766       774       777
       763       761       766       768       763       761       766       774
       764       761       766       768       764       761       766       774
       765       761       766       768       765       761       766       774
       766       768       771       773       766       768       771       777
       766       774       777       771       766       774       777       779
       768       766       774       776       768       766       774       777
       768       771       777       774       768       771       777       779
       770       768       766       774       770       768       771       773
       770       768       771       777       771       768       766       774
       771       777       774       776       773       771       777       774
       773       771       777       779       776       774       777       779
       781       786       788       790       781       786       788       791
       781       786       794       796       781       786       794       797
       783       781       786       788       783       781       786       794
       784       781       786       788       784       781       786       794
       785       781       786       788       785       781       786       794
       786       788       791       793       786       788       791       797
       786       794       797       791       786       794       797       799
       788       786       794       796       788       786       794       797
       788       791       797       794       788       791       797       799
       790       788       786       794       790       788       791       793
       790       788       791       797       791       788       786       794
       791       797       794       796       793       791       797       794
       793       791       797       799       796       794       797       799
       801       806       808       810       801       806       808       811
       801       806       814       816       801       806       814       817
       803       801       806       808       803       801       806       814
       804       801       806       808       804       801       806       814
       805       801       806       808       805       801       806       814
       806       808       811       813       806       808       811       817
       806       814       817       811       806       814       817       819
       808       806       814       816       808       806       814       817
       808       811       817       814       808       811       817       819
       810       808       806       814       810       808       811       813
       810       808       811       817       811       808       806       814
       811       817       814       816       813       811       817       814
       813       811       817       819       816       814       817       819
       821       826       828       830       821       826       828       831
       821       826       834       836       821       826       834       837
       823       821       826       828       823       821       826       834
       824       821       826       828       824       821       826       834
       825       821       826       828       825       821       826       834
       826       828       831       833       826       828       831       837
       826       834       837       831       826       834       837       839
       828       826       834       836       828       826       834       837
       828       831       837       834       828       831       837       839
       830       828       826       834       830       828       831       833
       830       828       831       837       831       828       826       834
       831       837       834       836       833       831       837       834
       833       831       837       839       836       834       837       839
       841       846       848       850       841       846       848       851
       841       846       854       856       841       846       854       857
       843       841       846       848       843       841       846       854
       844       841       846       848       844       841       846       854
       845       841       846       848       845       841       846       854
       846       848       851       853       846       848       851       857
       846       854       857       851       846       854       857       859
       848       846       854       856       848       846       854       857
       848       851       857       854       848       851       857       859
       850       848       846       854       850       848       851       853
       850       848       851       857       851       848       846       854
       851       857       854       856       853       851       857       854
       853       851       857       859       856       854       857       859
       861       866       868       870       861       866       868       871
       861       866       874       876       861       866       874       877
       863       861       866       868       863       861       866       874
       864       861       866       868       864       861       866       874
       865       861       866       868       865       861       866       874
       866       868       871       873       866       868       871       877
       866       874       877       871       866       874       877       879
       868       866       874       876       868       866       874       877
       868       871       877       874       868       871       877       879
       870       868       866       874       870       868       871       873
       870       868       871       877       871       868       866       874
       871       877       874       876       873       871       877       874
       873       871       877       879       876       874       877       879
       881       886       888       890       881       886       888       891
       881       886       894       896       881       886       894       897
       883       881       886       888       883       881       886       894
       884       881       886       888       884       881       886       894
       885       881       886       888       885       881       886       894
       886       888       891       893       886       888       891       897
       886       894       897       891       886       894       897       899
       888       886       894       896       888       886       894       897
       888       891       897       894       888       891       897       899
       890       888       886       894       890       888       891       893
       890       888       891       897       891       888       886       894
       891       897       894       896       893       891       897       894
       893       891       897       899       896       894       897       899
       901       906       908       910       901       906       908       911
       901       906       914       916       901       906       914       917
       903       901       906       908       903       901       906       914
       904       901       906       908       904       901       906       914
       905       901       906       908       905       901       906       914
       906       908       911       913       906       908       911       917
       906       914       917       911       906       914       917       919
       908       906       914       916       908       906       914       917
       908       911       917       914       908       911       917       919
       910       908       906       914       910       908       911       913
       910       908       911       917       911       908       906       914
       911       917       914       916       913       911       917       914
       913       911       917       919       916       914       917       919
       921       926       928       930       921       926       928       931
       921       926       934       936       921       926       934       937
       923       921       926       928       923       921       926       934
       924       921       926       928       924       921       926       934
       925       921       926       928       925       921       926       934
       926       928       931       933       926       928       931       937
       926       934       937       931       926       934       937       939
       928       926       934       936       928       926       934       937
       928       931       937       934       928       931       937       939
       930       928       926       934       930       928       931       933
       930       928       931       937       931       928       926       934
       931       937       934       936       933       931       937       934
       933       931       937       939       936       934       937       939
       941       946       948       950       941       946       948       951
       941       946       954       956       941       946       954       957
       943       941       946       948       943       941       946       954
       944       941       946       948       944       941       946       954
       945       941       946       948       945       941       946       954
       946       948       951       953       946       948       951       957
       946       954       957       951       946       954       957       959
       948       946       954       956       948       946       954       957
       948       951       957       954       948       951       957       959
       950       948       946       954       950       948       951       953
       950       948       951       957       951       948       946       954
       951       957       954       956       953       951       957       954
       953       951       957       959       956       954       957       959
       961       966       968       970       961       966       968       971
       961       966       974       976       961       966       974       977
       963       961       966       968       963       961       966       974
       964       961       966       968       964       961       966       974
       965       961       966       968       965       961       966       974
       966       968       971       973       966       968       971       977
       966       974       977       971       966       974       977       979
       968       966       974       976       968       966       974       977
       968       971       977       974       968       971       977       979
       970       968       966       974       970       968       971       973
       970       968       971       977       971       968       966       974
       971       977       974       976       973       971       977       974
       973       971       977       979       976       974       977       979
       981       986       988       990       981       986       988       991
       981       986       994       996       981       986       994       997
       983       981       986       988       983       981       986       994
       984       981       986       988       984       981       986       994
       985       981       986       988       985       981       986       994
       986       988       991       993       986       988       991       997
       986       994       997       991       986       994       997       999
       988       986       994       996       988       986       994       997
       988       991       997       994       988       991       997       999
       990       988       986       994       990       988       991       993
       990       988       991       997       991       988       986       994
       991       997       994       996       993       991       997       994
       993       991       997       999       996       994       997       999
      1001      1006      1008      1010      1001      1006      1008      1011
      1001      1006      1014      1016      1001      1006      1014      1017
      1003      1001      1006      1008      1003      1001      1006      1014
      1004      1001      1006      1008      1004      1001      1006      1014
      1005      1001      1006      1008      1005      1001      1006      1014
      1006      1008      1011      1013      1006      1008      1011      1017
      1006      1014      1017      1011      1006      1014      1017      1019
      1008      1006      1014      1016      1008      1006      1014      1017
      1008      1011      1017      1014      1008      1011      1017      1019
      1010      1008      1006      1014      1010      1008      1011      1013
      1010      1008      1011      1017      1011      1008      1006      1014
      1011      1017      1014      1016      1013      1011      1017      1014
      1013      1011      1017      1019      1016      1014      1017      1019
      1021      1026      1028      1030      1021      1026      1028      1031
      1021      1026      1034      1036      1021      1026      1034      1037
      1023      1021      1026      1028      1023      1021      1026      1034
      1024      1021      1026      1028      1024      1021      1026      1034
      1025      1021      1026      1028      1025      1021      1026      1034
      1026      1028      1031      1033      1026      1028      1031      1037
      1026      1034      1037      1031      1026      1034      1037      1039
      1028      1026      1034      1036      1028      1026      1034      1037
      1028      1031      1037      1034      1028      1031      1037      1039
      1030      1028      1026      1034      1030      1028      1031      1033
      1030      1028      1031      1037      1031      1028      1026      1034
      1031      1037      1034      1036      1033      1031      1037      1034
      1033      1031      1037      1039      1036      1034      1037      1039
      1041      1046      1048      1050      1041      1046      1048      1051
      1041      1046      1054      1056      1041      1046      1054      1057
      1043      1041      1046      1048      1043      1041      1046      1054
      1044      1041      1046      1048      1044      1041      1046      1054
      1045      1041      1046      1048      1045      1041      1046      1054
      1046      1048      1051      1053      1046      1048      1051      1057
      1046      1054      1057      1051      1046      1054      1057      1059
      1048      1046      1054      1056      1048      1046      1054      1057
      1048      1051      1057      1054      1048      1051      1057      1059
      1050      1048      1046      1054      1050      1048      1051      1053
      1050      1048      1051      1057      1051      1048      1046      1054
      1051      1057      1054      1056      1053      1051      1057      1054
      1053      1051      1057      1059      1056      1054      1057      1059
      1061      1066      1068      1070      1061      1066      1068      1071
      1061      1066      1074      1076      1061      1066      1074      1077
      1063      1061      1066      1068      1063      1061      1066      1074
      1064      1061      1066      1068      1064      1061      1066      1074
      1065      1061      1066      1068      1065      1061      1066      1074
      1066      1068      1071      1073      1066      1068      1071      1077
      1066      1074      1077      1071      1066      1074      1077      1079
      1068      1066      1074      1076      1068      1066      1074      1077
      1068      1071      1077      1074      1068      1071      1077      1079
      1070      1068      1066      1074      1070      1068      1071      1073
      1070      1068      1071      1077      1071      1068      1066      1074
      1071      1077      1074      1076      1073      1071      1077      1074
      1073      1071      1077      1079      1076      1074      1077      1079
      1081      1086      1088      1090      1081      1086      1088      1091
      1081      1086      1094      1096      1081      1086      1094      1097
      1083      1081      1086      1088      1083      1081      1086      1094
      1084      1081      1086      1088      1084      1081      1086      1094
      1085      1081      1086      1088      1085      1081      1086      1094
      1086      1088      1091      1093      1086      1088      1091      1097
      1086      1094      1097      1091      1086      1094      1097      1099
      1088      1086      1094      1096      1088      1086      1094      1097
      1088      1091      1097      1094      1088      1091      1097      1099
      1090      1088      1086      1094      1090      1088      1091      1093
      1090      1088      1091      1097      1091      1088      1086      1094
      1091      1097      1094      1096      1093      1091      1097      1094
      1093      1091      1097      1099      1096      1094      1097      1099
      1101      1106      1108      1110      1101      1106      1108      1111
      1101      1106      1114      1116      1101      1106      1114      1117
      1103      1101      1106      1108      1103      1101      1106      1114
      1104      1101      1106      1108      1104      1101      1106      1114
      1105      1101      1106      1108      1105      1101      1106      1114
      1106      1108      1111      1113      1106      1108      1111      1117
      1106      1114      1117      1111      1106      1114      1117      1119
      1108      1106      1114      1116      1108      1106      1114      1117
      1108      1111      1117      1114      1108      1111      1117      1119
      1110      1108      1106      1114      1110      1108      1111      1113
      1110      1108      1111      1117      1111      1108      1106      1114
      1111      1117      1114      1116      1113      1111      1117      1114
      1113      1111      1117      1119      1116      1114      1117      1119
      1121      1126      1128      1130      1121      1126      1128      1131
      1121      1126      1134      1136      1121      1126      1134      1137
      1123      1121      1126      1128      1123      1121      1126      1134
      1124      1121      1126      1128      1124      1121      1126      1134
      1125      1121      1126      1128      1125      1121      1126      1134
      1126      1128      1131      1133      1126      1128      1131      1137
      1126      1134      1137      1131      1126      1134      1137      1139
      1128      1126      1134      1136      1128      1126      1134      1137
      1128      1131      1137      1134      1128      1131      1137      1139
      1130      1128      1126      1134      1130      1128      1131      1133
      1130      1128      1131      1137      1131      1128      1126      1134
      1131      1137      1134      1136      1133      1131      1137      1134
      1133      1131      1137      1139      1136      1134      1137      1139
      1141      1146      1148      1150      1141      1146      1148      1151
      1141      1146      1154      1156      1141      1146      1154      1157
      1143      1141      1146      1148      1143      1141      1146      1154
      1144      1141      1146      1148      1144      1141      1146      1154
      1145      1141      1146      1148      1145      1141      1146      1154
      1146      1148      1151      1153      1146      1148      1151      1157
      1146      1154      1157      1151      1146      1154      1157      1159
      1148      1146      1154      1156      1148      1146      1154      1157
      1148      1151      1157      1154      1148      1151      1157      1159
      1150      1148      1146      1154      1150      1148      1151      1153
      1150      1148      1151      1157      1151      1148      1146      1154
      1151      1157      1154      1156      1153      1151      1157      1154
      1153      1151      1157      1159      1156      1154      1157      1159
      1161      1166      1168      1170      1161      1166      1168      1171
      1161      1166      1174      1176      1161      1166      1174      1177
      1163      1161      1166      1168      1163      1161      1166      1174
      1164      1161      1166      1168      1164      1161      1166      1174
      1165      1161      1166      1168      1165      1161      1166      1174
      1166      1168      1171      1173      1166      1168      1171      1177
      1166      1174      1177      1171      1166      1174      1177      1179
      1168      1166      1174      1176      1168      1166      1174      1177
      1168      1171      1177      1174      1168      1171      1177      1179
      1170      1168      1166      1174      1170      1168      1171      1173
      1170      1168      1171      1177      1171      1168      1166      1174
      1171      1177      1174      1176      1173      1171      1177      1174
      1173      1171      1177      1179      1176      1174      1177      1179
      1181      1186      1188      1190      1181      1186      1188      1191
      1181      1186      1194      1196      1181      1186      1194      1197
      1183      1181      1186      1188      1183      1181      1186      1194
      1184      1181      1186      1188      1184      1181      1186      1194
      1185      1181      1186      1188      1185      1181      1186      1194
      1186      1188      1191      1193      1186      1188      1191      1197
      1186      1194      1197      1191      1186      1194      1197      1199
      1188      1186      1194      1196      1188      1186      1194      1197
      1188      1191      1197      1194      1188      1191      1197      1199
      1190      1188      1186      1194      1190      1188      1191      1193
      1190      1188      1191      1197      1191      1188      1186      1194
      1191      1197      1194      1196      1193      1191      1197      1194
      1193      1191      1197      1199      1196      1194      1197      1199
      1201      1206      1208      1210      1201      1206      1208      1211
      1201      1206      1214      1216      1201      1206      1214      1217
      1203      1201      1206      1208      1203      1201      1206      1214
      1204      1201      1206      1208      1204      1201      1206      1214
      1205      1201      1206      1208      1205      1201      1206      1214
      1206      1208      1211      1213      1206      1208      1211      1217
      1206      1214      1217      1211      1206      1214      1217      1219
      1208      1206      1214      1216      1208      1206      1214      1217
      1208      1211      1217      1214      1208      1211      1217      1219
      1210      1208      1206      1214      1210      1208      1211      1213
      1210      1208      1211      1217      1211      1208      1206      1214
      1211      1217      1214      1216      1213      1211      1217      1214
      1213      1211      1217      1219      1216      1214      1217      1219
      1221      1226      1228      1230      1221      1226      1228      1231
      1221      1226      1234      1236      1221      1226      1234      1237
      1223      1221      1226      1228      1223      1221      1226      1234
      1224      1221      1226      1228      1224      1221      1226      1234
      1225      1221      1226      1228      1225      1221      1226      1234
      1226      1228      1231      1233      1226      1228      1231      1237
      1226      1234      1237      1231      1226      1234      1237      1239
      1228      1226      1234      1236      1228      1226      1234      1237
      1228      1231      1237      1234      1228      1231      1237      1239
      1230      1228      1226      1234      1230      1228      1231      1233
      1230      1228      1231      1237      1231      1228      1226      1234
      1231      1237      1234      1236      1233      1231      1237      1234
      1233      1231      1237      1239      1236      1234      1237      1239
      1241      1246      1248      1250      1241      1246      1248      1251
      1241      1246      1254      1256      1241      1246      1254      1257
      1243      1241      1246      1248      1243      1241      1246      1254
      1244      1241      1246      1248      1244      1241      1246      1254
      1245      1241      1246      1248      1245      1241      1246      1254
      1246      1248      1251      1253      1246      1248      1251      1257
      1246      1254      1257      1251      1246      1254      1257      1259
      1248      1246      1254      1256      1248      1246      1254      1257
      1248      1251      1257      1254      1248      1251      1257      1259
      1250      1248      1246      1254      1250      1248      1251      1253
      1250      1248      1251      1257      1251      1248      1246      1254
      1251      1257      1254      1256      1253      1251      1257      1254
      1253      1251      1257      1259      1256      1254      1257      1259
      1261      1266      1268      1270      1261      1266      1268      1271
      1261      1266      1274      1276      1261      1266      1274      1277
      1263      1261      1266      1268      1263      1261      1266      1274
      1264      1261      1266      1268      1264      1261      1266      1274
      1265      1261      1266      1268      1265      1261      1266      1274
      1266      1268      1271      1273      1266      1268      1271      1277
      1266      1274      1277      1271      1266      1274      1277      1279
      1268      1266      1274      1276      1268      1266      1274      1277
      1268      1271      1277      1274      1268      1271      1277      1279
      1270      1268      1266      1274      1270      1268      1271      1273
      1270      1268      1271      1277      1271      1268      1266      1274
      1271      1277      1274      1276      1273      1271      1277      1274
      1273      1271      1277      1279      1276      1274      1277      1279
      1281      1286      1288      1290      1281      1286      1288      1291
      1281      1286      1294      1296      1281      1286      1294      1297
      1283      1281      1286      1288      1283      1281      1286      1294
      1284      1281      1286      1288      1284      1281      1286      1294
      1285      1281      1286      1288      1285      1281      1286      1294
      1286      1288      1291      1293      1286      1288      1291      1297
      1286      1294      1297      1291      1286      1294      1297      1299
      1288      1286      1294      1296      1288      1286      1294      1297
      1288      1291      1297      1294      1288      1291      1297      1299
      1290      1288      1286      1294      1290      1288      1291      1293
      1290      1288      1291      1297      1291      1288      1286      1294
      1291      1297      1294      1296      1293      1291      1297      1294
      1293      1291      1297      1299      1296      1294      1297      1299
      1301      1306      1308      1310      1301      1306      1308      1311
      1301      1306      1314      1316      1301      1306      1314      1317
      1303      1301      1306      1308      1303      1301      1306      1314
      1304      1301      1306      1308      1304      1301      1306      1314
      1305      1301      1306      1308      1305      1301      1306      1314
      1306      1308      1311      1313      1306      1308      1311      1317
      1306      1314      1317      1311      1306      1314      1317      1319
      1308      1306      1314      1316      1308      1306      1314      1317
      1308      1311      1317      1314      1308      1311      1317      1319
      1310      1308      1306      1314      1310      1308      1311      1313
      1310      1308      1311      1317      1311      1308      1306      1314
      1311      1317      1314      1316      1313      1311      1317      1314
      1313      1311      1317      1319      1316      1314      1317      1319
      1321      1326      1328      1330      1321      1326      1328      1331
      1321      1326      1334      1336      1321      1326      1334      1337
      1323      1321      1326      1328      1323      1321      1326      1334
      1324      1321      1326      1328      1324      1321      1326      1334
      1325      1321      1326      1328      1325      1321      1326      1334
      1326      1328      1331      1333      1326      1328      1331      1337
      1326      1334      1337      1331      1326      1334      1337      1339
      1328      1326      1334      1336      1328      1326      1334      1337
      1328      1331      1337      1334      1328      1331      1337      1339
      1330      1328      1326      1334      1330      1328      1331      1333
      1330      1328      1331      1337      1331      1328      1326      1334
      1331      1337      1334      1336      1333      1331      1337      1334
      1333      1331      1337      1339      1336      1334      1337      1339
      1341      1346      1348      1350      1341      1346      1348      1351
      1341      1346      1354      1356      1341      1346      1354      1357
      1343      1341      1346      1348      1343      1341      1346      1354
      1344      1341      1346      1348      1344      1341      1346      1354
      1345      1341      1346      1348      1345      1341      1346      1354
      1346      1348      1351      1353      1346      1348      1351      1357
      1346      1354      1357      1351      1346      1354      1357      1359
      1348      1346      1354      1356      1348      1346      1354      1357
      1348      1351      1357      1354      1348      1351      1357      1359
      1350      1348      1346      1354      1350      1348      1351      1353
      1350      1348      1351      1357      1351      1348      1346      1354
      1351      1357      1354      1356      1353      1351      1357      1354
      1353      1351      1357      1359      1356      1354      1357      1359
      1361      1366      1368      1370      1361      1366      1368      1371
      1361      1366      1374      1376      1361      1366      1374      1377
      1363      1361      1366      1368      1363      1361      1366      1374
      1364      1361      1366      1368      1364      1361      1366      1374
      1365      1361      1366      1368      1365      1361      1366      1374
      1366      1368      1371      1373      1366      1368      1371      1377
      1366      1374      1377      1371      1366      1374      1377      1379
      1368      1366      1374      1376      1368      1366      1374      1377
      1368      1371      1377      1374      1368      1371      1377      1379
      1370      1368      1366      1374      1370      1368      1371      1373
      1370      1368      1371      1377      1371      1368      1366      1374
      1371      1377      1374      1376      1373      1371      1377      1374
      1373      1371      1377      1379      1376      1374      1377      1379
      1381      1386      1388      1390      1381      1386      1388      1391
      1381      1386      1394      1396      1381      1386      1394      1397
      1383      1381      1386      1388      1383      1381      1386      1394
      1384      1381      1386      1388      1384      1381      1386      1394
      1385      1381      1386      1388      1385      1381      1386      1394
      1386      1388      1391      1393      1386      1388      1391      1397
      1386      1394      1397      1391      1386      1394      1397      1399
      1388      1386      1394      1396      1388      1386      1394      1397
      1388      1391      1397      1394      1388      1391      1397      1399
      1390      1388      1386      1394      1390      1388      1391      1393
      1390      1388      1391      1397      1391      1388      1386      1394
      1391      1397      1394      1396      1393      1391      1397      1394
      1393      1391      1397      1399      1396      1394      1397      1399
      1401      1406      1408      1410      1401      1406      1408      1411
      1401      1406      1414      1416      1401      1406      1414      1417
      1403      1401      1406      1408      1403      1401      1406      1414
      1404      1401      1406      1408      1404      1401      1406      1414
      1405      1401      1406      1408      1405      1401      1406      1414
      1406      1408      1411      1413      1406      1408      1411      1417
      1406      1414      1417      1411      1406      1414      1417      1419
      1408      1406      1414      1416      1408      1406      1414      1417
      1408      1411      1417      1414      1408      1411      1417      1419
      1410      1408      1406      1414      1410      1408      1411      1413
      1410      1408      1411      1417      1411      1408      1406      1414
      1411      1417      1414      1416      1413      1411      1417      1414
      1413      1411      1417      1419      1416      1414      1417      1419
      1421      1426      1428      1430      1421      1426      1428      1431
      1421      1426      1434      1436      1421      1426      1434      1437
      1423      1421      1426      1428      1423      1421      1426      1434
      1424      1421      1426      1428      1424      1421      1426      1434
      1425      1421      1426      1428      1425      1421      1426      1434
      1426      1428      1431      1433      1426      1428      1431      1437
      1426      1434      1437      1431      1426      1434      1437      1439
      1428      1426      1434      1436      1428      1426      1434      1437
      1428      1431      1437      1434      1428      1431      1437      1439
      1430      1428      1426      1434      1430      1428      1431      1433
      1430      1428      1431      1437      1431      1428      1426      1434
      1431      1437      1434      1436      1433      1431      1437      1434
      1433      1431      1437      1439      1436      1434      1437      1439
      1441      1446      1448      1450      1441      1446      1448      1451
      1441      1446      1454      1456      1441      1446      1454      1457
      1443      1441      1446      1448      1443      1441      1446      1454
      1444      1441      1446      1448      1444      1441      1446      1454
      1445      1441      1446      1448      1445      1441      1446      1454
      1446      1448      1451      1453      1446      1448      1451      1457
      1446      1454      1457      1451      1446      1454      1457      1459
      1448      1446      1454      1456      1448      1446      1454      1457
      1448      1451      1457      1454      1448      1451      1457      1459
      1450      1448      1446      1454      1450      1448      1451      1453
      1450      1448      1451      1457      1451      1448      1446      1454
      1451      1457      1454      1456      1453      1451      1457      1454
      1453      1451      1457      1459      1456      1454      1457      1459
      1461      1466      1468      1470      1461      1466      1468      1471
      1461      1466      1474      1476      1461      1466      1474      1477
      1463      1461      1466      1468      1463      1461      1466      1474
      1464      1461      1466      1468      1464      1461      1466      1474
      1465      1461      1466      1468      1465      1461      1466      1474
      1466      1468      1471      1473      1466      1468      1471      1477
      1466      1474      1477      1471      1466      1474      1477      1479
      1468      1466      1474      1476      1468      1466      1474      1477
      1468      1471      1477      1474      1468      1471      1477      1479
      1470      1468      1466      1474      1470      1468      1471      1473
      1470      1468      1471      1477      1471      1468      1466      1474
      1471      1477      1474      1476      1473      1471      1477      1474
      1473      1471      1477      1479      1476      1474      1477      1479
      1481      1486      1488      1490      1481      1486      1488      1491
      1481      1486      1494      1496      1481      1486      1494      1497
      1483      1481      1486      1488      1483      1481      1486      1494
      1484      1481      1486      1488      1484      1481      1486      1494
      1485      1481      1486      1488      1485      1481      1486      1494
      1486      1488      1491      1493      1486      1488      1491      1497
      1486      1494      1497      1491      1486      1494      1497      1499
      1488      1486      1494      1496      1488      1486      1494      1497
      1488      1491      1497      1494      1488      1491      1497      1499
      1490      1488      1486      1494      1490      1488      1491      1493
      1490      1488      1491      1497      1491      1488      1486      1494
      1491      1497      1494      1496      1493      1491      1497      1494
      1493      1491      1497      1499      1496      1494      1497      1499
      1501      1506      1508      1510      1501      1506      1508      1511
      1501      1506      1514      1516      1501      1506      1514      1517
      1503      1501      1506      1508      1503      1501      1506      1514
      1504      1501      1506      1508      1504      1501      1506      1514
      1505      1501      1506      1508      1505      1501      1506      1514
      1506      1508      1511      1513      1506      1508      1511      1517
      1506      1514      1517      1511      1506      1514      1517      1519
      1508      1506      1514      1516      1508      1506      1514      1517
      1508      1511      1517      1514      1508      1511      1517      1519
      1510      1508      1506      1514      1510      1508      1511      1513
      1510      1508      1511      1517      1511      1508      1506      1514
      1511      1517      1514      1516      1513      1511      1517      1514
      1513      1511      1517      1519      1516      1514      1517      1519
      1521      1526      1528      1530      1521      1526      1528      1531
      1521      1526      1534      1536      1521      1526      1534      1537
      1523      1521      1526      1528      1523      1521      1526      1534
      1524      1521      1526      1528      1524      1521      1526      1534
      1525      1521      1526      1528      1525      1521      1526      1534
      1526      1528      1531      1533      1526      1528      1531      1537
      1526      1534      1537      1531      1526      1534      1537      1539
      1528      1526      1534      1536      1528      1526      1534      1537
      1528      1531      1537      1534      1528      1531      1537      1539
      1530      1528      1526      1534      1530      1528      1531      1533
      1530      1528      1531      1537      1531      1528      1526      1534
      1531      1537      1534      1536      1533      1531      1537      1534
      1533      1531      1537      1539      1536      1534      1537      1539
      1541      1546      1548      1550      1541      1546      1548      1551
      1541      1546      1554      1556      1541      1546      1554      1557
      1543      1541      1546      1548      1543      1541      1546      1554
      1544      1541      1546      1548      1544      1541      1546      1554
      1545      1541      1546      1548      1545      1541      1546      1554
      1546      1548      1551      1553      1546      1548      1551      1557
      1546      1554      1557      1551      1546      1554      1557      1559
      1548      1546      1554      1556      1548      1546      1554      1557
      1548      1551      1557      1554      1548      1551      1557      1559
      1550      1548      1546      1554      1550      1548      1551      1553
      1550      1548      1551      1557      1551      1548      1546      1554
      1551      1557      1554      1556      1553      1551      1557      1554
      1553      1551      1557      1559      1556      1554      1557      1559
      1561      1566      1568      1570      1561      1566      1568      1571
      1561      1566      1574      1576      1561      1566      1574      1577
      1563      1561      1566      1568      1563      1561      1566      1574
      1564      1561      1566      1568      1564      1561      1566      1574
      1565      1561      1566      1568      1565      1561      1566      1574
      1566      1568      1571      1573      1566      1568      1571      1577
      1566      1574      1577      1571      1566      1574      1577      1579
      1568      1566      1574      1576      1568      1566      1574      1577
      1568      1571      1577      1574      1568      1571      1577      1579
      1570      1568      1566      1574      1570      1568      1571      1573
      1570      1568      1571      1577      1571      1568      1566      1574
      1571      1577      1574      1576      1573      1571      1577      1574
      1573      1571      1577      1579      1576      1574      1577      1579
      1581      1586      1588      1590      1581      1586      1588      1591
      1581      1586      1594      1596      1581      1586      1594      1597
      1583      1581      1586      1588      1583      1581      1586      1594
      1584      1581      1586      1588      1584      1581      1586      1594
      1585      1581      1586      1588      1585      1581      1586      1594
      1586      1588      1591      1593      1586      1588      1591      1597
      1586      1594      1597      1591      1586      1594      1597      1599
      1588      1586      1594      1596      1588      1586      1594      1597
      1588      1591      1597      1594      1588      1591      1597      1599
      1590      1588      1586      1594      1590      1588      1591      1593
      1590      1588      1591      1597      1591      1588      1586      1594
      1591      1597      1594      1596      1593      1591      1597      1594
      1593      1591      1597      1599      1596      1594      1597      1599
      1601      1606      1608      1610      1601      1606      1608      1611
      1601      1606      1614      1616      1601      1606      1614      1617
      1603      1601      1606      1608      1603      1601      1606      1614
      1604      1601      1606      1608      1604      1601      1606      1614
      1605      1601      1606      1608      1605      1601      1606      1614
      1606      1608      1611      1613      1606      1608      1611      1617
      1606      1614      1617      1611      1606      1614      1617      1619
      1608      1606      1614      1616      1608      1606      1614      1617
      1608      1611      1617      1614      1608      1611      1617      1619
      1610      1608      1606      1614      1610      1608      1611      1613
      1610      1608      1611      1617      1611      1608      1606      1614
      1611      1617      1614      1616      1613      1611      1617      1614
      1613      1611      1617      1619      1616      1614      1617      1619
      1621      1626      1628      1630      1621      1626      1628      1631
      1621      1626      1634      1636      1621      1626      1634      1637
      1623      1621      1626      1628      1623      1621      1626      1634
      1624      1621      1626      1628      1624      1621      1626      1634
      1625      1621      1626      1628      1625      1621      1626      1634
      1626      1628      1631      1633      1626      1628      1631      1637
      1626      1634      1637      1631      1626      1634      1637      1639
      1628      1626      1634      1636      1628      1626      1634      1637
      1628      1631      1637      1634      1628      1631      1637      1639
      1630      1628      1626      1634      1630      1628      1631      1633
      1630      1628      1631      1637      1631      1628      1626      1634
      1631      1637      1634      1636      1633      1631      1637      1634
      1633      1631      1637      1639      1636      1634      1637      1639
      1641      1646      1648      1650      1641      1646      1648      1651
      1641      1646      1654      1656      1641      1646      1654      1657
      1643      1641      1646      1648      1643      1641      1646      1654
      1644      1641      1646      1648      1644      1641      1646      1654
      1645      1641      1646      1648      1645      1641      1646      1654
      1646      1648      1651      1653      1646      1648      1651      1657
      1646      1654      1657      1651      1646      1654      1657      1659
      1648      1646      1654      1656      1648      1646      1654      1657
      1648      1651      1657      1654      1648      1651      1657      1659
      1650      1648      1646      1654      1650      1648      1651      1653
      1650      1648      1651      1657      1651      1648      1646      1654
      1651      1657      1654      1656      1653      1651      1657      1654
      1653      1651      1657      1659      1656      1654      1657      1659
      1661      1666      1668      1670      1661      1666      1668      1671
      1661      1666      1674      1676      1661      1666      1674      1677
      1663      1661      1666      1668      1663      1661      1666      1674
      1664      1661      1666      1668      1664      1661      1666      1674
      1665      1661      1666      1668      1665      1661      1666      1674
      1666      1668      1671      1673      1666      1668      1671      1677
      1666      1674      1677      1671      1666      1674      1677      1679
      1668      1666      1674      1676      1668      1666      1674      1677
      1668      1671      1677      1674      1668      1671      1677      1679
      1670      1668      1666      1674      1670      1668      1671      1673
      1670      1668      1671      1677      1671      1668      1666      1674
      1671      1677      1674      1676      1673      1671      1677      1674
      1673      1671      1677      1679      1676      1674      1677      1679
      1681      1686      1688      1690      1681      1686      1688      1691
      1681      1686      1694      1696      1681      1686      1694      1697
      1683      1681      1686      1688      1683      1681      1686      1694
      1684      1681      1686      1688      1684      1681      1686      1694
      1685      1681      1686      1688      1685      1681      1686      1694
      1686      1688      1691      1693      1686      1688      1691      1697
      1686      1694      1697      1691      1686      1694      1697      1699
      1688      1686      1694      1696      1688      1686      1694      1697
      1688      1691      1697      1694      1688      1691      1697      1699
      1690      1688      1686      1694      1690      1688      1691      1693
      1690      1688      1691      1697      1691      1688      1686      1694
      1691      1697      1694      1696      1693      1691      1697      1694
      1693      1691      1697      1699      1696      1694      1697      1699
      1701      1706      1708      1710      1701      1706      1708      1711
      1701      1706      1714      1716      1701      1706      1714      1717
      1703      1701      1706      1708      1703      1701      1706      1714
      1704      1701      1706      1708      1704      1701      1706      1714
      1705      1701      1706      1708      1705      1701      1706      1714
      1706      1708      1711      1713      1706      1708      1711      1717
      1706      1714      1717      1711      1706      1714      1717      1719
      1708      1706      1714      1716      1708      1706      1714      1717
      1708      1711      1717      1714      1708      1711      1717      1719
      1710      1708      1706      1714      1710      1708      1711      1713
      1710      1708      1711      1717      1711      1708      1706      1714
      1711      1717      1714      1716      1713      1711      1717      1714
      1713      1711      1717      1719      1716      1714      1717      1719
      1721      1726      1728      1730      1721      1726      1728      1731
      1721      1726      1734      1736      1721      1726      1734      1737
      1723      1721      1726      1728      1723      1721      1726      1734
      1724      1721      1726      1728      1724      1721      1726      1734
      1725      1721      1726      1728      1725      1721      1726      1734
      1726      1728      1731      1733      1726      1728      1731      1737
      1726      1734      1737      1731      1726      1734      1737      1739
      1728      1726      1734      1736      1728      1726      1734      1737
      1728      1731      1737      1734      1728      1731      1737      1739
      1730      1728      1726      1734      1730      1728      1731      1733
      1730      1728      1731      1737      1731      1728      1726      1734
      1731      1737      1734      1736      1733      1731      1737      1734
      1733      1731      1737      1739      1736      1734      1737      1739
      1741      1746      1748      1750      1741      1746      1748      1751
      1741      1746      1754      1756      1741      1746      1754      1757
      1743      1741      1746      1748      1743      1741      1746      1754
      1744      1741      1746      1748      1744      1741      1746      1754
      1745      1741      1746      1748      1745      1741      1746      1754
      1746      1748      1751      1753      1746      1748      1751      1757
      1746      1754      1757      1751      1746      1754      1757      1759
      1748      1746      1754      1756      1748      1746      1754      1757
      1748      1751      1757      1754      1748      1751      1757      1759
      1750      1748      1746      1754      1750      1748      1751      1753
      1750      1748      1751      1757      1751      1748      1746      1754
      1751      1757      1754      1756      1753      1751      1757      1754
      1753      1751      1757      1759      1756      1754      1757      1759
      1761      1766      1768      1770      1761      1766      1768      1771
      1761      1766      1774      1776      1761      1766      1774      1777
      1763      1761      1766      1768      1763      1761      1766      1774
      1764      1761      1766      1768      1764      1761      1766      1774
      1765      1761      1766      1768      1765      1761      1766      1774
      1766      1768      1771      1773      1766      1768      1771      1777
      1766      1774      1777      1771      1766      1774      1777      1779
      1768      1766      1774      1776      1768      1766      1774      1777
      1768      1771      1777      1774      1768      1771      1777      1779
      1770      1768      1766      1774      1770      1768      1771      1773
      1770      1768      1771      1777      1771      1768      1766      1774
      1771      1777      1774      1776      1773      1771      1777      1774
      1773      1771      1777      1779      1776      1774      1777      1779
      1781      1786      1788      1790      1781      1786      1788      1791
      1781      1786      1794      1796      1781      1786      1794      1797
      1783      1781      1786      1788      1783      1781      1786      1794
      1784      1781      1786      1788      1784      1781      1786      1794
      1785      1781      1786      1788      1785      1781      1786      1794
      1786      1788      1791      1793      1786      1788      1791      1797
      1786      1794      1797      1791      1786      1794      1797      1799
      1788      1786      1794      1796      1788      1786      1794      1797
      1788      1791      1797      1794      1788      1791      1797      1799
      1790      1788      1786      1794      1790      1788      1791      1793
      1790      1788      1791      1797      1791      1788      1786      1794
      1791      1797      1794      1796      1793      1791      1797      1794
      1793      1791      1797      1799      1796      1794      1797      1799
      1801      1806      1808      1810      1801      1806      1808      1811
      1801      1806      1814      1816      1801      1806      1814      1817
      1803      1801      1806      1808      1803      1801      1806      1814
      1804      1801      1806      1808      1804      1801      1806      1814
      1805      1801      1806      1808      1805      1801      1806      1814
      1806      1808      1811      1813      1806      1808      1811      1817
      1806      1814      1817      1811      1806      1814      1817      1819
      1808      1806      1814      1816      1808      1806      1814      1817
      1808      1811      1817      1814      1808      1811      1817      1819
      1810      1808      1806      1814      1810      1808      1811      1813
      1810      1808      1811      1817      1811      1808      1806      1814
      1811      1817      1814      1816      1813      1811      1817      1814
      1813      1811      1817      1819      1816      1814      1817      1819
      1821      1826      1828      1830      1821      1826      1828      1831
      1821      1826      1834      1836      1821      1826      1834      1837
      1823      1821      1826      1828      1823      1821      1826      1834
      1824      1821      1826      1828      1824      1821      1826      1834
      1825      1821      1826      1828      1825      1821      1826      1834
      1826      1828      1831      1833      1826      1828      1831      1837
      1826      1834      1837      1831      1826      1834      1837      1839
      1828      1826      1834      1836      1828      1826      1834      1837
      1828      1831      1837      1834      1828      1831      1837      1839
      1830      1828      1826      1834      1830      1828      1831      1833
      1830      1828      1831      1837      1831      1828      1826      1834
      1831      1837      1834      1836      1833      1831      1837      1834
      1833      1831      1837      1839      1836      1834      1837      1839
      1841      1846      1848      1850      1841      1846      1848      1851
      1841      1846      1854      1856      1841      1846      1854      1857
      1843      1841      1846      1848      1843      1841      1846      1854
      1844      1841      1846      1848      1844      1841      1846      1854
      1845      1841      1846      1848      1845      1841      1846      1854
      1846      1848      1851      1853      1846      1848      1851      1857
      1846      1854      1857      1851      1846      1854      1857      1859
      1848      1846      1854      1856      1848      1846      1854      1857
      1848      1851      1857      1854      1848      1851      1857      1859
      1850      1848      1846      1854      1850      1848      1851      1853
      1850      1848      1851      1857      1851      1848      1846      1854
      1851      1857      1854      1856      1853      1851      1857      1854
      1853      1851      1857      1859      1856      1854      1857      1859
      1861      1866      1868      1870      1861      1866      1868      1871
      1861      1866      1874      1876      1861      1866      1874      1877
      1863      1861      1866      1868      1863      1861      1866      1874
      1864      1861      1866      1868      1864      1861      1866      1874
      1865      1861      1866      1868      1865      1861      1866      1874
      1866      1868      1871      1873      1866      1868      1871      1877
      1866      1874      1877      1871      1866      1874      1877      1879
      1868      1866      1874      1876      1868      1866      1874      1877
      1868      1871      1877      1874      1868      1871      1877      1879
      1870      1868      1866      1874      1870      1868      1871      1873
      1870      1868      1871      1877      1871      1868      1866      1874
      1871      1877      1874      1876      1873      1871      1877      1874
      1873      1871      1877      1879      1876      1874      1877      1879
      1881      1886      1888      1890      1881      1886      1888      1891
      1881      1886      1894      1896      1881      1886      1894      1897
      1883      1881      1886      1888      1883      1881      1886      1894
      1884      1881      1886      1888      1884      1881      1886      1894
      1885      1881      1886      1888      1885      1881      1886      1894
      1886      1888      1891      1893      1886      1888      1891      1897
      1886      1894      1897      1891      1886      1894      1897      1899
      1888      1886      1894      1896      1888      1886      1894      1897
      1888      1891      1897      1894      1888      1891      1897      1899
      1890      1888      1886      1894      1890      1888      1891      1893
      1890      1888      1891      1897      1891      1888      1886      1894
      1891      1897      1894      1896      1893      1891      1897      1894
      1893      1891      1897      1899      1896      1894      1897      1899
      1901      1906      1908      1910      1901      1906      1908      1911
      1901      1906      1914      1916      1901      1906      1914      1917
      1903      1901      1906      1908      1903      1901      1906      1914
      1904      1901      1906      1908      1904      1901      1906      1914
      1905      1901      1906      1908      1905      1901      1906      1914
      1906      1908      1911      1913      1906      1908      1911      1917
      1906      1914      1917      1911      1906      1914      1917      1919
      1908      1906      1914      1916      1908      1906      1914      1917
      1908      1911      1917      1914      1908      1911      1917      1919
      1910      1908      1906      1914      1910      1908      1911      1913
      1910      1908      1911      1917      1911      1908      1906      1914
      1911      1917      1914      1916      1913      1911      1917      1914
      1913      1911      1917      1919      1916      1914      1917      1919
      1921      1926      1928      1930      1921      1926      1928      1931
      1921      1926      1934      1936      1921      1926      1934      1937
      1923      1921      1926      1928      1923      1921      1926      1934
      1924      1921      1926      1928      1924      1921      1926      1934
      1925      1921      1926      1928      1925      1921      1926      1934
      1926      1928      1931      1933      1926      1928      1931      1937
      1926      1934      1937      1931      1926      1934      1937      1939
      1928      1926      1934      1936      1928      1926      1934      1937
      1928      1931      1937      1934      1928      1931      1937      1939
      1930      1928      1926      1934      1930      1928      1931      1933
      1930      1928      1931      1937      1931      1928      1926      1934
      1931      1937      1934      1936      1933      1931      1937      1934
      1933      1931      1937      1939      1936      1934      1937      1939
      1941      1946      1948      1950      1941      1946      1948      1951
      1941      1946      1954      1956      1941      1946      1954      1957
      1943      1941      1946      1948      1943      1941      1946      1954
      1944      1941      1946      1948      1944      1941      1946      1954
      1945      1941      1946      1948      1945      1941      1946      1954
      1946      1948      1951      1953      1946      1948      1951      1957
      1946      1954      1957      1951      1946      1954      1957      1959
      1948      1946      1954      1956      1948      1946      1954      1957
      1948      1951      1957      1954      1948      1951      1957      1959
      1950      1948      1946      1954      1950      1948      1951      1953
      1950      1948      1951      1957      1951      1948      1946      1954
      1951      1957      1954      1956      1953      1951      1957      1954
      1953      1951      1957      1959      1956      1954      1957      1959
      1961      1966      1968      1970      1961      1966      1968      1971
      1961      1966      1974      1976      1961      1966      1974      1977
      1963      1961      1966      1968      1963      1961      1966      1974
      1964      1961      1966      1968      1964      1961      1966      1974
      1965      1961      1966      1968      1965      1961      1966      1974
      1966      1968      1971      1973      1966      1968      1971      1977
      1966      1974      1977      1971      1966      1974      1977      1979
      1968      1966      1974      1976      1968      1966      1974      1977
      1968      1971      1977      1974      1968      1971      1977      1979
      1970      1968      1966      1974      1970      1968      1971      1973
      1970      1968      1971      1977      1971      1968      1966      1974
      1971      1977      1974      1976      1973      1971      1977      1974
      1973      1971      1977      1979      1976      1974      1977      1979
      1981      1986      1988      1990      1981      1986      1988      1991
      1981      1986      1994      1996      1981      1986      1994      1997
      1983      1981      1986      1988      1983      1981      1986      1994
      1984      1981      1986      1988      1984      1981      1986      1994
      1985      1981      1986      1988      1985      1981      1986      1994
      1986      1988      1991      1993      1986      1988      1991      1997
      1986      1994      1997      1991      1986      1994      1997      1999
      1988      1986      1994      1996      1988      1986      1994      1997
      1988      1991      1997      1994      1988      1991      1997      1999
      1990      1988      1986      1994      1990      1988      1991      1993
      1990      1988      1991      1997      1991      1988      1986      1994
      1991      1997      1994      1996      1993      1991      1997      1994
      1993      1991      1997      1999      1996      1994      1997      1999
      2001      2006      2008      2010      2001      2006      2008      2011
      2001      2006      2014      2016      2001      2006      2014      2017
      2003      2001      2006      2008      2003      2001      2006      2014
      2004      2001      2006      2008      2004      2001      2006      2014
      2005      2001      2006      2008      2005      2001      2006      2014
      2006      2008      2011      2013      2006      2008      2011      2017
      2006      2014      2017      2011      2006      2014      2017      2019
      2008      2006      2014      2016      2008      2006      2014      2017
      2008      2011      2017      2014      2008      2011      2017      2019
      2010      2008      2006      2014      2010      2008      2011      2013
      2010      2008      2011      2017      2011      2008      2006      2014
      2011      2017      2014      2016      2013      2011      2017      2014
      2013      2011      2017      2019      2016      2014      2017      2019
      2021      2026      2028      2030      2021      2026      2028      2031
      2021      2026      2034      2036      2021      2026      2034      2037
      2023      2021      2026      2028      2023      2021      2026      2034
      2024      2021      2026      2028      2024      2021      2026      2034
      2025      2021      2026      2028      2025      2021      2026      2034
      2026      2028      2031      2033      2026      2028      2031      2037
      2026      2034      2037      2031      2026      2034      2037      2039
      2028      2026      2034      2036      2028      2026      2034      2037
      2028      2031      2037      2034      2028      2031      2037      2039
      2030      2028      2026      2034      2030      2028      2031      2033
      2030      2028      2031      2037      2031      2028      2026      2034
      2031      2037      2034      2036      2033      2031      2037      2034
      2033      2031      2037      2039      2036      2034      2037      2039
      2041      2046      2048      2050      2041      2046      2048      2051
      2041      2046      2054      2056      2041      2046      2054      2057
      2043      2041      2046      2048      2043      2041      2046      2054
      2044      2041      2046      2048      2044      2041      2046      2054
      2045      2041      2046      2048      2045      2041      2046      2054
      2046      2048      2051      2053      2046      2048      2051      2057
      2046      2054      2057      2051      2046      2054      2057      2059
      2048      2046      2054      2056      2048      2046      2054      2057
      2048      2051      2057      2054      2048      2051      2057      2059
      2050      2048      2046      2054      2050      2048      2051      2053
      2050      2048      2051      2057      2051      2048      2046      2054
      2051      2057      2054      2056      2053      2051      2057      2054
      2053      2051      2057      2059      2056      2054      2057      2059
      2061      2066      2068      2070      2061      2066      2068      2071
      2061      2066      2074      2076      2061      2066      2074      2077
      2063      2061      2066      2068      2063      2061      2066      2074
      2064      2061      2066      2068      2064      2061      2066      2074
      2065      2061      2066      2068      2065      2061      2066      2074
      2066      2068      2071      2073      2066      2068      2071      2077
      2066      2074      2077      2071      2066      2074      2077      2079
      2068      2066      2074      2076      2068      2066      2074      2077
      2068      2071      2077      2074      2068      2071      2077      2079
      2070      2068      2066      2074      2070      2068      2071      2073
      2070      2068      2071      2077      2071      2068      2066      2074
      2071      2077      2074      2076      2073      2071      2077      2074
      2073      2071      2077      2079      2076      2074      2077      2079
      2081      2086      2088      2090      2081      2086      2088      2091
      2081      2086      2094      2096      2081      2086      2094      2097
      2083      2081      2086      2088      2083      2081      2086      2094
      2084      2081      2086      2088      2084      2081      2086      2094
      2085      2081      2086      2088      2085      2081      2086      2094
      2086      2088      2091      2093      2086      2088      2091      2097
      2086      2094      2097      2091      2086      2094      2097      2099
      2088      2086      2094      2096      2088      2086      2094      2097
      2088      2091      2097      2094      2088      2091      2097      2099
      2090      2088      2086      2094      2090      2088      2091      2093
      2090      2088      2091      2097      2091      2088      2086      2094
      2091      2097      2094      2096      2093      2091      2097      2094
      2093      2091      2097      2099      2096      2094      2097      2099
      2101      2106      2108      2110      2101      2106      2108      2111
      2101      2106      2114      2116      2101      2106      2114      2117
      2103      2101      2106      2108      2103      2101      2106      2114
      2104      2101      2106      2108      2104      2101      2106      2114
      2105      2101      2106      2108      2105      2101      2106      2114
      2106      2108      2111      2113      2106      2108      2111      2117
      2106      2114      2117      2111      2106      2114      2117      2119
      2108      2106      2114      2116      2108      2106      2114      2117
      2108      2111      2117      2114      2108      2111      2117      2119
      2110      2108      2106      2114      2110      2108      2111      2113
      2110      2108      2111      2117      2111      2108      2106      2114
      2111      2117      2114      2116      2113      2111      2117      2114
      2113      2111      2117      2119      2116      2114      2117      2119
      2121      2126      2128      2130      2121      2126      2128      2131
      2121      2126      2134      2136      2121      2126      2134      2137
      2123      2121      2126      2128      2123      2121      2126      2134
      2124      2121      2126      2128      2124      2121      2126      2134
      2125      2121      2126      2128      2125      2121      2126      2134
      2126      2128      2131      2133      2126      2128      2131      2137
      2126      2134      2137      2131      2126      2134      2137      2139
      2128      2126      2134      2136      2128      2126      2134      2137
      2128      2131      2137      2134      2128      2131      2137      2139
      2130      2128      2126      2134      2130      2128      2131      2133
      2130      2128      2131      2137      2131      2128      2126      2134
      2131      2137      2134      2136      2133      2131      2137      2134
      2133      2131      2137      2139      2136      2134      2137      2139
      2141      2146      2148      2150      2141      2146      2148      2151
      2141      2146      2154      2156      2141      2146      2154      2157
      2143      2141      2146      2148      2143      2141      2146      2154
      2144      2141      2146      2148      2144      2141      2146      2154
      2145      2141      2146      2148      2145      2141      2146      2154
      2146      2148      2151      2153      2146      2148      2151      2157
      2146      2154      2157      2151      2146      2154      2157      2159
      2148      2146      2154      2156      2148      2146      2154      2157
      2148      2151      2157      2154      2148      2151      2157      2159
      2150      2148      2146      2154      2150      2148      2151      2153
      2150      2148      2151      2157      2151      2148      2146      2154
      2151      2157      2154      2156      2153      2151      2157      2154
      2153      2151      2157      2159      2156      2154      2157      2159
      2161      2166      2168      2170      2161      2166      2168      2171
      2161      2166      2174      2176      2161      2166      2174      2177
      2163      2161      2166      2168      2163      2161      2166      2174
      2164      2161      2166      2168      2164      2161      2166      2174
      2165      2161      2166      2168      2165      2161      2166      2174
      2166      2168      2171      2173      2166      2168      2171      2177
      2166      2174      2177      2171      2166      2174      2177      2179
      2168      2166      2174      2176      2168      2166      2174      2177
      2168      2171      2177      2174      2168      2171      2177      2179
      2170      2168      2166      2174      2170      2168      2171      2173
      2170      2168      2171      2177      2171      2168      2166      2174
      2171      2177      2174      2176      2173      2171      2177      2174
      2173      2171      2177      2179      2176      2174      2177      2179
      2181      2186      2188      2190      2181      2186      2188      2191
      2181      2186      2194      2196      2181      2186      2194      2197
      2183      2181      2186      2188      2183      2181      2186      2194
      2184      2181      2186      2188      2184      2181      2186      2194
      2185      2181      2186      2188      2185      2181      2186      2194
      2186      2188      2191      2193      2186      2188      2191      2197
      2186      2194      2197      2191      2186      2194      2197      2199
      2188      2186      2194      2196      2188      2186      2194      2197
      2188      2191      2197      2194      2188      2191      2197      2199
      2190      2188      2186      2194      2190      2188      2191      2193
      2190      2188      2191      2197      2191      2188      2186      2194
      2191      2197      2194      2196      2193      2191      2197      2194
      2193      2191      2197      2199      2196      2194      2197      2199
      2201      2206      2208      2210      2201      2206      2208      2211
      2201      2206      2214      2216      2201      2206      2214      2217
      2203      2201      2206      2208      2203      2201      2206      2214
      2204      2201      2206      2208      2204      2201      2206      2214
      2205      2201      2206      2208      2205      2201      2206      2214
      2206      2208      2211      2213      2206      2208      2211      2217
      2206      2214      2217      2211      2206      2214      2217      2219
      2208      2206      2214      2216      2208      2206      2214      2217
      2208      2211      2217      2214      2208      2211      2217      2219
      2210      2208      2206      2214      2210      2208      2211      2213
      2210      2208      2211      2217      2211      2208      2206      2214
      2211      2217      2214      2216      2213      2211      2217      2214
      2213      2211      2217      2219      2216      2214      2217      2219
      2221      2226      2228      2230      2221      2226      2228      2231
      2221      2226      2234      2236      2221      2226      2234      2237
      2223      2221      2226      2228      2223      2221      2226      2234
      2224      2221      2226      2228      2224      2221      2226      2234
      2225      2221      2226      2228      2225      2221      2226      2234
      2226      2228      2231      2233      2226      2228      2231      2237
      2226      2234      2237      2231      2226      2234      2237      2239
      2228      2226      2234      2236      2228      2226      2234      2237
      2228      2231      2237      2234      2228      2231      2237      2239
      2230      2228      2226      2234      2230      2228      2231      2233
      2230      2228      2231      2237      2231      2228      2226      2234
      2231      2237      2234      2236      2233      2231      2237      2234
      2233      2231      2237      2239      2236      2234      2237      2239
      2241      2246      2248      2250      2241      2246      2248      2251
      2241      2246      2254      2256      2241      2246      2254      2257
      2243      2241      2246      2248      2243      2241      2246      2254
      2244      2241      2246      2248      2244      2241      2246      2254
      2245      2241      2246      2248      2245      2241      2246      2254
      2246      2248      2251      2253      2246      2248      2251      2257
      2246      2254      2257      2251      2246      2254      2257      2259
      2248      2246      2254      2256      2248      2246      2254      2257
      2248      2251      2257      2254      2248      2251      2257      2259
      2250      2248      2246      2254      2250      2248      2251      2253
      2250      2248      2251      2257      2251      2248      2246      2254
      2251      2257      2254      2256      2253      2251      2257      2254
      2253      2251      2257      2259      2256      2254      2257      2259
      2261      2266      2268      2270      2261      2266      2268      2271
      2261      2266      2274      2276      2261      2266      2274      2277
      2263      2261      2266      2268      2263      2261      2266      2274
      2264      2261      2266      2268      2264      2261      2266      2274
      2265      2261      2266      2268      2265      2261      2266      2274
      2266      2268      2271      2273      2266      2268      2271      2277
      2266      2274      2277      2271      2266      2274      2277      2279
      2268      2266      2274      2276      2268      2266      2274      2277
      2268      2271      2277      2274      2268      2271      2277      2279
      2270      2268      2266      2274      2270      2268      2271      2273
      2270      2268      2271      2277      2271      2268      2266      2274
      2271      2277      2274      2276      2273      2271      2277      2274
      2273      2271      2277      2279      2276      2274      2277      2279
      2281      2286      2288      2290      2281      2286      2288      2291
      2281      2286      2294      2296      2281      2286      2294      2297
      2283      2281      2286      2288      2283      2281      2286      2294
      2284      2281      2286      2288      2284      2281      2286      2294
      2285      2281      2286      2288      2285      2281      2286      2294
      2286      2288      2291      2293      2286      2288      2291      2297
      2286      2294      2297      2291      2286      2294      2297      2299
      2288      2286      2294      2296      2288      2286      2294      2297
      2288      2291      2297      2294      2288      2291      2297      2299
      2290      2288      2286      2294      2290      2288      2291      2293
      2290      2288      2291      2297      2291      2288      2286      2294
      2291      2297      2294      2296      2293      2291      2297      2294
      2293      2291      2297      2299      2296      2294      2297      2299
      2301      2306      2308      2310      2301      2306      2308      2311
      2301      2306      2314      2316      2301      2306      2314      2317
      2303      2301      2306      2308      2303      2301      2306      2314
      2304      2301      2306      2308      2304      2301      2306      2314
      2305      2301      2306      2308      2305      2301      2306      2314
      2306      2308      2311      2313      2306      2308      2311      2317
      2306      2314      2317      2311      2306      2314      2317      2319
      2308      2306      2314      2316      2308      2306      2314      2317
      2308      2311      2317      2314      2308      2311      2317      2319
      2310      2308      2306      2314      2310      2308      2311      2313
      2310      2308      2311      2317      2311      2308      2306      2314
      2311      2317      2314      2316      2313      2311      2317      2314
      2313      2311      2317      2319      2316      2314      2317      2319
      2321      2326      2328      2330      2321      2326      2328      2331
      2321      2326      2334      2336      2321      2326      2334      2337
      2323      2321      2326      2328      2323      2321      2326      2334
      2324      2321      2326      2328      2324      2321      2326      2334
      2325      2321      2326      2328      2325      2321      2326      2334
      2326      2328      2331      2333      2326      2328      2331      2337
      2326      2334      2337      2331      2326      2334      2337      2339
      2328      2326      2334      2336      2328      2326      2334      2337
      2328      2331      2337      2334      2328      2331      2337      2339
      2330      2328      2326      2334      2330      2328      2331      2333
      2330      2328      2331      2337      2331      2328      2326      2334
      2331      2337      2334      2336      2333      2331      2337      2334
      2333      2331      2337      2339      2336      2334      2337      2339
      2341      2346      2348      2350      2341      2346      2348      2351
      2341      2346      2354      2356      2341      2346      2354      2357
      2343      2341      2346      2348      2343      2341      2346      2354
      2344      2341      2346      2348      2344      2341      2346      2354
      2345      2341      2346      2348      2345      2341      2346      2354
      2346      2348      2351      2353      2346      2348      2351      2357
      2346      2354      2357      2351      2346      2354      2357      2359
      2348      2346      2354      2356      2348      2346      2354      2357
      2348      2351      2357      2354      2348      2351      2357      2359
      2350      2348      2346      2354      2350      2348      2351      2353
      2350      2348      2351      2357      2351      2348      2346      2354
      2351      2357      2354      2356      2353      2351      2357      2354
      2353      2351      2357      2359      2356      2354      2357      2359
      2361      2366      2368      2370      2361      2366      2368      2371
      2361      2366      2374      2376      2361      2366      2374      2377
      2363      2361      2366      2368      2363      2361      2366      2374
      2364      2361      2366      2368      2364      2361      2366      2374
      2365      2361      2366      2368      2365      2361      2366      2374
      2366      2368      2371      2373      2366      2368      2371      2377
      2366      2374      2377      2371      2366      2374      2377      2379
      2368      2366      2374      2376      2368      2366      2374      2377
      2368      2371      2377      2374      2368      2371      2377      2379
      2370      2368      2366      2374      2370      2368      2371      2373
      2370      2368      2371      2377      2371      2368      2366      2374
      2371      2377      2374      2376      2373      2371      2377      2374
      2373      2371      2377      2379      2376      2374      2377      2379
      2381      2386      2388      2390      2381      2386      2388      2391
      2381      2386      2394      2396      2381      2386      2394      2397
      2383      2381      2386      2388      2383      2381      2386      2394
      2384      2381      2386      2388      2384      2381      2386      2394
      2385      2381      2386      2388      2385      2381      2386      2394
      2386      2388      2391      2393      2386      2388      2391      2397
      2386      2394      2397      2391      2386      2394      2397      2399
      2388      2386      2394      2396      2388      2386      2394      2397
      2388      2391      2397      2394      2388      2391      2397      2399
      2390      2388      2386      2394      2390      2388      2391      2393
      2390      2388      2391      2397      2391      2388      2386      2394
      2391      2397      2394      2396      2393      2391      2397      2394
      2393      2391      2397      2399      2396      2394      2397      2399
      2401      2406      2408      2410      2401      2406      2408      2411
      2401      2406      2414      2416      2401      2406      2414      2417
      2403      2401      2406      2408      2403      2401      2406      2414
      2404      2401      2406      2408      2404      2401      2406      2414
      2405      2401      2406      2408      2405      2401      2406      2414
      2406      2408      2411      2413      2406      2408      2411      2417
      2406      2414      2417      2411      2406      2414      2417      2419
      2408      2406      2414      2416      2408      2406      2414      2417
      2408      2411      2417      2414      2408      2411      2417      2419
      2410      2408      2406      2414      2410      2408      2411      2413
      2410      2408      2411      2417      2411      2408      2406      2414
      2411      2417      2414      2416      2413      2411      2417      2414
      2413      2411      2417      2419      2416      2414      2417      2419
      2421      2426      2428      2430      2421      2426      2428      2431
      2421      2426      2434      2436      2421      2426      2434      2437
      2423      2421      2426      2428      2423      2421      2426      2434
      2424      2421      2426      2428      2424      2421      2426      2434
      2425      2421      2426      2428      2425      2421      2426      2434
      2426      2428      2431      2433      2426      2428      2431      2437
      2426      2434      2437      2431      2426      2434      2437      2439
      2428      2426      2434      2436      2428      2426      2434      2437
      2428      2431      2437      2434      2428      2431      2437      2439
      2430      2428      2426      2434      2430      2428      2431      2433
      2430      2428      2431      2437      2431      2428      2426      2434
      2431      2437      2434      2436      2433      2431      2437      2434
      2433      2431      2437      2439      2436      2434      2437      2439
      2441      2446      2448      2450      2441      2446      2448      2451
      2441      2446      2454      2456      2441      2446      2454      2457
      2443      2441      2446      2448      2443      2441      2446      2454
      2444      2441      2446      2448      2444      2441      2446      2454
      2445      2441      2446      2448      2445      2441      2446      2454
      2446      2448      2451      2453      2446      2448      2451      2457
      2446      2454      2457      2451      2446      2454      2457      2459
      2448      2446      2454      2456      2448      2446      2454      2457
      2448      2451      2457      2454      2448      2451      2457      2459
      2450      2448      2446      2454      2450      2448      2451      2453
      2450      2448      2451      2457      2451      2448      2446      2454
      2451      2457      2454      2456      2453      2451      2457      2454
      2453      2451      2457      2459      2456      2454      2457      2459
      2461      2466      2468      2470      2461      2466      2468      2471
      2461      2466      2474      2476      2461      2466      2474      2477
      2463      2461      2466      2468      2463      2461      2466      2474
      2464      2461      2466      2468      2464      2461      2466      2474
      2465      2461      2466      2468      2465      2461      2466      2474
      2466      2468      2471      2473      2466      2468      2471      2477
      2466      2474      2477      2471      2466      2474      2477      2479
      2468      2466      2474      2476      2468      2466      2474      2477
      2468      2471      2477      2474      2468      2471      2477      2479
      2470      2468      2466      2474      2470      2468      2471      2473
      2470      2468      2471      2477      2471      2468      2466      2474
      2471      2477      2474      2476      2473      2471      2477      2474
      2473      2471      2477      2479      2476      2474      2477      2479
      2481      2486      2488      2490      2481      2486      2488      2491
      2481      2486      2494      2496      2481      2486      2494      2497
      2483      2481      2486      2488      2483      2481      2486      2494
      2484      2481      2486      2488      2484      2481      2486      2494
      2485      2481      2486      2488      2485      2481      2486      2494
      2486      2488      2491      2493      2486      2488      2491      2497
      2486      2494      2497      2491      2486      2494      2497      2499
      2488      2486      2494      2496      2488      2486      2494      2497
      2488      2491      2497      2494      2488      2491      2497      2499
      2490      2488      2486      2494      2490      2488      2491      2493
      2490      2488      2491      2497      2491      2488      2486      2494
      2491      2497      2494      2496      2493      2491      2497      2494
      2493      2491      2497      2499      2496      2494      2497      2499
      2501      2506      2508      2510      2501      2506      2508      2511
      2501      2506      2514      2516      2501      2506      2514      2517
      2503      2501      2506      2508      2503      2501      2506      2514
      2504      2501      2506      2508      2504      2501      2506      2514
      2505      2501      2506      2508      2505      2501      2506      2514
      2506      2508      2511      2513      2506      2508      2511      2517
      2506      2514      2517      2511      2506      2514      2517      2519
      2508      2506      2514      2516      2508      2506      2514      2517
      2508      2511      2517      2514      2508      2511      2517      2519
      2510      2508      2506      2514      2510      2508      2511      2513
      2510      2508      2511      2517      2511      2508      2506      2514
      2511      2517      2514      2516      2513      2511      2517      2514
      2513      2511      2517      2519      2516      2514      2517      2519
      2521      2526      2528      2530      2521      2526      2528      2531
      2521      2526      2534      2536      2521      2526      2534      2537
      2523      2521      2526      2528      2523      2521      2526      2534
      2524      2521      2526      2528      2524      2521      2526      2534
      2525      2521      2526      2528      2525      2521      2526      2534
      2526      2528      2531      2533      2526      2528      2531      2537
      2526      2534      2537      2531      2526      2534      2537      2539
      2528      2526      2534      2536      2528      2526      2534      2537
      2528      2531      2537      2534      2528      2531      2537      2539
      2530      2528      2526      2534      2530      2528      2531      2533
      2530      2528      2531      2537      2531      2528      2526      2534
      2531      2537      2534      2536      2533      2531      2537      2534
      2533      2531      2537      2539      2536      2534      2537      2539
      2541      2546      2548      2550      2541      2546      2548      2551
      2541      2546      2554      2556      2541      2546      2554      2557
      2543      2541      2546      2548      2543      2541      2546      2554
      2544      2541      2546      2548      2544      2541      2546      2554
      2545      2541      2546      2548      2545      2541      2546      2554
      2546      2548      2551      2553      2546      2548      2551      2557
      2546      2554      2557      2551      2546      2554      2557      2559
      2548      2546      2554      2556      2548      2546      2554      2557
      2548      2551      2557      2554      2548      2551      2557      2559
      2550      2548      2546      2554      2550      2548      2551      2553
      2550      2548      2551      2557      2551      2548      2546      2554
      2551      2557      2554      2556      2553      2551      2557      2554
      2553      2551      2557      2559      2556      2554      2557      2559
      2561      2566      2568      2570      2561      2566      2568      2571
      2561      2566      2574      2576      2561      2566      2574      2577
      2563      2561      2566      2568      2563      2561      2566      2574
      2564      2561      2566      2568      2564      2561      2566      2574
      2565      2561      2566      2568      2565      2561      2566      2574
      2566      2568      2571      2573      2566      2568      2571      2577
      2566      2574      2577      2571      2566      2574      2577      2579
      2568      2566      2574      2576      2568      2566      2574      2577
      2568      2571      2577      2574      2568      2571      2577      2579
      2570      2568      2566      2574      2570      2568      2571      2573
      2570      2568      2571      2577      2571      2568      2566      2574
      2571      2577      2574      2576      2573      2571      2577      2574
      2573      2571      2577      2579      2576      2574      2577      2579
      2581      2586      2588      2590      2581      2586      2588      2591
      2581      2586      2594      2596      2581      2586      2594      2597
      2583      2581      2586      2588      2583      2581      2586      2594
      2584      2581      2586      2588      2584      2581      2586      2594
      2585      2581      2586      2588      2585      2581      2586      2594
      2586      2588      2591      2593      2586      2588      2591      2597
      2586      2594      2597      2591      2586      2594      2597      2599
      2588      2586      2594      2596      2588      2586      2594      2597
      2588      2591      2597      2594      2588      2591      2597      2599
      2590      2588      2586      2594      2590      2588      2591      2593
      2590      2588      2591      2597      2591      2588      2586      2594
      2591      2597      2594      2596      2593      2591      2597      2594
      2593      2591      2597      2599      2596      2594      2597      2599
      2601      2606      2608      2610      2601      2606      2608      2611
      2601      2606      2614      2616      2601      2606      2614      2617
      2603      2601      2606      2608      2603      2601      2606      2614
      2604      2601      2606      2608      2604      2601      2606      2614
      2605      2601      2606      2608      2605      2601      2606      2614
      2606      2608      2611      2613      2606      2608      2611      2617
      2606      2614      2617      2611      2606      2614      2617      2619
      2608      2606      2614      2616      2608      2606      2614      2617
      2608      2611      2617      2614      2608      2611      2617      2619
      2610      2608      2606      2614      2610      2608      2611      2613
      2610      2608      2611      2617      2611      2608      2606      2614
      2611      2617      2614      2616      2613      2611      2617      2614
      2613      2611      2617      2619      2616      2614      2617      2619
      2621      2626      2628      2630      2621      2626      2628      2631
      2621      2626      2634      2636      2621      2626      2634      2637
      2623      2621      2626      2628      2623      2621      2626      2634
      2624      2621      2626      2628      2624      2621      2626      2634
      2625      2621      2626      2628      2625      2621      2626      2634
      2626      2628      2631      2633      2626      2628      2631      2637
      2626      2634      2637      2631      2626      2634      2637      2639
      2628      2626      2634      2636      2628      2626      2634      2637
      2628      2631      2637      2634      2628      2631      2637      2639
      2630      2628      2626      2634      2630      2628      2631      2633
      2630      2628      2631      2637      2631      2628      2626      2634
      2631      2637      2634      2636      2633      2631      2637      2634
      2633      2631      2637      2639      2636      2634      2637      2639
      2641      2646      2648      2650      2641      2646      2648      2651
      2641      2646      2654      2656      2641      2646      2654      2657
      2643      2641      2646      2648      2643      2641      2646      2654
      2644      2641      2646      2648      2644      2641      2646      2654
      2645      2641      2646      2648      2645      2641      2646      2654
      2646      2648      2651      2653      2646      2648      2651      2657
      2646      2654      2657      2651      2646      2654      2657      2659
      2648      2646      2654      2656      2648      2646      2654      2657
      2648      2651      2657      2654      2648      2651      2657      2659
      2650      2648      2646      2654      2650      2648      2651      2653
      2650      2648      2651      2657      2651      2648      2646      2654
      2651      2657      2654      2656      2653      2651      2657      2654
      2653      2651      2657      2659      2656      2654      2657      2659
      2661      2666      2668      2670      2661      2666      2668      2671
      2661      2666      2674      2676      2661      2666      2674      2677
      2663      2661      2666      2668      2663      2661      2666      2674
      2664      2661      2666      2668      2664      2661      2666      2674
      2665      2661      2666      2668      2665      2661      2666      2674
      2666      2668      2671      2673      2666      2668      2671      2677
      2666      2674      2677      2671      2666      2674      2677      2679
      2668      2666      2674      2676      2668      2666      2674      2677
      2668      2671      2677      2674      2668      2671      2677      2679
      2670      2668      2666      2674      2670      2668      2671      2673
      2670      2668      2671      2677      2671      2668      2666      2674
      2671      2677      2674      2676      2673      2671      2677      2674
      2673      2671      2677      2679      2676      2674      2677      2679
      2681      2686      2688      2690      2681      2686      2688      2691
      2681      2686      2694      2696      2681      2686      2694      2697
      2683      2681      2686      2688      2683      2681      2686      2694
      2684      2681      2686      2688      2684      2681      2686      2694
      2685      2681      2686      2688      2685      2681      2686      2694
      2686      2688      2691      2693      2686      2688      2691      2697
      2686      2694      2697      2691      2686      2694      2697      2699
      2688      2686      2694      2696      2688      2686      2694      2697
      2688      2691      2697      2694      2688      2691      2697      2699
      2690      2688      2686      2694      2690      2688      2691      2693
      2690      2688      2691      2697      2691      2688      2686      2694
      2691      2697      2694      2696      2693      2691      2697      2694
      2693      2691      2697      2699      2696      2694      2697      2699
      2701      2706      2708      2710      2701      2706      2708      2711
      2701      2706      2714      2716      2701      2706      2714      2717
      2703      2701      2706      2708      2703      2701      2706      2714
      2704      2701      2706      2708      2704      2701      2706      2714
      2705      2701      2706      2708      2705      2701      2706      2714
      2706      2708      2711      2713      2706      2708      2711      2717
      2706      2714      2717      2711      2706      2714      2717      2719
      2708      2706      2714      2716      2708      2706      2714      2717
      2708      2711      2717      2714      2708      2711      2717      2719
      2710      2708      2706      2714      2710      2708      2711      2713
      2710      2708      2711      2717      2711      2708      2706      2714
      2711      2717      2714      2716      2713      2711      2717      2714
      2713      2711      2717      2719      2716      2714      2717      2719
      2721      2726      2728      2730      2721      2726      2728      2731
      2721      2726      2734      2736      2721      2726      2734      2737
      2723      2721      2726      2728      2723      2721      2726      2734
      2724      2721      2726      2728      2724      2721      2726      2734
      2725      2721      2726      2728      2725      2721      2726      2734
      2726      2728      2731      2733      2726      2728      2731      2737
      2726      2734      2737      2731      2726      2734      2737      2739
      2728      2726      2734      2736      2728      2726      2734      2737
      2728      2731      2737      2734      2728      2731      2737      2739
      2730      2728      2726      2734      2730      2728      2731      2733
      2730      2728      2731      2737      2731      2728      2726      2734
      2731      2737      2734      2736      2733      2731      2737      2734
      2733      2731      2737      2739      2736      2734      2737      2739
      2741      2746      2748      2750      2741      2746      2748      2751
      2741      2746      2754      2756      2741      2746      2754      2757
      2743      2741      2746      2748      2743      2741      2746      2754
      2744      2741      2746      2748      2744      2741      2746      2754
      2745      2741      2746      2748      2745      2741      2746      2754
      2746      2748      2751      2753      2746      2748      2751      2757
      2746      2754      2757      2751      2746      2754      2757      2759
      2748      2746      2754      2756      2748      2746      2754      2757
      2748      2751      2757      2754      2748      2751      2757      2759
      2750      2748      2746      2754      2750      2748      2751      2753
      2750      2748      2751      2757      2751      2748      2746      2754
      2751      2757      2754      2756      2753      2751      2757      2754
      2753      2751      2757      2759      2756      2754      2757      2759
      2761      2766      2768      2770      2761      2766      2768      2771
      2761      2766      2774      2776      2761      2766      2774      2777
      2763      2761      2766      2768      2763      2761      2766      2774
      2764      2761      2766      2768      2764      2761      2766      2774
      2765      2761      2766      2768      2765      2761      2766      2774
      2766      2768      2771      2773      2766      2768      2771      2777
      2766      2774      2777      2771      2766      2774      2777      2779
      2768      2766      2774      2776      2768      2766      2774      2777
      2768      2771      2777      2774      2768      2771      2777      2779
      2770      2768      2766      2774      2770      2768      2771      2773
      2770      2768      2771      2777      2771      2768      2766      2774
      2771      2777      2774      2776      2773      2771      2777      2774
      2773      2771      2777      2779      2776      2774      2777      2779
      2781      2786      2788      2790      2781      2786      2788      2791
      2781      2786      2794      2796      2781      2786      2794      2797
      2783      2781      2786      2788      2783      2781      2786      2794
      2784      2781      2786      2788      2784      2781      2786      2794
      2785      2781      2786      2788      2785      2781      2786      2794
      2786      2788      2791      2793      2786      2788      2791      2797
      2786      2794      2797      2791      2786      2794      2797      2799
      2788      2786      2794      2796      2788      2786      2794      2797
      2788      2791      2797      2794      2788      2791      2797      2799
      2790      2788      2786      2794      2790      2788      2791      2793
      2790      2788      2791      2797      2791      2788      2786      2794
      2791      2797      2794      2796      2793      2791      2797      2794
      2793      2791      2797      2799      2796      2794      2797      2799
      2801      2806      2808      2810      2801      2806      2808      2811
      2801      2806      2814      2816      2801      2806      2814      2817
      2803      2801      2806      2808      2803      2801      2806      2814
      2804      2801      2806      2808      2804      2801      2806      2814
      2805      2801      2806      2808      2805      2801      2806      2814
      2806      2808      2811      2813      2806      2808      2811      2817
      2806      2814      2817      2811      2806      2814      2817      2819
      2808      2806      2814      2816      2808      2806      2814      2817
      2808      2811      2817      2814      2808      2811      2817      2819
      2810      2808      2806      2814      2810      2808      2811      2813
      2810      2808      2811      2817      2811      2808      2806      2814
      2811      2817      2814      2816      2813      2811      2817      2814
      2813      2811      2817      2819      2816      2814      2817      2819
      2821      2826      2828      2830      2821      2826      2828      2831
      2821      2826      2834      2836      2821      2826      2834      2837
      2823      2821      2826      2828      2823      2821      2826      2834
      2824      2821      2826      2828      2824      2821      2826      2834
      2825      2821      2826      2828      2825      2821      2826      2834
      2826      2828      2831      2833      2826      2828      2831      2837
      2826      2834      2837      2831      2826      2834      2837      2839
      2828      2826      2834      2836      2828      2826      2834      2837
      2828      2831      2837      2834      2828      2831      2837      2839
      2830      2828      2826      2834      2830      2828      2831      2833
      2830      2828      2831      2837      2831      2828      2826      2834
      2831      2837      2834      2836      2833      2831      2837      2834
      2833      2831      2837      2839      2836      2834      2837      2839
      2841      2846      2848      2850      2841      2846      2848      2851
      2841      2846      2854      2856      2841      2846      2854      2857
      2843      2841      2846      2848      2843      2841      2846      2854
      2844      2841      2846      2848      2844      2841      2846      2854
      2845      2841      2846      2848      2845      2841      2846      2854
      2846      2848      2851      2853      2846      2848      2851      2857
      2846      2854      2857      2851      2846      2854      2857      2859
      2848      2846      2854      2856      2848      2846      2854      2857
      2848      2851      2857      2854      2848      2851      2857      2859
      2850      2848      2846      2854      2850      2848      2851      2853
      2850      2848      2851      2857      2851      2848      2846      2854
      2851      2857      2854      2856      2853      2851      2857      2854
      2853      2851      2857      2859      2856      2854      2857      2859
      2861      2866      2868      2870      2861      2866      2868      2871
      2861      2866      2874      2876      2861      2866      2874      2877
      2863      2861      2866      2868      2863      2861      2866      2874
      2864      2861      2866      2868      2864      2861      2866      2874
      2865      2861      2866      2868      2865      2861      2866      2874
      2866      2868      2871      2873      2866      2868      2871      2877
      2866      2874      2877      2871      2866      2874      2877      2879
      2868      2866      2874      2876      2868      2866      2874      2877
      2868      2871      2877      2874      2868      2871      2877      2879
      2870      2868      2866      2874      2870      2868      2871      2873
      2870      2868      2871      2877      2871      2868      2866      2874
      2871      2877      2874      2876      2873      2871      2877      2874
      2873      2871      2877      2879      2876      2874      2877      2879
      2881      2886      2888      2890      2881      2886      2888      2891
      2881      2886      2894      2896      2881      2886      2894      2897
      2883      2881      2886      2888      2883      2881      2886      2894
      2884      2881      2886      2888      2884      2881      2886      2894
      2885      2881      2886      2888      2885      2881      2886      2894
      2886      2888      2891      2893      2886      2888      2891      2897
      2886      2894      2897      2891      2886      2894      2897      2899
      2888      2886      2894      2896      2888      2886      2894      2897
      2888      2891      2897      2894      2888      2891      2897      2899
      2890      2888      2886      2894      2890      2888      2891      2893
      2890      2888      2891      2897      2891      2888      2886      2894
      2891      2897      2894      2896      2893      2891      2897      2894
      2893      2891      2897      2899      2896      2894      2897      2899
      2901      2906      2908      2910      2901      2906      2908      2911
      2901      2906      2914      2916      2901      2906      2914      2917
      2903      2901      2906      2908      2903      2901      2906      2914
      2904      2901      2906      2908      2904      2901      2906      2914
      2905      2901      2906      2908      2905      2901      2906      2914
      2906      2908      2911      2913      2906      2908      2911      2917
      2906      2914      2917      2911      2906      2914      2917      2919
      2908      2906      2914      2916      2908      2906      2914      2917
      2908      2911      2917      2914      2908      2911      2917      2919
      2910      2908      2906      2914      2910      2908      2911      2913
      2910      2908      2911      2917      2911      2908      2906      2914
      2911      2917      2914      2916      2913      2911      2917      2914
      2913      2911      2917      2919      2916      2914      2917      2919
      2921      2926      2928      2930      2921      2926      2928      2931
      2921      2926      2934      2936      2921      2926      2934      2937
      2923      2921      2926      2928      2923      2921      2926      2934
      2924      2921      2926      2928      2924      2921      2926      2934
      2925      2921      2926      2928      2925      2921      2926      2934
      2926      2928      2931      2933      2926      2928      2931      2937
      2926      2934      2937      2931      2926      2934      2937      2939
      2928      2926      2934      2936      2928      2926      2934      2937
      2928      2931      2937      2934      2928      2931      2937      2939
      2930      2928      2926      2934      2930      2928      2931      2933
      2930      2928      2931      2937      2931      2928      2926      2934
      2931      2937      2934      2936      2933      2931      2937      2934
      2933      2931      2937      2939      2936      2934      2937      2939
      2941      2946      2948      2950      2941      2946      2948      2951
      2941      2946      2954      2956      2941      2946      2954      2957
      2943      2941      2946      2948      2943      2941      2946      2954
      2944      2941      2946      2948      2944      2941      2946      2954
      2945      2941      2946      2948      2945      2941      2946      2954
      2946      2948      2951      2953      2946      2948      2951      2957
      2946      2954      2957      2951      2946      2954      2957      2959
      2948      2946      2954      2956      2948      2946      2954      2957
      2948      2951      2957      2954      2948      2951      2957      2959
      2950      2948      2946      2954      2950      2948      2951      2953
      2950      2948      2951      2957      2951      2948      2946      2954
      2951      2957      2954      2956      2953      2951      2957      2954
      2953      2951      2957      2959      2956      2954      2957      2959
      2961      2966      2968      2970      2961      2966      2968      2971
      2961      2966      2974      2976      2961      2966      2974      2977
      2963      2961      2966      2968      2963      2961      2966      2974
      2964      2961      2966      2968      2964      2961      2966      2974
      2965      2961      2966      2968      2965      2961      2966      2974
      2966      2968      2971      2973      2966      2968      2971      2977
      2966      2974      2977      2971      2966      2974      2977      2979
      2968      2966      2974      2976      2968      2966      2974      2977
      2968      2971      2977      2974      2968      2971      2977      2979
      2970      2968      2966      2974      2970      2968      2971      2973
      2970      2968      2971      2977      2971      2968      2966      2974
      2971      2977      2974      2976      2973      2971      2977      2974
      2973      2971      2977      2979      2976      2974      2977      2979
      2981      2986      2988      2990      2981      2986      2988      2991
      2981      2986      2994      2996      2981      2986      2994      2997
      2983      2981      2986      2988      2983      2981      2986      2994
      2984      2981      2986      2988      2984      2981      2986      2994
      2985      2981      2986      2988      2985      2981      2986      2994
      2986      2988      2991      2993      2986      2988      2991      2997
      2986      2994      2997      2991      2986      2994      2997      2999
      2988      2986      2994      2996      2988      2986      2994      2997
      2988      2991      2997      2994      2988      2991      2997      2999
      2990      2988      2986      2994      2990      2988      2991      2993
      2990      2988      2991      2997      2991      2988      2986      2994
      2991      2997      2994      2996      2993      2991      2997      2994
      2993      2991      2997      2999      2996      2994      2997      2999
      3001      3006      3008      3010      3001      3006      3008      3011
      3001      3006      3014      3016      3001      3006      3014      3017
      3003      3001      3006      3008      3003      3001      3006      3014
      3004      3001      3006      3008      3004      3001      3006      3014
      3005      3001      3006      3008      3005      3001      3006      3014
      3006      3008      3011      3013      3006      3008      3011      3017
      3006      3014      3017      3011      3006      3014      3017      3019
      3008      3006      3014      3016      3008      3006      3014      3017
      3008      3011      3017      3014      3008      3011      3017      3019
      3010      3008      3006      3014      3010      3008      3011      3013
      3010      3008      3011      3017      3011      3008      3006      3014
      3011      3017      3014      3016      3013      3011      3017      3014
      3013      3011      3017      3019      3016      3014      3017      3019
      3021      3026      3028      3030      3021      3026      3028      3031
      3021      3026      3034      3036      3021      3026      3034      3037
      3023      3021      3026      3028      3023      3021      3026      3034
      3024      3021      3026      3028      3024      3021      3026      3034
      3025      3021      3026      3028      3025      3021      3026      3034
      3026      3028      3031      3033      3026      3028      3031      3037
      3026      3034      3037      3031      3026      3034      3037      3039
      3028      3026      3034      3036      3028      3026      3034      3037
      3028      3031      3037      3034      3028      3031      3037      3039
      3030      3028      3026      3034      3030      3028      3031      3033
      3030      3028      3031      3037      3031      3028      3026      3034
      3031      3037      3034      3036      3033      3031      3037      3034
      3033      3031      3037      3039      3036      3034      3037      3039
      3041      3046      3048      3050      3041      3046      3048      3051
      3041      3046      3054      3056      3041      3046      3054      3057
      3043      3041      3046      3048      3043      3041      3046      3054
      3044      3041      3046      3048      3044      3041      3046      3054
      3045      3041      3046      3048      3045      3041      3046      3054
      3046      3048      3051      3053      3046      3048      3051      3057
      3046      3054      3057      3051      3046      3054      3057      3059
      3048      3046      3054      3056      3048      3046      3054      3057
      3048      3051      3057      3054      3048      3051      3057      3059
      3050      3048      3046      3054      3050      3048      3051      3053
      3050      3048      3051      3057      3051      3048      3046      3054
      3051      3057      3054      3056      3053      3051      3057      3054
      3053      3051      3057      3059      3056      3054      3057      3059
      3061      3066      3068      3070      3061      3066      3068      3071
      3061      3066      3074      3076      3061      3066      3074      3077
      3063      3061      3066      3068      3063      3061      3066      3074
      3064      3061      3066      3068      3064      3061      3066      3074
      3065      3061      3066      3068      3065      3061      3066      3074
      3066      3068      3071      3073      3066      3068      3071      3077
      3066      3074      3077      3071      3066      3074      3077      3079
      3068      3066      3074      3076      3068      3066      3074      3077
      3068      3071      3077      3074      3068      3071      3077      3079
      3070      3068      3066      3074      3070      3068      3071      3073
      3070      3068      3071      3077      3071      3068      3066      3074
      3071      3077      3074      3076      3073      3071      3077      3074
      3073      3071      3077      3079      3076      3074      3077      3079
      3081      3086      3088      3090      3081      3086      3088      3091
      3081      3086      3094      3096      3081      3086      3094      3097
      3083      3081      3086      3088      3083      3081      3086      3094
      3084      3081      3086      3088      3084      3081      3086      3094
      3085      3081      3086      3088      3085      3081      3086      3094
      3086      3088      3091      3093      3086      3088      3091      3097
      3086      3094      3097      3091      3086      3094      3097      3099
      3088      3086      3094      3096      3088      3086      3094      3097
      3088      3091      3097      3094      3088      3091      3097      3099
      3090      3088      3086      3094      3090      3088      3091      3093
      3090      3088      3091      3097      3091      3088      3086      3094
      3091      3097      3094      3096      3093      3091      3097      3094
      3093      3091      3097      3099      3096      3094      3097      3099
      3101      3106      3108      3110      3101      3106      3108      3111
      3101      3106      3114      3116      3101      3106      3114      3117
      3103      3101      3106      3108      3103      3101      3106      3114
      3104      3101      3106      3108      3104      3101      3106      3114
      3105      3101      3106      3108      3105      3101      3106      3114
      3106      3108      3111      3113      3106      3108      3111      3117
      3106      3114      3117      3111      3106      3114      3117      3119
      3108      3106      3114      3116      3108      3106      3114      3117
      3108      3111      3117      3114      3108      3111      3117      3119
      3110      3108      3106      3114      3110      3108      3111      3113
      3110      3108      3111      3117      3111      3108      3106      3114
      3111      3117      3114      3116      3113      3111      3117      3114
      3113      3111      3117      3119      3116      3114      3117      3119
      3121      3126      3128      3130      3121      3126      3128      3131
      3121      3126      3134      3136      3121      3126      3134      3137
      3123      3121      3126      3128      3123      3121      3126      3134
      3124      3121      3126      3128      3124      3121      3126      3134
      3125      3121      3126      3128      3125      3121      3126      3134
      3126      3128      3131      3133      3126      3128      3131      3137
      3126      3134      3137      3131      3126      3134      3137      3139
      3128      3126      3134      3136      3128      3126      3134      3137
      3128      3131      3137      3134      3128      3131      3137      3139
      3130      3128      3126      3134      3130      3128      3131      3133
      3130      3128      3131      3137      3131      3128      3126      3134
      3131      3137      3134      3136      3133      3131      3137      3134
      3133      3131      3137      3139      3136      3134      3137      3139
      3141      3146      3148      3150      3141      3146      3148      3151
      3141      3146      3154      3156      3141      3146      3154      3157
      3143      3141      3146      3148      3143      3141      3146      3154
      3144      3141      3146      3148      3144      3141      3146      3154
      3145      3141      3146      3148      3145      3141      3146      3154
      3146      3148      3151      3153      3146      3148      3151      3157
      3146      3154      3157      3151      3146      3154      3157      3159
      3148      3146      3154      3156      3148      3146      3154      3157
      3148      3151      3157      3154      3148      3151      3157      3159
      3150      3148      3146      3154      3150      3148      3151      3153
      3150      3148      3151      3157      3151      3148      3146      3154
      3151      3157      3154      3156      3153      3151      3157      3154
      3153      3151      3157      3159      3156      3154      3157      3159
      3161      3166      3168      3170      3161      3166      3168      3171
      3161      3166      3174      3176      3161      3166      3174      3177
      3163      3161      3166      3168      3163      3161      3166      3174
      3164      3161      3166      3168      3164      3161      3166      3174
      3165      3161      3166      3168      3165      3161      3166      3174
      3166      3168      3171      3173      3166      3168      3171      3177
      3166      3174      3177      3171      3166      3174      3177      3179
      3168      3166      3174      3176      3168      3166      3174      3177
      3168      3171      3177      3174      3168      3171      3177      3179
      3170      3168      3166      3174      3170      3168      3171      3173
      3170      3168      3171      3177      3171      3168      3166      3174
      3171      3177      3174      3176      3173      3171      3177      3174
      3173      3171      3177      3179      3176      3174      3177      3179
      3181      3186      3188      3190      3181      3186      3188      3191
      3181      3186      3194      3196      3181      3186      3194      3197
      3183      3181      3186      3188      3183      3181      3186      3194
      3184      3181      3186      3188      3184      3181      3186      3194
      3185      3181      3186      3188      3185      3181      3186      3194
      3186      3188      3191      3193      3186      3188      3191      3197
      3186      3194      3197      3191      3186      3194      3197      3199
      3188      3186      3194      3196      3188      3186      3194      3197
      3188      3191      3197      3194      3188      3191      3197      3199
      3190      3188      3186      3194      3190      3188      3191      3193
      3190      3188      3191      3197      3191      3188      3186      3194
      3191      3197      3194      3196      3193      3191      3197      3194
      3193      3191      3197      3199      3196      3194      3197      3199
      3201      3206      3208      3210      3201      3206      3208      3211
      3201      3206      3214      3216      3201      3206      3214      3217
      3203      3201      3206      3208      3203      3201      3206      3214
      3204      3201      3206      3208      3204      3201      3206      3214
      3205      3201      3206      3208      3205      3201      3206      3214
      3206      3208      3211      3213      3206      3208      3211      3217
      3206      3214      3217      3211      3206      3214      3217      3219
      3208      3206      3214      3216      3208      3206      3214      3217
      3208      3211      3217      3214      3208      3211      3217      3219
      3210      3208      3206      3214      3210      3208      3211      3213
      3210      3208      3211      3217      3211      3208      3206      3214
      3211      3217      3214      3216      3213      3211      3217      3214
      3213      3211      3217      3219      3216      3214      3217      3219
      3221      3226      3228      3230      3221      3226      3228      3231
      3221      3226      3234      3236      3221      3226      3234      3237
      3223      3221      3226      3228      3223      3221      3226      3234
      3224      3221      3226      3228      3224      3221      3226      3234
      3225      3221      3226      3228      3225      3221      3226      3234
      3226      3228      3231      3233      3226      3228      3231      3237
      3226      3234      3237      3231      3226      3234      3237      3239
      3228      3226      3234      3236      3228      3226      3234      3237
      3228      3231      3237      3234      3228      3231      3237      3239
      3230      3228      3226      3234      3230      3228      3231      3233
      3230      3228      3231      3237      3231      3228      3226      3234
      3231      3237      3234      3236      3233      3231      3237      3234
      3233      3231      3237      3239      3236      3234      3237      3239
      3241      3246      3248      3250      3241      3246      3248      3251
      3241      3246      3254      3256      3241      3246      3254      3257
      3243      3241      3246      3248      3243      3241      3246      3254
      3244      3241      3246      3248      3244      3241      3246      3254
      3245      3241      3246      3248      3245      3241      3246      3254
      3246      3248      3251      3253      3246      3248      3251      3257
      3246      3254      3257      3251      3246      3254      3257      3259
      3248      3246      3254      3256      3248      3246      3254      3257
      3248      3251      3257      3254      3248      3251      3257      3259
      3250      3248      3246      3254      3250      3248      3251      3253
      3250      3248      3251      3257      3251      3248      3246      3254
      3251      3257      3254      3256      3253      3251      3257      3254
      3253      3251      3257      3259      3256      3254      3257      3259
      3261      3266      3268      3270      3261      3266      3268      3271
      3261      3266      3274      3276      3261      3266      3274      3277
      3263      3261      3266      3268      3263      3261      3266      3274
      3264      3261      3266      3268      3264      3261      3266      3274
      3265      3261      3266      3268      3265      3261      3266      3274
      3266      3268      3271      3273      3266      3268      3271      3277
      3266      3274      3277      3271      3266      3274      3277      3279
      3268      3266      3274      3276      3268      3266      3274      3277
      3268      3271      3277      3274      3268      3271      3277      3279
      3270      3268      3266      3274      3270      3268      3271      3273
      3270      3268      3271      3277      3271      3268      3266      3274
      3271      3277      3274      3276      3273      3271      3277      3274
      3273      3271      3277      3279      3276      3274      3277      3279
      3281      3286      3288      3290      3281      3286      3288      3291
      3281      3286      3294      3296      3281      3286      3294      3297
      3283      3281      3286      3288      3283      3281      3286      3294
      3284      3281      3286      3288      3284      3281      3286      3294
      3285      3281      3286      3288      3285      3281      3286      3294
      3286      3288      3291      3293      3286      3288      3291      3297
      3286      3294      3297      3291      3286      3294      3297      3299
      3288      3286      3294      3296      3288      3286      3294      3297
      3288      3291      3297      3294      3288      3291      3297      3299
      3290      3288      3286      3294      3290      3288      3291      3293
      3290      3288      3291      3297      3291      3288      3286      3294
      3291      3297      3294      3296      3293      3291      3297      3294
      3293      3291      3297      3299      3296      3294      3297      3299
      3301      3306      3308      3310      3301      3306      3308      3311
      3301      3306      3314      3316      3301      3306      3314      3317
      3303      3301      3306      3308      3303      3301      3306      3314
      3304      3301      3306      3308      3304      3301      3306      3314
      3305      3301      3306      3308      3305      3301      3306      3314
      3306      3308      3311      3313      3306      3308      3311      3317
      3306      3314      3317      3311      3306      3314      3317      3319
      3308      3306      3314      3316      3308      3306      3314      3317
      3308      3311      3317      3314      3308      3311      3317      3319
      3310      3308      3306      3314      3310      3308      3311      3313
      3310      3308      3311      3317      3311      3308      3306      3314
      3311      3317      3314      3316      3313      3311      3317      3314
      3313      3311      3317      3319      3316      3314      3317      3319
      3321      3326      3328      3330      3321      3326      3328      3331
      3321      3326      3334      3336      3321      3326      3334      3337
      3323      3321      3326      3328      3323      3321      3326      3334
      3324      3321      3326      3328      3324      3321      3326      3334
      3325      3321      3326      3328      3325      3321      3326      3334
      3326      3328      3331      3333      3326      3328      3331      3337
      3326      3334      3337      3331      3326      3334      3337      3339
      3328      3326      3334      3336      3328      3326      3334      3337
      3328      3331      3337      3334      3328      3331      3337      3339
      3330      3328      3326      3334      3330      3328      3331      3333
      3330      3328      3331      3337      3331      3328      3326      3334
      3331      3337      3334      3336      3333      3331      3337      3334
      3333      3331      3337      3339      3336      3334      3337      3339
      3341      3346      3348      3350      3341      3346      3348      3351
      3341      3346      3354      3356      3341      3346      3354      3357
      3343      3341      3346      3348      3343      3341      3346      3354
      3344      3341      3346      3348      3344      3341      3346      3354
      3345      3341      3346      3348      3345      3341      3346      3354
      3346      3348      3351      3353      3346      3348      3351      3357
      3346      3354      3357      3351      3346      3354      3357      3359
      3348      3346      3354      3356      3348      3346      3354      3357
      3348      3351      3357      3354      3348      3351      3357      3359
      3350      3348      3346      3354      3350      3348      3351      3353
      3350      3348      3351      3357      3351      3348      3346      3354
      3351      3357      3354      3356      3353      3351      3357      3354
      3353      3351      3357      3359      3356      3354      3357      3359
      3361      3366      3368      3370      3361      3366      3368      3371
      3361      3366      3374      3376      3361      3366      3374      3377
      3363      3361      3366      3368      3363      3361      3366      3374
      3364      3361      3366      3368      3364      3361      3366      3374
      3365      3361      3366      3368      3365      3361      3366      3374
      3366      3368      3371      3373      3366      3368      3371      3377
      3366      3374      3377      3371      3366      3374      3377      3379
      3368      3366      3374      3376      3368      3366      3374      3377
      3368      3371      3377      3374      3368      3371      3377      3379
      3370      3368      3366      3374      3370      3368      3371      3373
      3370      3368      3371      3377      3371      3368      3366      3374
      3371      3377      3374      3376      3373      3371      3377      3374
      3373      3371      3377      3379      3376      3374      3377      3379
      3381      3386      3388      3390      3381      3386      3388      3391
      3381      3386      3394      3396      3381      3386      3394      3397
      3383      3381      3386      3388      3383      3381      3386      3394
      3384      3381      3386      3388      3384      3381      3386      3394
      3385      3381      3386      3388      3385      3381      3386      3394
      3386      3388      3391      3393      3386      3388      3391      3397
      3386      3394      3397      3391      3386      3394      3397      3399
      3388      3386      3394      3396      3388      3386      3394      3397
      3388      3391      3397      3394      3388      3391      3397      3399
      3390      3388      3386      3394      3390      3388      3391      3393
      3390      3388      3391      3397      3391      3388      3386      3394
      3391      3397      3394      3396      3393      3391      3397      3394
      3393      3391      3397      3399      3396      3394      3397      3399
      3401      3406      3408      3410      3401      3406      3408      3411
      3401      3406      3414      3416      3401      3406      3414      3417
      3403      3401      3406      3408      3403      3401      3406      3414
      3404      3401      3406      3408      3404      3401      3406      3414
      3405      3401      3406      3408      3405      3401      3406      3414
      3406      3408      3411      3413      3406      3408      3411      3417
      3406      3414      3417      3411      3406      3414      3417      3419
      3408      3406      3414      3416      3408      3406      3414      3417
      3408      3411      3417      3414      3408      3411      3417      3419
      3410      3408      3406      3414      3410      3408      3411      3413
      3410      3408      3411      3417      3411      3408      3406      3414
      3411      3417      3414      3416      3413      3411      3417      3414
      3413      3411      3417      3419      3416      3414      3417      3419
      3421      3426      3428      3430      3421      3426      3428      3431
      3421      3426      3434      3436      3421      3426      3434      3437
      3423      3421      3426      3428      3423      3421      3426      3434
      3424      3421      3426      3428      3424      3421      3426      3434
      3425      3421      3426      3428      3425      3421      3426      3434
      3426      3428      3431      3433      3426      3428      3431      3437
      3426      3434      3437      3431      3426      3434      3437      3439
      3428      3426      3434      3436      3428      3426      3434      3437
      3428      3431      3437      3434      3428      3431      3437      3439
      3430      3428      3426      3434      3430      3428      3431      3433
      3430      3428      3431      3437      3431      3428      3426      3434
      3431      3437      3434      3436      3433      3431      3437      3434
      3433      3431      3437      3439      3436      3434      3437      3439
      3441      3446      3448      3450      3441      3446      3448      3451
      3441      3446      3454      3456      3441      3446      3454      3457
      3443      3441      3446      3448      3443      3441      3446      3454
      3444      3441      3446      3448      3444      3441      3446      3454
      3445      3441      3446      3448      3445      3441      3446      3454
      3446      3448      3451      3453      3446      3448      3451      3457
      3446      3454      3457      3451      3446      3454      3457      3459
      3448      3446      3454      3456      3448      3446      3454      3457
      3448      3451      3457      3454      3448      3451      3457      3459
      3450      3448      3446      3454      3450      3448      3451      3453
      3450      3448      3451      3457      3451      3448      3446      3454
      3451      3457      3454      3456      3453      3451      3457      3454
      3453      3451      3457      3459      3456      3454      3457      3459
      3461      3466      3468      3470      3461      3466      3468      3471
      3461      3466      3474      3476      3461      3466      3474      3477
      3463      3461      3466      3468      3463      3461      3466      3474
      3464      3461      3466      3468      3464      3461      3466      3474
      3465      3461      3466      3468      3465      3461      3466      3474
      3466      3468      3471      3473      3466      3468      3471      3477
      3466      3474      3477      3471      3466      3474      3477      3479
      3468      3466      3474      3476      3468      3466      3474      3477
      3468      3471      3477      3474      3468      3471      3477      3479
      3470      3468      3466      3474      3470      3468      3471      3473
      3470      3468      3471      3477      3471      3468      3466      3474
      3471      3477      3474      3476      3473      3471      3477      3474
      3473      3471      3477      3479      3476      3474      3477      3479
      3481      3486      3488      3490      3481      3486      3488      3491
      3481      3486      3494      3496      3481      3486      3494      3497
      3483      3481      3486      3488      3483      3481      3486      3494
      3484      3481      3486      3488      3484      3481      3486      3494
      3485      3481      3486      3488      3485      3481      3486      3494
      3486      3488      3491      3493      3486      3488      3491      3497
      3486      3494      3497      3491      3486      3494      3497      3499
      3488      3486      3494      3496      3488      3486      3494      3497
      3488      3491      3497      3494      3488      3491      3497      3499
      3490      3488      3486      3494      3490      3488      3491      3493
      3490      3488      3491      3497      3491      3488      3486      3494
      3491      3497      3494      3496      3493      3491      3497      3494
      3493      3491      3497      3499      3496      3494      3497      3499
      3501      3506      3508      3510      3501      3506      3508      3511
      3501      3506      3514      3516      3501      3506      3514      3517
      3503      3501      3506      3508      3503      3501      3506      3514
      3504      3501      3506      3508      3504      3501      3506      3514
      3505      3501      3506      3508      3505      3501      3506      3514
      3506      3508      3511      3513      3506      3508      3511      3517
      3506      3514      3517      3511      3506      3514      3517      3519
      3508      3506      3514      3516      3508      3506      3514      3517
      3508      3511      3517      3514      3508      3511      3517      3519
      3510      3508      3506      3514      3510      3508      3511      3513
      3510      3508      3511      3517      3511      3508      3506      3514
      3511      3517      3514      3516      3513      3511      3517      3514
      3513      3511      3517      3519      3516      3514      3517      3519
      3521      3526      3528      3530      3521      3526      3528      3531
      3521      3526      3534      3536      3521      3526      3534      3537
      3523      3521      3526      3528      3523      3521      3526      3534
      3524      3521      3526      3528      3524      3521      3526      3534
      3525      3521      3526      3528      3525      3521      3526      3534
      3526      3528      3531      3533      3526      3528      3531      3537
      3526      3534      3537      3531      3526      3534      3537      3539
      3528      3526      3534      3536      3528      3526      3534      3537
      3528      3531      3537      3534      3528      3531      3537      3539
      3530      3528      3526      3534      3530      3528      3531      3533
      3530      3528      3531      3537      3531      3528      3526      3534
      3531      3537      3534      3536      3533      3531      3537      3534
      3533      3531      3537      3539      3536      3534      3537      3539
      3541      3546      3548      3550      3541      3546      3548      3551
      3541      3546      3554      3556      3541      3546      3554      3557
      3543      3541      3546      3548      3543      3541      3546      3554
      3544      3541      3546      3548      3544      3541      3546      3554
      3545      3541      3546      3548      3545      3541      3546      3554
      3546      3548      3551      3553      3546      3548      3551      3557
      3546      3554      3557      3551      3546      3554      3557      3559
      3548      3546      3554      3556      3548      3546      3554      3557
      3548      3551      3557      3554      3548      3551      3557      3559
      3550      3548      3546      3554      3550      3548      3551      3553
      3550      3548      3551      3557      3551      3548      3546      3554
      3551      3557      3554      3556      3553      3551      3557      3554
      3553      3551      3557      3559      3556      3554      3557      3559
      3561      3566      3568      3570      3561      3566      3568      3571
      3561      3566      3574      3576      3561      3566      3574      3577
      3563      3561      3566      3568      3563      3561      3566      3574
      3564      3561      3566      3568      3564      3561      3566      3574
      3565      3561      3566      3568      3565      3561      3566      3574
      3566      3568      3571      3573      3566      3568      3571      3577
      3566      3574      3577      3571      3566      3574      3577      3579
      3568      3566      3574      3576      3568      3566      3574      3577
      3568      3571      3577      3574      3568      3571      3577      3579
      3570      3568      3566      3574      3570      3568      3571      3573
      3570      3568      3571      3577      3571      3568      3566      3574
      3571      3577      3574      3576      3573      3571      3577      3574
      3573      3571      3577      3579      3576      3574      3577      3579
      3581      3586      3588      3590      3581      3586      3588      3591
      3581      3586      3594      3596      3581      3586      3594      3597
      3583      3581      3586      3588      3583      3581      3586      3594
      3584      3581      3586      3588      3584      3581      3586      3594
      3585      3581      3586      3588      3585      3581      3586      3594
      3586      3588      3591      3593      3586      3588      3591      3597
      3586      3594      3597      3591      3586      3594      3597      3599
      3588      3586      3594      3596      3588      3586      3594      3597
      3588      3591      3597      3594      3588      3591      3597      3599
      3590      3588      3586      3594      3590      3588      3591      3593
      3590      3588      3591      3597      3591      3588      3586      3594
      3591      3597      3594      3596      3593      3591      3597      3594
      3593      3591      3597      3599      3596      3594      3597      3599
      3601      3606      3608      3610      3601      3606      3608      3611
      3601      3606      3614      3616      3601      3606      3614      3617
      3603      3601      3606      3608      3603      3601      3606      3614
      3604      3601      3606      3608      3604      3601      3606      3614
      3605      3601      3606      3608      3605      3601      3606      3614
      3606      3608      3611      3613      3606      3608      3611      3617
      3606      3614      3617      3611      3606      3614      3617      3619
      3608      3606      3614      3616      3608      3606      3614      3617
      3608      3611      3617      3614      3608      3611      3617      3619
      3610      3608      3606      3614      3610      3608      3611      3613
      3610      3608      3611      3617      3611      3608      3606      3614
      3611      3617      3614      3616      3613      3611      3617      3614
      3613      3611      3617      3619      3616      3614      3617      3619
      3621      3626      3628      3630      3621      3626      3628      3631
      3621      3626      3634      3636      3621      3626      3634      3637
      3623      3621      3626      3628      3623      3621      3626      3634
      3624      3621      3626      3628      3624      3621      3626      3634
      3625      3621      3626      3628      3625      3621      3626      3634
      3626      3628      3631      3633      3626      3628      3631      3637
      3626      3634      3637      3631      3626      3634      3637      3639
      3628      3626      3634      3636      3628      3626      3634      3637
      3628      3631      3637      3634      3628      3631      3637      3639
      3630      3628      3626      3634      3630      3628      3631      3633
      3630      3628      3631      3637      3631      3628      3626      3634
      3631      3637      3634      3636      3633      3631      3637      3634
      3633      3631      3637      3639      3636      3634      3637      3639
      3641      3646      3648      3650      3641      3646      3648      3651
      3641      3646      3654      3656      3641      3646      3654      3657
      3643      3641      3646      3648      3643      3641      3646      3654
      3644      3641      3646      3648      3644      3641      3646      3654
      3645      3641      3646      3648      3645      3641      3646      3654
      3646      3648      3651      3653      3646      3648      3651      3657
      3646      3654      3657      3651      3646      3654      3657      3659
      3648      3646      3654      3656      3648      3646      3654      3657
      3648      3651      3657      3654      3648      3651      3657      3659
      3650      3648      3646      3654      3650      3648      3651      3653
      3650      3648      3651      3657      3651      3648      3646      3654
      3651      3657      3654      3656      3653      3651      3657      3654
      3653      3651      3657      3659      3656      3654      3657      3659
      3661      3666      3668      3670      3661      3666      3668      3671
      3661      3666      3674      3676      3661      3666      3674      3677
      3663      3661      3666      3668      3663      3661      3666      3674
      3664      3661      3666      3668      3664      3661      3666      3674
      3665      3661      3666      3668      3665      3661      3666      3674
      3666      3668      3671      3673      3666      3668      3671      3677
      3666      3674      3677      3671      3666      3674      3677      3679
      3668      3666      3674      3676      3668      3666      3674      3677
      3668      3671      3677      3674      3668      3671      3677      3679
      3670      3668      3666      3674      3670      3668      3671      3673
      3670      3668      3671      3677      3671      3668      3666      3674
      3671      3677      3674      3676      3673      3671      3677      3674
      3673      3671      3677      3679      3676      3674      3677      3679
      3681      3686      3688      3690      3681      3686      3688      3691
      3681      3686      3694      3696      3681      3686      3694      3697
      3683      3681      3686      3688      3683      3681      3686      3694
      3684      3681      3686      3688      3684      3681      3686      3694
      3685      3681      3686      3688      3685      3681      3686      3694
      3686      3688      3691      3693      3686      3688      3691      3697
      3686      3694      3697      3691      3686      3694      3697      3699
      3688      3686      3694      3696      3688      3686      3694      3697
      3688      3691      3697      3694      3688      3691      3697      3699
      3690      3688      3686      3694      3690      3688      3691      3693
      3690      3688      3691      3697      3691      3688      3686      3694
      3691      3697      3694      3696      3693      3691      3697      3694
      3693      3691      3697      3699      3696      3694      3697      3699
      3701      3706      3708      3710      3701      3706      3708      3711
      3701      3706      3714      3716      3701      3706      3714      3717
      3703      3701      3706      3708      3703      3701      3706      3714
      3704      3701      3706      3708      3704      3701      3706      3714
      3705      3701      3706      3708      3705      3701      3706      3714
      3706      3708      3711      3713      3706      3708      3711      3717
      3706      3714      3717      3711      3706      3714      3717      3719
      3708      3706      3714      3716      3708      3706      3714      3717
      3708      3711      3717      3714      3708      3711      3717      3719
      3710      3708      3706      3714      3710      3708      3711      3713
      3710      3708      3711      3717      3711      3708      3706      3714
      3711      3717      3714      3716      3713      3711      3717      3714
      3713      3711      3717      3719      3716      3714      3717      3719
      3721      3726      3728      3730      3721      3726      3728      3731
      3721      3726      3734      3736      3721      3726      3734      3737
      3723      3721      3726      3728      3723      3721      3726      3734
      3724      3721      3726      3728      3724      3721      3726      3734
      3725      3721      3726      3728      3725      3721      3726      3734
      3726      3728      3731      3733      3726      3728      3731      3737
      3726      3734      3737      3731      3726      3734      3737      3739
      3728      3726      3734      3736      3728      3726      3734      3737
      3728      3731      3737      3734      3728      3731      3737      3739
      3730      3728      3726      3734      3730      3728      3731      3733
      3730      3728      3731      3737      3731      3728      3726      3734
      3731      3737      3734      3736      3733      3731      3737      3734
      3733      3731      3737      3739      3736      3734      3737      3739
      3741      3746      3748      3750      3741      3746      3748      3751
      3741      3746      3754      3756      3741      3746      3754      3757
      3743      3741      3746      3748      3743      3741      3746      3754
      3744      3741      3746      3748      3744      3741      3746      3754
      3745      3741      3746      3748      3745      3741      3746      3754
      3746      3748      3751      3753      3746      3748      3751      3757
      3746      3754      3757      3751      3746      3754      3757      3759
      3748      3746      3754      3756      3748      3746      3754      3757
      3748      3751      3757      3754      3748      3751      3757      3759
      3750      3748      3746      3754      3750      3748      3751      3753
      3750      3748      3751      3757      3751      3748      3746      3754
      3751      3757      3754      3756      3753      3751      3757      3754
      3753      3751      3757      3759      3756      3754      3757      3759
      3761      3766      3768      3770      3761      3766      3768      3771
      3761      3766      3774      3776      3761      3766      3774      3777
      3763      3761      3766      3768      3763      3761      3766      3774
      3764      3761      3766      3768      3764      3761      3766      3774
      3765      3761      3766      3768      3765      3761      3766      3774
      3766      3768      3771      3773      3766      3768      3771      3777
      3766      3774      3777      3771      3766      3774      3777      3779
      3768      3766      3774      3776      3768      3766      3774      3777
      3768      3771      3777      3774      3768      3771      3777      3779
      3770      3768      3766      3774      3770      3768      3771      3773
      3770      3768      3771      3777      3771      3768      3766      3774
      3771      3777      3774      3776      3773      3771      3777      3774
      3773      3771      3777      3779      3776      3774      3777      3779
      3781      3786      3788      3790      3781      3786      3788      3791
      3781      3786      3794      3796      3781      3786      3794      3797
      3783      3781      3786      3788      3783      3781      3786      3794
      3784      3781      3786      3788      3784      3781      3786      3794
      3785      3781      3786      3788      3785      3781      3786      3794
      3786      3788      3791      3793      3786      3788      3791      3797
      3786      3794      3797      3791      3786      3794      3797      3799
      3788      3786      3794      3796      3788      3786      3794      3797
      3788      3791      3797      3794      3788      3791      3797      3799
      3790      3788      3786      3794      3790      3788      3791      3793
      3790      3788      3791      3797      3791      3788      3786      3794
      3791      3797      3794      3796      3793      3791      3797      3794
      3793      3791      3797      3799      3796      3794      3797      3799
      3801      3806      3808      3810      3801      3806      3808      3811
      3801      3806      3814      3816      3801      3806      3814      3817
      3803      3801      3806      3808      3803      3801      3806      3814
      3804      3801      3806      3808      3804      3801      3806      3814
      3805      3801      3806      3808      3805      3801      3806      3814
      3806      3808      3811      3813      3806      3808      3811      3817
      3806      3814      3817      3811      3806      3814      3817      3819
      3808      3806      3814      3816      3808      3806      3814      3817
      3808      3811      3817      3814      3808      3811      3817      3819
      3810      3808      3806      3814      3810      3808      3811      3813
      3810      3808      3811      3817      3811      3808      3806      3814
      3811      3817      3814      3816      3813      3811      3817      3814
      3813      3811      3817      3819      3816      3814      3817      3819
      3821      3826      3828      3830      3821      3826      3828      3831
      3821      3826      3834      3836      3821      3826      3834      3837
      3823      3821      3826      3828      3823      3821      3826      3834
      3824      3821      3826      3828      3824      3821      3826      3834
      3825      3821      3826      3828      3825      3821      3826      3834
      3826      3828      3831      3833      3826      3828      3831      3837
      3826      3834      3837      3831      3826      3834      3837      3839
      3828      3826      3834      3836      3828      3826      3834      3837
      3828      3831      3837      3834      3828      3831      3837      3839
      3830      3828      3826      3834      3830      3828      3831      3833
      3830      3828      3831      3837      3831      3828      3826      3834
      3831      3837      3834      3836      3833      3831      3837      3834
      3833      3831      3837      3839      3836      3834      3837      3839
      3841      3846      3848      3850      3841      3846      3848      3851
      3841      3846      3854      3856      3841      3846      3854      3857
      3843      3841      3846      3848      3843      3841      3846      3854
      3844      3841      3846      3848      3844      3841      3846      3854
      3845      3841      3846      3848      3845      3841      3846      3854
      3846      3848      3851      3853      3846      3848      3851      3857
      3846      3854      3857      3851      3846      3854      3857      3859
      3848      3846      3854      3856      3848      3846      3854      3857
      3848      3851      3857      3854      3848      3851      3857      3859
      3850      3848      3846      3854      3850      3848      3851      3853
      3850      3848      3851      3857      3851      3848      3846      3854
      3851      3857      3854      3856      3853      3851      3857      3854
      3853      3851      3857      3859      3856      3854      3857      3859
      3861      3866      3868      3870      3861      3866      3868      3871
      3861      3866      3874      3876      3861      3866      3874      3877
      3863      3861      3866      3868      3863      3861      3866      3874
      3864      3861      3866      3868      3864      3861      3866      3874
      3865      3861      3866      3868      3865      3861      3866      3874
      3866      3868      3871      3873      3866      3868      3871      3877
      3866      3874      3877      3871      3866      3874      3877      3879
      3868      3866      3874      3876      3868      3866      3874      3877
      3868      3871      3877      3874      3868      3871      3877      3879
      3870      3868      3866      3874      3870      3868      3871      3873
      3870      3868      3871      3877      3871      3868      3866      3874
      3871      3877      3874      3876      3873      3871      3877      3874
      3873      3871      3877      3879      3876      3874      3877      3879
      3881      3886      3888      3890      3881      3886      3888      3891
      3881      3886      3894      3896      3881      3886      3894      3897
      3883      3881      3886      3888      3883      3881      3886      3894
      3884      3881      3886      3888      3884      3881      3886      3894
      3885      3881      3886      3888      3885      3881      3886      3894
      3886      3888      3891      3893      3886      3888      3891      3897
      3886      3894      3897      3891      3886      3894      3897      3899
      3888      3886      3894      3896      3888      3886      3894      3897
      3888      3891      3897      3894      3888      3891      3897      3899
      3890      3888      3886      3894      3890      3888      3891      3893
      3890      3888      3891      3897      3891      3888      3886      3894
      3891      3897      3894      3896      3893      3891      3897      3894
      3893      3891      3897      3899      3896      3894      3897      3899
      3901      3906      3908      3910      3901      3906      3908      3911
      3901      3906      3914      3916      3901      3906      3914      3917
      3903      3901      3906      3908      3903      3901      3906      3914
      3904      3901      3906      3908      3904      3901      3906      3914
      3905      3901      3906      3908      3905      3901      3906      3914
      3906      3908      3911      3913      3906      3908      3911      3917
      3906      3914      3917      3911      3906      3914      3917      3919
      3908      3906      3914      3916      3908      3906      3914      3917
      3908      3911      3917      3914      3908      3911      3917      3919
      3910      3908      3906      3914      3910      3908      3911      3913
      3910      3908      3911      3917      3911      3908      3906      3914
      3911      3917      3914      3916      3913      3911      3917      3914
      3913      3911      3917      3919      3916      3914      3917      3919
      3921      3926      3928      3930      3921      3926      3928      3931
      3921      3926      3934      3936      3921      3926      3934      3937
      3923      3921      3926      3928      3923      3921      3926      3934
      3924      3921      3926      3928      3924      3921      3926      3934
      3925      3921      3926      3928      3925      3921      3926      3934
      3926      3928      3931      3933      3926      3928      3931      3937
      3926      3934      3937      3931      3926      3934      3937      3939
      3928      3926      3934      3936      3928      3926      3934      3937
      3928      3931      3937      3934      3928      3931      3937      3939
      3930      3928      3926      3934      3930      3928      3931      3933
      3930      3928      3931      3937      3931      3928      3926      3934
      3931      3937      3934      3936      3933      3931      3937      3934
      3933      3931      3937      3939      3936      3934      3937      3939
      3941      3946      3948      3950      3941      3946      3948      3951
      3941      3946      3954      3956      3941      3946      3954      3957
      3943      3941      3946      3948      3943      3941      3946      3954
      3944      3941      3946      3948      3944      3941      3946      3954
      3945      3941      3946      3948      3945      3941      3946      3954
      3946      3948      3951      3953      3946      3948      3951      3957
      3946      3954      3957      3951      3946      3954      3957      3959
      3948      3946      3954      3956      3948      3946      3954      3957
      3948      3951      3957      3954      3948      3951      3957      3959
      3950      3948      3946      3954      3950      3948      3951      3953
      3950      3948      3951      3957      3951      3948      3946      3954
      3951      3957      3954      3956      3953      3951      3957      3954
      3953      3951      3957      3959      3956      3954      3957      3959
      3961      3966      3968      3970      3961      3966      3968      3971
      3961      3966      3974      3976      3961      3966      3974      3977
      3963      3961      3966      3968      3963      3961      3966      3974
      3964      3961      3966      3968      3964      3961      3966      3974
      3965      3961      3966      3968      3965      3961      3966      3974
      3966      3968      3971      3973      3966      3968      3971      3977
      3966      3974      3977      3971      3966      3974      3977      3979
      3968      3966      3974      3976      3968      3966      3974      3977
      3968      3971      3977      3974      3968      3971      3977      3979
      3970      3968      3966      3974      3970      3968      3971      3973
      3970      3968      3971      3977      3971      3968      3966      3974
      3971      3977      3974      3976      3973      3971      3977      3974
      3973      3971      3977      3979      3976      3974      3977      3979
      3981      3986      3988      3990      3981      3986      3988      3991
      3981      3986      3994      3996      3981      3986      3994      3997
      3983      3981      3986      3988      3983      3981      3986      3994
      3984      3981      3986      3988      3984      3981      3986      3994
      3985      3981      3986      3988      3985      3981      3986      3994
      3986      3988      3991      3993      3986      3988      3991      3997
      3986      3994      3997      3991      3986      3994      3997      3999
      3988      3986      3994      3996      3988      3986      3994      3997
      3988      3991      3997      3994      3988      3991      3997      3999
      3990      3988      3986      3994      3990      3988      3991      3993
      3990      3988      3991      3997      3991      3988      3986      3994
      3991      3997      3994      3996      3993      3991      3997      3994
      3993      3991      3997      3999      3996      3994      3997      3999
      4001      4006      4008      4010      4001      4006      4008      4011
      4001      4006      4014      4016      4001      4006      4014      4017
      4003      4001      4006      4008      4003      4001      4006      4014
      4004      4001      4006      4008      4004      4001      4006      4014
      4005      4001      4006      4008      4005      4001      4006      4014
      4006      4008      4011      4013      4006      4008      4011      4017
      4006      4014      4017      4011      4006      4014      4017      4019
      4008      4006      4014      4016      4008      4006      4014      4017
      4008      4011      4017      4014      4008      4011      4017      4019
      4010      4008      4006      4014      4010      4008      4011      4013
      4010      4008      4011      4017      4011      4008      4006      4014
      4011      4017      4014      4016      4013      4011      4017      4014
      4013      4011      4017      4019      4016      4014      4017      4019
      4021      4026      4028      4030      4021      4026      4028      4031
      4021      4026      4034      4036      4021      4026      4034      4037
      4023      4021      4026      4028      4023      4021      4026      4034
      4024      4021      4026      4028      4024      4021      4026      4034
      4025      4021      4026      4028      4025      4021      4026      4034
      4026      4028      4031      4033      4026      4028      4031      4037
      4026      4034      4037      4031      4026      4034      4037      4039
      4028      4026      4034      4036      4028      4026      4034      4037
      4028      4031      4037      4034      4028      4031      4037      4039
      4030      4028      4026      4034      4030      4028      4031      4033
      4030      4028      4031      4037      4031      4028      4026      4034
      4031      4037      4034      4036      4033      4031      4037      4034
      4033      4031      4037      4039      4036      4034      4037      4039
      4041      4046      4048      4050      4041      4046      4048      4051
      4041      4046      4054      4056      4041      4046      4054      4057
      4043      4041      4046      4048      4043      4041      4046      4054
      4044      4041      4046      4048      4044      4041      4046      4054
      4045      4041      4046      4048      4045      4041      4046      4054
      4046      4048      4051      4053      4046      4048      4051      4057
      4046      4054      4057      4051      4046      4054      4057      4059
      4048      4046      4054      4056      4048      4046      4054      4057
      4048      4051      4057      4054      4048      4051      4057      4059
      4050      4048      4046      4054      4050      4048      4051      4053
      4050      4048      4051      4057      4051      4048      4046      4054
      4051      4057      4054      4056      4053      4051      4057      4054
      4053      4051      4057      4059      4056      4054      4057      4059
      4061      4066      4068      4070      4061      4066      4068      4071
      4061      4066      4074      4076      4061      4066      4074      4077
      4063      4061      4066      4068      4063      4061      4066      4074
      4064      4061      4066      4068      4064      4061      4066      4074
      4065      4061      4066      4068      4065      4061      4066      4074
      4066      4068      4071      4073      4066      4068      4071      4077
      4066      4074      4077      4071      4066      4074      4077      4079
      4068      4066      4074      4076      4068      4066      4074      4077
      4068      4071      4077      4074      4068      4071      4077      4079
      4070      4068      4066      4074      4070      4068      4071      4073
      4070      4068      4071      4077      4071      4068      4066      4074
      4071      4077      4074      4076      4073      4071      4077      4074
      4073      4071      4077      4079      4076      4074      4077      4079
      4081      4086      4088      4090      4081      4086      4088      4091
      4081      4086      4094      4096      4081      4086      4094      4097
      4083      4081      4086      4088      4083      4081      4086      4094
      4084      4081      4086      4088      4084      4081      4086      4094
      4085      4081      4086      4088      4085      4081      4086      4094
      4086      4088      4091      4093      4086      4088      4091      4097
      4086      4094      4097      4091      4086      4094      4097      4099
      4088      4086      4094      4096      4088      4086      4094      4097
      4088      4091      4097      4094      4088      4091      4097      4099
      4090      4088      4086      4094      4090      4088      4091      4093
      4090      4088      4091      4097      4091      4088      4086      4094
      4091      4097      4094      4096      4093      4091      4097      4094
      4093      4091      4097      4099      4096      4094      4097      4099
      4101      4106      4108      4110      4101      4106      4108      4111
      4101      4106      4114      4116      4101      4106      4114      4117
      4103      4101      4106      4108      4103      4101      4106      4114
      4104      4101      4106      4108      4104      4101      4106      4114
      4105      4101      4106      4108      4105      4101      4106      4114
      4106      4108      4111      4113      4106      4108      4111      4117
      4106      4114      4117      4111      4106      4114      4117      4119
      4108      4106      4114      4116      4108      4106      4114      4117
      4108      4111      4117      4114      4108      4111      4117      4119
      4110      4108      4106      4114      4110      4108      4111      4113
      4110      4108      4111      4117      4111      4108      4106      4114
      4111      4117      4114      4116      4113      4111      4117      4114
      4113      4111      4117      4119      4116      4114      4117      4119
      4121      4126      4128      4130      4121      4126      4128      4131
      4121      4126      4134      4136      4121      4126      4134      4137
      4123      4121      4126      4128      4123      4121      4126      4134
      4124      4121      4126      4128      4124      4121      4126      4134
      4125      4121      4126      4128      4125      4121      4126      4134
      4126      4128      4131      4133      4126      4128      4131      4137
      4126      4134      4137      4131      4126      4134      4137      4139
      4128      4126      4134      4136      4128      4126      4134      4137
      4128      4131      4137      4134      4128      4131      4137      4139
      4130      4128      4126      4134      4130      4128      4131      4133
      4130      4128      4131      4137      4131      4128      4126      4134
      4131      4137      4134      4136      4133      4131      4137      4134
      4133      4131      4137      4139      4136      4134      4137      4139
      4141      4146      4148      4150      4141      4146      4148      4151
      4141      4146      4154      4156      4141      4146      4154      4157
      4143      4141      4146      4148      4143      4141      4146      4154
      4144      4141      4146      4148      4144      4141      4146      4154
      4145      4141      4146      4148      4145      4141      4146      4154
      4146      4148      4151      4153      4146      4148      4151      4157
      4146      4154      4157      4151      4146      4154      4157      4159
      4148      4146      4154      4156      4148      4146      4154      4157
      4148      4151      4157      4154      4148      4151      4157      4159
      4150      4148      4146      4154      4150      4148      4151      4153
      4150      4148      4151      4157      4151      4148      4146      4154
      4151      4157      4154      4156      4153      4151      4157      4154
      4153      4151      4157      4159      4156      4154      4157      4159
      4161      4166      4168      4170      4161      4166      4168      4171
      4161      4166      4174      4176      4161      4166      4174      4177
      4163      4161      4166      4168      4163      4161      4166      4174
      4164      4161      4166      4168      4164      4161      4166      4174
      4165      4161      4166      4168      4165      4161      4166      4174
      4166      4168      4171      4173      4166      4168      4171      4177
      4166      4174      4177      4171      4166      4174      4177      4179
      4168      4166      4174      4176      4168      4166      4174      4177
      4168      4171      4177      4174      4168      4171      4177      4179
      4170      4168      4166      4174      4170      4168      4171      4173
      4170      4168      4171      4177      4171      4168      4166      4174
      4171      4177      4174      4176      4173      4171      4177      4174
      4173      4171      4177      4179      4176      4174      4177      4179
      4181      4186      4188      4190      4181      4186      4188      4191
      4181      4186      4194      4196      4181      4186      4194      4197
      4183      4181      4186      4188      4183      4181      4186      4194
      4184      4181      4186      4188      4184      4181      4186      4194
      4185      4181      4186      4188      4185      4181      4186      4194
      4186      4188      4191      4193      4186      4188      4191      4197
      4186      4194      4197      4191      4186      4194      4197      4199
      4188      4186      4194      4196      4188      4186      4194      4197
      4188      4191      4197      4194      4188      4191      4197      4199
      4190      4188      4186      4194      4190      4188      4191      4193
      4190      4188      4191      4197      4191      4188      4186      4194
      4191      4197      4194      4196      4193      4191      4197      4194
      4193      4191      4197      4199      4196      4194      4197      4199
      4201      4206      4208      4210      4201      4206      4208      4211
      4201      4206      4214      4216      4201      4206      4214      4217
      4203      4201      4206      4208      4203      4201      4206      4214
      4204      4201      4206      4208      4204      4201      4206      4214
      4205      4201      4206      4208      4205      4201      4206      4214
      4206      4208      4211      4213      4206      4208      4211      4217
      4206      4214      4217      4211      4206      4214      4217      4219
      4208      4206      4214      4216      4208      4206      4214      4217
      4208      4211      4217      4214      4208      4211      4217      4219
      4210      4208      4206      4214      4210      4208      4211      4213
      4210      4208      4211      4217      4211      4208      4206      4214
      4211      4217      4214      4216      4213      4211      4217      4214
      4213      4211      4217      4219      4216      4214      4217      4219
      4221      4226      4228      4230      4221      4226      4228      4231
      4221      4226      4234      4236      4221      4226      4234      4237
      4223      4221      4226      4228      4223      4221      4226      4234
      4224      4221      4226      4228      4224      4221      4226      4234
      4225      4221      4226      4228      4225      4221      4226      4234
      4226      4228      4231      4233      4226      4228      4231      4237
      4226      4234      4237      4231      4226      4234      4237      4239
      4228      4226      4234      4236      4228      4226      4234      4237
      4228      4231      4237      4234      4228      4231      4237      4239
      4230      4228      4226      4234      4230      4228      4231      4233
      4230      4228      4231      4237      4231      4228      4226      4234
      4231      4237      4234      4236      4233      4231      4237      4234
      4233      4231      4237      4239      4236      4234      4237      4239
      4241      4246      4248      4250      4241      4246      4248      4251
      4241      4246      4254      4256      4241      4246      4254      4257
      4243      4241      4246      4248      4243      4241      4246      4254
      4244      4241      4246      4248      4244      4241      4246      4254
      4245      4241      4246      4248      4245      4241      4246      4254
      4246      4248      4251      4253      4246      4248      4251      4257
      4246      4254      4257      4251      4246      4254      4257      4259
      4248      4246      4254      4256      4248      4246      4254      4257
      4248      4251      4257      4254      4248      4251      4257      4259
      4250      4248      4246      4254      4250      4248      4251      4253
      4250      4248      4251      4257      4251      4248      4246      4254
      4251      4257      4254      4256      4253      4251      4257      4254
      4253      4251      4257      4259      4256      4254      4257      4259
      4261      4266      4268      4270      4261      4266      4268      4271
      4261      4266      4274      4276      4261      4266      4274      4277
      4263      4261      4266      4268      4263      4261      4266      4274
      4264      4261      4266      4268      4264      4261      4266      4274
      4265      4261      4266      4268      4265      4261      4266      4274
      4266      4268      4271      4273      4266      4268      4271      4277
      4266      4274      4277      4271      4266      4274      4277      4279
      4268      4266      4274      4276      4268      4266      4274      4277
      4268      4271      4277      4274      4268      4271      4277      4279
      4270      4268      4266      4274      4270      4268      4271      4273
      4270      4268      4271      4277      4271      4268      4266      4274
      4271      4277      4274      4276      4273      4271      4277      4274
      4273      4271      4277      4279      4276      4274      4277      4279
      4281      4286      4288      4290      4281      4286      4288      4291
      4281      4286      4294      4296      4281      4286      4294      4297
      4283      4281      4286      4288      4283      4281      4286      4294
      4284      4281      4286      4288      4284      4281      4286      4294
      4285      4281      4286      4288      4285      4281      4286      4294
      4286      4288      4291      4293      4286      4288      4291      4297
      4286      4294      4297      4291      4286      4294      4297      4299
      4288      4286      4294      4296      4288      4286      4294      4297
      4288      4291      4297      4294      4288      4291      4297      4299
      4290      4288      4286      4294      4290      4288      4291      4293
      4290      4288      4291      4297      4291      4288      4286      4294
      4291      4297      4294      4296      4293      4291      4297      4294
      4293      4291      4297      4299      4296      4294      4297      4299
      4301      4306      4308      4310      4301      4306      4308      4311
      4301      4306      4314      4316      4301      4306      4314      4317
      4303      4301      4306      4308      4303      4301      4306      4314
      4304      4301      4306      4308      4304      4301      4306      4314
      4305      4301      4306      4308      4305      4301      4306      4314
      4306      4308      4311      4313      4306      4308      4311      4317
      4306      4314      4317      4311      4306      4314      4317      4319
      4308      4306      4314      4316      4308      4306      4314      4317
      4308      4311      4317      4314      4308      4311      4317      4319
      4310      4308      4306      4314      4310      4308      4311      4313
      4310      4308      4311      4317      4311      4308      4306      4314
      4311      4317      4314      4316      4313      4311      4317      4314
      4313      4311      4317      4319      4316      4314      4317      4319
      4321      4326      4328      4330      4321      4326      4328      4331
      4321      4326      4334      4336      4321      4326      4334      4337
      4323      4321      4326      4328      4323      4321      4326      4334
      4324      4321      4326      4328      4324      4321      4326      4334
      4325      4321      4326      4328      4325      4321      4326      4334
      4326      4328      4331      4333      4326      4328      4331      4337
      4326      4334      4337      4331      4326      4334      4337      4339
      4328      4326      4334      4336      4328      4326      4334      4337
      4328      4331      4337      4334      4328      4331      4337      4339
      4330      4328      4326      4334      4330      4328      4331      4333
      4330      4328      4331      4337      4331      4328      4326      4334
      4331      4337      4334      4336      4333      4331      4337      4334
      4333      4331      4337      4339      4336      4334      4337      4339
      4341      4346      4348      4350      4341      4346      4348      4351
      4341      4346      4354      4356      4341      4346      4354      4357
      4343      4341      4346      4348      4343      4341      4346      4354
      4344      4341      4346      4348      4344      4341      4346      4354
      4345      4341      4346      4348      4345      4341      4346      4354
      4346      4348      4351      4353      4346      4348      4351      4357
      4346      4354      4357      4351      4346      4354      4357      4359
      4348      4346      4354      4356      4348      4346      4354      4357
      4348      4351      4357      4354      4348      4351      4357      4359
      4350      4348      4346      4354      4350      4348      4351      4353
      4350      4348      4351      4357      4351      4348      4346      4354
      4351      4357      4354      4356      4353      4351      4357      4354
      4353      4351      4357      4359      4356      4354      4357      4359
      4361      4366      4368      4370      4361      4366      4368      4371
      4361      4366      4374      4376      4361      4366      4374      4377
      4363      4361      4366      4368      4363      4361      4366      4374
      4364      4361      4366      4368      4364      4361      4366      4374
      4365      4361      4366      4368      4365      4361      4366      4374
      4366      4368      4371      4373      4366      4368      4371      4377
      4366      4374      4377      4371      4366      4374      4377      4379
      4368      4366      4374      4376      4368      4366      4374      4377
      4368      4371      4377      4374      4368      4371      4377      4379
      4370      4368      4366      4374      4370      4368      4371      4373
      4370      4368      4371      4377      4371      4368      4366      4374
      4371      4377      4374      4376      4373      4371      4377      4374
      4373      4371      4377      4379      4376      4374      4377      4379
      4381      4386      4388      4390      4381      4386      4388      4391
      4381      4386      4394      4396      4381      4386      4394      4397
      4383      4381      4386      4388      4383      4381      4386      4394
      4384      4381      4386      4388      4384      4381      4386      4394
      4385      4381      4386      4388      4385      4381      4386      4394
      4386      4388      4391      4393      4386      4388      4391      4397
      4386      4394      4397      4391      4386      4394      4397      4399
      4388      4386      4394      4396      4388      4386      4394      4397
      4388      4391      4397      4394      4388      4391      4397      4399
      4390      4388      4386      4394      4390      4388      4391      4393
      4390      4388      4391      4397      4391      4388      4386      4394
      4391      4397      4394      4396      4393      4391      4397      4394
      4393      4391      4397      4399      4396      4394      4397      4399
      4401      4406      4408      4410      4401      4406      4408      4411
      4401      4406      4414      4416      4401      4406      4414      4417
      4403      4401      4406      4408      4403      4401      4406      4414
      4404      4401      4406      4408      4404      4401      4406      4414
      4405      4401      4406      4408      4405      4401      4406      4414
      4406      4408      4411      4413      4406      4408      4411      4417
      4406      4414      4417      4411      4406      4414      4417      4419
      4408      4406      4414      4416      4408      4406      4414      4417
      4408      4411      4417      4414      4408      4411      4417      4419
      4410      4408      4406      4414      4410      4408      4411      4413
      4410      4408      4411      4417      4411      4408      4406      4414
      4411      4417      4414      4416      4413      4411      4417      4414
      4413      4411      4417      4419      4416      4414      4417      4419
      4421      4426      4428      4430      4421      4426      4428      4431
      4421      4426      4434      4436      4421      4426      4434      4437
      4423      4421      4426      4428      4423      4421      4426      4434
      4424      4421      4426      4428      4424      4421      4426      4434
      4425      4421      4426      4428      4425      4421      4426      4434
      4426      4428      4431      4433      4426      4428      4431      4437
      4426      4434      4437      4431      4426      4434      4437      4439
      4428      4426      4434      4436      4428      4426      4434      4437
      4428      4431      4437      4434      4428      4431      4437      4439
      4430      4428      4426      4434      4430      4428      4431      4433
      4430      4428      4431      4437      4431      4428      4426      4434
      4431      4437      4434      4436      4433      4431      4437      4434
      4433      4431      4437      4439      4436      4434      4437      4439
      4441      4446      4448      4450      4441      4446      4448      4451
      4441      4446      4454      4456      4441      4446      4454      4457
      4443      4441      4446      4448      4443      4441      4446      4454
      4444      4441      4446      4448      4444      4441      4446      4454
      4445      4441      4446      4448      4445      4441      4446      4454
      4446      4448      4451      4453      4446      4448      4451      4457
      4446      4454      4457      4451      4446      4454      4457      4459
      4448      4446      4454      4456      4448      4446      4454      4457
      4448      4451      4457      4454      4448      4451      4457      4459
      4450      4448      4446      4454      4450      4448      4451      4453
      4450      4448      4451      4457      4451      4448      4446      4454
      4451      4457      4454      4456      4453      4451      4457      4454
      4453      4451      4457      4459      4456      4454      4457      4459
      4461      4466      4468      4470      4461      4466      4468      4471
      4461      4466      4474      4476      4461      4466      4474      4477
      4463      4461      4466      4468      4463      4461      4466      4474
      4464      4461      4466      4468      4464      4461      4466      4474
      4465      4461      4466      4468      4465      4461      4466      4474
      4466      4468      4471      4473      4466      4468      4471      4477
      4466      4474      4477      4471      4466      4474      4477      4479
      4468      4466      4474      4476      4468      4466      4474      4477
      4468      4471      4477      4474      4468      4471      4477      4479
      4470      4468      4466      4474      4470      4468      4471      4473
      4470      4468      4471      4477      4471      4468      4466      4474
      4471      4477      4474      4476      4473      4471      4477      4474
      4473      4471      4477      4479      4476      4474      4477      4479
      4481      4486      4488      4490      4481      4486      4488      4491
      4481      4486      4494      4496      4481      4486      4494      4497
      4483      4481      4486      4488      4483      4481      4486      4494
      4484      4481      4486      4488      4484      4481      4486      4494
      4485      4481      4486      4488      4485      4481      4486      4494
      4486      4488      4491      4493      4486      4488      4491      4497
      4486      4494      4497      4491      4486      4494      4497      4499
      4488      4486      4494      4496      4488      4486      4494      4497
      4488      4491      4497      4494      4488      4491      4497      4499
      4490      4488      4486      4494      4490      4488      4491      4493
      4490      4488      4491      4497      4491      4488      4486      4494
      4491      4497      4494      4496      4493      4491      4497      4494
      4493      4491      4497      4499      4496      4494      4497      4499
      4501      4506      4508      4510      4501      4506      4508      4511
      4501      4506      4514      4516      4501      4506      4514      4517
      4503      4501      4506      4508      4503      4501      4506      4514
      4504      4501      4506      4508      4504      4501      4506      4514
      4505      4501      4506      4508      4505      4501      4506      4514
      4506      4508      4511      4513      4506      4508      4511      4517
      4506      4514      4517      4511      4506      4514      4517      4519
      4508      4506      4514      4516      4508      4506      4514      4517
      4508      4511      4517      4514      4508      4511      4517      4519
      4510      4508      4506      4514      4510      4508      4511      4513
      4510      4508      4511      4517      4511      4508      4506      4514
      4511      4517      4514      4516      4513      4511      4517      4514
      4513      4511      4517      4519      4516      4514      4517      4519
      4521      4526      4528      4530      4521      4526      4528      4531
      4521      4526      4534      4536      4521      4526      4534      4537
      4523      4521      4526      4528      4523      4521      4526      4534
      4524      4521      4526      4528      4524      4521      4526      4534
      4525      4521      4526      4528      4525      4521      4526      4534
      4526      4528      4531      4533      4526      4528      4531      4537
      4526      4534      4537      4531      4526      4534      4537      4539
      4528      4526      4534      4536      4528      4526      4534      4537
      4528      4531      4537      4534      4528      4531      4537      4539
      4530      4528      4526      4534      4530      4528      4531      4533
      4530      4528      4531      4537      4531      4528      4526      4534
      4531      4537      4534      4536      4533      4531      4537      4534
      4533      4531      4537      4539      4536      4534      4537      4539
      4541      4546      4548      4550      4541      4546      4548      4551
      4541      4546      4554      4556      4541      4546      4554      4557
      4543      4541      4546      4548      4543      4541      4546      4554
      4544      4541      4546      4548      4544      4541      4546      4554
      4545      4541      4546      4548      4545      4541      4546      4554
      4546      4548      4551      4553      4546      4548      4551      4557
      4546      4554      4557      4551      4546      4554      4557      4559
      4548      4546      4554      4556      4548      4546      4554      4557
      4548      4551      4557      4554      4548      4551      4557      4559
      4550      4548      4546      4554      4550      4548      4551      4553
      4550      4548      4551      4557      4551      4548      4546      4554
      4551      4557      4554      4556      4553      4551      4557      4554
      4553      4551      4557      4559      4556      4554      4557      4559
      4561      4566      4568      4570      4561      4566      4568      4571
      4561      4566      4574      4576      4561      4566      4574      4577
      4563      4561      4566      4568      4563      4561      4566      4574
      4564      4561      4566      4568      4564      4561      4566      4574
      4565      4561      4566      4568      4565      4561      4566      4574
      4566      4568      4571      4573      4566      4568      4571      4577
      4566      4574      4577      4571      4566      4574      4577      4579
      4568      4566      4574      4576      4568      4566      4574      4577
      4568      4571      4577      4574      4568      4571      4577      4579
      4570      4568      4566      4574      4570      4568      4571      4573
      4570      4568      4571      4577      4571      4568      4566      4574
      4571      4577      4574      4576      4573      4571      4577      4574
      4573      4571      4577      4579      4576      4574      4577      4579
      4581      4586      4588      4590      4581      4586      4588      4591
      4581      4586      4594      4596      4581      4586      4594      4597
      4583      4581      4586      4588      4583      4581      4586      4594
      4584      4581      4586      4588      4584      4581      4586      4594
      4585      4581      4586      4588      4585      4581      4586      4594
      4586      4588      4591      4593      4586      4588      4591      4597
      4586      4594      4597      4591      4586      4594      4597      4599
      4588      4586      4594      4596      4588      4586      4594      4597
      4588      4591      4597      4594      4588      4591      4597      4599
      4590      4588      4586      4594      4590      4588      4591      4593
      4590      4588      4591      4597      4591      4588      4586      4594
      4591      4597      4594      4596      4593      4591      4597      4594
      4593      4591      4597      4599      4596      4594      4597      4599
      4601      4606      4608      4610      4601      4606      4608      4611
      4601      4606      4614      4616      4601      4606      4614      4617
      4603      4601      4606      4608      4603      4601      4606      4614
      4604      4601      4606      4608      4604      4601      4606      4614
      4605      4601      4606      4608      4605      4601      4606      4614
      4606      4608      4611      4613      4606      4608      4611      4617
      4606      4614      4617      4611      4606      4614      4617      4619
      4608      4606      4614      4616      4608      4606      4614      4617
      4608      4611      4617      4614      4608      4611      4617      4619
      4610      4608      4606      4614      4610      4608      4611      4613
      4610      4608      4611      4617      4611      4608      4606      4614
      4611      4617      4614      4616      4613      4611      4617      4614
      4613      4611      4617      4619      4616      4614      4617      4619
      4621      4626      4628      4630      4621      4626      4628      4631
      4621      4626      4634      4636      4621      4626      4634      4637
      4623      4621      4626      4628      4623      4621      4626      4634
      4624      4621      4626      4628      4624      4621      4626      4634
      4625      4621      4626      4628      4625      4621      4626      4634
      4626      4628      4631      4633      4626      4628      4631      4637
      4626      4634      4637      4631      4626      4634      4637      4639
      4628      4626      4634      4636      4628      4626      4634      4637
      4628      4631      4637      4634      4628      4631      4637      4639
      4630      4628      4626      4634      4630      4628      4631      4633
      4630      4628      4631      4637      4631      4628      4626      4634
      4631      4637      4634      4636      4633      4631      4637      4634
      4633      4631      4637      4639      4636      4634      4637      4639
      4641      4646      4648      4650      4641      4646      4648      4651
      4641      4646      4654      4656      4641      4646      4654      4657
      4643      4641      4646      4648      4643      4641      4646      4654
      4644      4641      4646      4648      4644      4641      4646      4654
      4645      4641      4646      4648      4645      4641      4646      4654
      4646      4648      4651      4653      4646      4648      4651      4657
      4646      4654      4657      4651      4646      4654      4657      4659
      4648      4646      4654      4656      4648      4646      4654      4657
      4648      4651      4657      4654      4648      4651      4657      4659
      4650      4648      4646      4654      4650      4648      4651      4653
      4650      4648      4651      4657      4651      4648      4646      4654
      4651      4657      4654      4656      4653      4651      4657      4654
      4653      4651      4657      4659      4656      4654      4657      4659
      4661      4666      4668      4670      4661      4666      4668      4671
      4661      4666      4674      4676      4661      4666      4674      4677
      4663      4661      4666      4668      4663      4661      4666      4674
      4664      4661      4666      4668      4664      4661      4666      4674
      4665      4661      4666      4668      4665      4661      4666      4674
      4666      4668      4671      4673      4666      4668      4671      4677
      4666      4674      4677      4671      4666      4674      4677      4679
      4668      4666      4674      4676      4668      4666      4674      4677
      4668      4671      4677      4674      4668      4671      4677      4679
      4670      4668      4666      4674      4670      4668      4671      4673
      4670      4668      4671      4677      4671      4668      4666      4674
      4671      4677      4674      4676      4673      4671      4677      4674
      4673      4671      4677      4679      4676      4674      4677      4679
      4681      4686      4688      4690      4681      4686      4688      4691
      4681      4686      4694      4696      4681      4686      4694      4697
      4683      4681      4686      4688      4683      4681      4686      4694
      4684      4681      4686      4688      4684      4681      4686      4694
      4685      4681      4686      4688      4685      4681      4686      4694
      4686      4688      4691      4693      4686      4688      4691      4697
      4686      4694      4697      4691      4686      4694      4697      4699
      4688      4686      4694      4696      4688      4686      4694      4697
      4688      4691      4697      4694      4688      4691      4697      4699
      4690      4688      4686      4694      4690      4688      4691      4693
      4690      4688      4691      4697      4691      4688      4686      4694
      4691      4697      4694      4696      4693      4691      4697      4694
      4693      4691      4697      4699      4696      4694      4697      4699
      4701      4706      4708      4710      4701      4706      4708      4711
      4701      4706      4714      4716      4701      4706      4714      4717
      4703      4701      4706      4708      4703      4701      4706      4714
      4704      4701      4706      4708      4704      4701      4706      4714
      4705      4701      4706      4708      4705      4701      4706      4714
      4706      4708      4711      4713      4706      4708      4711      4717
      4706      4714      4717      4711      4706      4714      4717      4719
      4708      4706      4714      4716      4708      4706      4714      4717
      4708      4711      4717      4714      4708      4711      4717      4719
      4710      4708      4706      4714      4710      4708      4711      4713
      4710      4708      4711      4717      4711      4708      4706      4714
      4711      4717      4714      4716      4713      4711      4717      4714
      4713      4711      4717      4719      4716      4714      4717      4719
      4721      4726      4728      4730      4721      4726      4728      4731
      4721      4726      4734      4736      4721      4726      4734      4737
      4723      4721      4726      4728      4723      4721      4726      4734
      4724      4721      4726      4728      4724      4721      4726      4734
      4725      4721      4726      4728      4725      4721      4726      4734
      4726      4728      4731      4733      4726      4728      4731      4737
      4726      4734      4737      4731      4726      4734      4737      4739
      4728      4726      4734      4736      4728      4726      4734      4737
      4728      4731      4737      4734      4728      4731      4737      4739
      4730      4728      4726      4734      4730      4728      4731      4733
      4730      4728      4731      4737      4731      4728      4726      4734
      4731      4737      4734      4736      4733      4731      4737      4734
      4733      4731      4737      4739      4736      4734      4737      4739
      4741      4746      4748      4750      4741      4746      4748      4751
      4741      4746      4754      4756      4741      4746      4754      4757
      4743      4741      4746      4748      4743      4741      4746      4754
      4744      4741      4746      4748      4744      4741      4746      4754
      4745      4741      4746      4748      4745      4741      4746      4754
      4746      4748      4751      4753      4746      4748      4751      4757
      4746      4754      4757      4751      4746      4754      4757      4759
      4748      4746      4754      4756      4748      4746      4754      4757
      4748      4751      4757      4754      4748      4751      4757      4759
      4750      4748      4746      4754      4750      4748      4751      4753
      4750      4748      4751      4757      4751      4748      4746      4754
      4751      4757      4754      4756      4753      4751      4757      4754
      4753      4751      4757      4759      4756      4754      4757      4759
      4761      4766      4768      4770      4761      4766      4768      4771
      4761      4766      4774      4776      4761      4766      4774      4777
      4763      4761      4766      4768      4763      4761      4766      4774
      4764      4761      4766      4768      4764      4761      4766      4774
      4765      4761      4766      4768      4765      4761      4766      4774
      4766      4768      4771      4773      4766      4768      4771      4777
      4766      4774      4777      4771      4766      4774      4777      4779
      4768      4766      4774      4776      4768      4766      4774      4777
      4768      4771      4777      4774      4768      4771      4777      4779
      4770      4768      4766      4774      4770      4768      4771      4773
      4770      4768      4771      4777      4771      4768      4766      4774
      4771      4777      4774      4776      4773      4771      4777      4774
      4773      4771      4777      4779      4776      4774      4777      4779
      4781      4786      4788      4790      4781      4786      4788      4791
      4781      4786      4794      4796      4781      4786      4794      4797
      4783      4781      4786      4788      4783      4781      4786      4794
      4784      4781      4786      4788      4784      4781      4786      4794
      4785      4781      4786      4788      4785      4781      4786      4794
      4786      4788      4791      4793      4786      4788      4791      4797
      4786      4794      4797      4791      4786      4794      4797      4799
      4788      4786      4794      4796      4788      4786      4794      4797
      4788      4791      4797      4794      4788      4791      4797      4799
      4790      4788      4786      4794      4790      4788      4791      4793
      4790      4788      4791      4797      4791      4788      4786      4794
      4791      4797      4794      4796      4793      4791      4797      4794
      4793      4791      4797      4799      4796      4794      4797      4799
      4801      4806      4808      4810      4801      4806      4808      4811
      4801      4806      4814      4816      4801      4806      4814      4817
      4803      4801      4806      4808      4803      4801      4806      4814
      4804      4801      4806      4808      4804      4801      4806      4814
      4805      4801      4806      4808      4805      4801      4806      4814
      4806      4808      4811      4813      4806      4808      4811      4817
      4806      4814      4817      4811      4806      4814      4817      4819
      4808      4806      4814      4816      4808      4806      4814      4817
      4808      4811      4817      4814      4808      4811      4817      4819
      4810      4808      4806      4814      4810      4808      4811      4813
      4810      4808      4811      4817      4811      4808      4806      4814
      4811      4817      4814      4816      4813      4811      4817      4814
      4813      4811      4817      4819      4816      4814      4817      4819
      4821      4826      4828      4830      4821      4826      4828      4831
      4821      4826      4834      4836      4821      4826      4834      4837
      4823      4821      4826      4828      4823      4821      4826      4834
      4824      4821      4826      4828      4824      4821      4826      4834
      4825      4821      4826      4828      4825      4821      4826      4834
      4826      4828      4831      4833      4826      4828      4831      4837
      4826      4834      4837      4831      4826      4834      4837      4839
      4828      4826      4834      4836      4828      4826      4834      4837
      4828      4831      4837      4834      4828      4831      4837      4839
      4830      4828      4826      4834      4830      4828      4831      4833
      4830      4828      4831      4837      4831      4828      4826      4834
      4831      4837      4834      4836      4833      4831      4837      4834
      4833      4831      4837      4839      4836      4834      4837      4839
      4841      4846      4848      4850      4841      4846      4848      4851
      4841      4846      4854      4856      4841      4846      4854      4857
      4843      4841      4846      4848      4843      4841      4846      4854
      4844      4841      4846      4848      4844      4841      4846      4854
      4845      4841      4846      4848      4845      4841      4846      4854
      4846      4848      4851      4853      4846      4848      4851      4857
      4846      4854      4857      4851      4846      4854      4857      4859
      4848      4846      4854      4856      4848      4846      4854      4857
      4848      4851      4857      4854      4848      4851      4857      4859
      4850      4848      4846      4854      4850      4848      4851      4853
      4850      4848      4851      4857      4851      4848      4846      4854
      4851      4857      4854      4856      4853      4851      4857      4854
      4853      4851      4857      4859      4856      4854      4857      4859
      4861      4866      4868      4870      4861      4866      4868      4871
      4861      4866      4874      4876      4861      4866      4874      4877
      4863      4861      4866      4868      4863      4861      4866      4874
      4864      4861      4866      4868      4864      4861      4866      4874
      4865      4861      4866      4868      4865      4861      4866      4874
      4866      4868      4871      4873      4866      4868      4871      4877
      4866      4874      4877      4871      4866      4874      4877      4879
      4868      4866      4874      4876      4868      4866      4874      4877
      4868      4871      4877      4874      4868      4871      4877      4879
      4870      4868      4866      4874      4870      4868      4871      4873
      4870      4868      4871      4877      4871      4868      4866      4874
      4871      4877      4874      4876      4873      4871      4877      4874
      4873      4871      4877      4879      4876      4874      4877      4879
      4881      4886      4888      4890      4881      4886      4888      4891
      4881      4886      4894      4896      4881      4886      4894      4897
      4883      4881      4886      4888      4883      4881      4886      4894
      4884      4881      4886      4888      4884      4881      4886      4894
      4885      4881      4886      4888      4885      4881      4886      4894
      4886      4888      4891      4893      4886      4888      4891      4897
      4886      4894      4897      4891      4886      4894      4897      4899
      4888      4886      4894      4896      4888      4886      4894      4897
      4888      4891      4897      4894      4888      4891      4897      4899
      4890      4888      4886      4894      4890      4888      4891      4893
      4890      4888      4891      4897      4891      4888      4886      4894
      4891      4897      4894      4896      4893      4891      4897      4894
      4893      4891      4897      4899      4896      4894      4897      4899
      4901      4906      4908      4910      4901      4906      4908      4911
      4901      4906      4914      4916      4901      4906      4914      4917
      4903      4901      4906      4908      4903      4901      4906      4914
      4904      4901      4906      4908      4904      4901      4906      4914
      4905      4901      4906      4908      4905      4901      4906      4914
      4906      4908      4911      4913      4906      4908      4911      4917
      4906      4914      4917      4911      4906      4914      4917      4919
      4908      4906      4914      4916      4908      4906      4914      4917
      4908      4911      4917      4914      4908      4911      4917      4919
      4910      4908      4906      4914      4910      4908      4911      4913
      4910      4908      4911      4917      4911      4908      4906      4914
      4911      4917      4914      4916      4913      4911      4917      4914
      4913      4911      4917      4919      4916      4914      4917      4919
      4921      4926      4928      4930      4921      4926      4928      4931
      4921      4926      4934      4936      4921      4926      4934      4937
      4923      4921      4926      4928      4923      4921      4926      4934
      4924      4921      4926      4928      4924      4921      4926      4934
      4925      4921      4926      4928      4925      4921      4926      4934
      4926      4928      4931      4933      4926      4928      4931      4937
      4926      4934      4937      4931      4926      4934      4937      4939
      4928      4926      4934      4936      4928      4926      4934      4937
      4928      4931      4937      4934      4928      4931      4937      4939
      4930      4928      4926      4934      4930      4928      4931      4933
      4930      4928      4931      4937      4931      4928      4926      4934
      4931      4937      4934      4936      4933      4931      4937      4934
      4933      4931      4937      4939      4936      4934      4937      4939
      4941      4946      4948      4950      4941      4946      4948      4951
      4941      4946      4954      4956      4941      4946      4954      4957
      4943      4941      4946      4948      4943      4941      4946      4954
      4944      4941      4946      4948      4944      4941      4946      4954
      4945      4941      4946      4948      4945      4941      4946      4954
      4946      4948      4951      4953      4946      4948      4951      4957
      4946      4954      4957      4951      4946      4954      4957      4959
      4948      4946      4954      4956      4948      4946      4954      4957
      4948      4951      4957      4954      4948      4951      4957      4959
      4950      4948      4946      4954      4950      4948      4951      4953
      4950      4948      4951      4957      4951      4948      4946      4954
      4951      4957      4954      4956      4953      4951      4957      4954
      4953      4951      4957      4959      4956      4954      4957      4959
      4961      4966      4968      4970      4961      4966      4968      4971
      4961      4966      4974      4976      4961      4966      4974      4977
      4963      4961      4966      4968      4963      4961      4966      4974
      4964      4961      4966      4968      4964      4961      4966      4974
      4965      4961      4966      4968      4965      4961      4966      4974
      4966      4968      4971      4973      4966      4968      4971      4977
      4966      4974      4977      4971      4966      4974      4977      4979
      4968      4966      4974      4976      4968      4966      4974      4977
      4968      4971      4977      4974      4968      4971      4977      4979
      4970      4968      4966      4974      4970      4968      4971      4973
      4970      4968      4971      4977      4971      4968      4966      4974
      4971      4977      4974      4976      4973      4971      4977      4974
      4973      4971      4977      4979      4976      4974      4977      4979
      4981      4986      4988      4990      4981      4986      4988      4991
      4981      4986      4994      4996      4981      4986      4994      4997
      4983      4981      4986      4988      4983      4981      4986      4994
      4984      4981      4986      4988      4984      4981      4986      4994
      4985      4981      4986      4988      4985      4981      4986      4994
      4986      4988      4991      4993      4986      4988      4991      4997
      4986      4994      4997      4991      4986      4994      4997      4999
      4988      4986      4994      4996      4988      4986      4994      4997
      4988      4991      4997      4994      4988      4991      4997      4999
      4990      4988      4986      4994      4990      4988      4991      4993
      4990      4988      4991      4997      4991      4988      4986      4994
      4991      4997      4994      4996      4993      4991      4997      4994
      4993      4991      4997      4999      4996      4994      4997      4999
      5001      5006      5008      5010      5001      5006      5008      5011
      5001      5006      5014      5016      5001      5006      5014      5017
      5003      5001      5006      5008      5003      5001      5006      5014
      5004      5001      5006      5008      5004      5001      5006      5014
      5005      5001      5006      5008      5005      5001      5006      5014
      5006      5008      5011      5013      5006      5008      5011      5017
      5006      5014      5017      5011      5006      5014      5017      5019
      5008      5006      5014      5016      5008      5006      5014      5017
      5008      5011      5017      5014      5008      5011      5017      5019
      5010      5008      5006      5014      5010      5008      5011      5013
      5010      5008      5011      5017      5011      5008      5006      5014
      5011      5017      5014      5016      5013      5011      5017      5014
      5013      5011      5017      5019      5016      5014      5017      5019
      5021      5026      5028      5030      5021      5026      5028      5031
      5021      5026      5034      5036      5021      5026      5034      5037
      5023      5021      5026      5028      5023      5021      5026      5034
      5024      5021      5026      5028      5024      5021      5026      5034
      5025      5021      5026      5028      5025      5021      5026      5034
      5026      5028      5031      5033      5026      5028      5031      5037
      5026      5034      5037      5031      5026      5034      5037      5039
      5028      5026      5034      5036      5028      5026      5034      5037
      5028      5031      5037      5034      5028      5031      5037      5039
      5030      5028      5026      5034      5030      5028      5031      5033
      5030      5028      5031      5037      5031      5028      5026      5034
      5031      5037      5034      5036      5033      5031      5037      5034
      5033      5031      5037      5039      5036      5034      5037      5039
      5041      5046      5048      5050      5041      5046      5048      5051
      5041      5046      5054      5056      5041      5046      5054      5057
      5043      5041      5046      5048      5043      5041      5046      5054
      5044      5041      5046      5048      5044      5041      5046      5054
      5045      5041      5046      5048      5045      5041      5046      5054
      5046      5048      5051      5053      5046      5048      5051      5057
      5046      5054      5057      5051      5046      5054      5057      5059
      5048      5046      5054      5056      5048      5046      5054      5057
      5048      5051      5057      5054      5048      5051      5057      5059
      5050      5048      5046      5054      5050      5048      5051      5053
      5050      5048      5051      5057      5051      5048      5046      5054
      5051      5057      5054      5056      5053      5051      5057      5054
      5053      5051      5057      5059      5056      5054      5057      5059
      5061      5066      5068      5070      5061      5066      5068      5071
      5061      5066      5074      5076      5061      5066      5074      5077
      5063      5061      5066      5068      5063      5061      5066      5074
      5064      5061      5066      5068      5064      5061      5066      5074
      5065      5061      5066      5068      5065      5061      5066      5074
      5066      5068      5071      5073      5066      5068      5071      5077
      5066      5074      5077      5071      5066      5074      5077      5079
      5068      5066      5074      5076      5068      5066      5074      5077
      5068      5071      5077      5074      5068      5071      5077      5079
      5070      5068      5066      5074      5070      5068      5071      5073
      5070      5068      5071      5077      5071      5068      5066      5074
      5071      5077      5074      5076      5073      5071      5077      5074
      5073      5071      5077      5079      5076      5074      5077      5079
      5081      5086      5088      5090      5081      5086      5088      5091
      5081      5086      5094      5096      5081      5086      5094      5097
      5083      5081      5086      5088      5083      5081      5086      5094
      5084      5081      5086      5088      5084      5081      5086      5094
      5085      5081      5086      5088      5085      5081      5086      5094
      5086      5088      5091      5093      5086      5088      5091      5097
      5086      5094      5097      5091      5086      5094      5097      5099
      5088      5086      5094      5096      5088      5086      5094      5097
      5088      5091      5097      5094      5088      5091      5097      5099
      5090      5088      5086      5094      5090      5088      5091      5093
      5090      5088      5091      5097      5091      5088      5086      5094
      5091      5097      5094      5096      5093      5091      5097      5094
      5093      5091      5097      5099      5096      5094      5097      5099
      5101      5106      5108      5110      5101      5106      5108      5111
      5101      5106      5114      5116      5101      5106      5114      5117
      5103      5101      5106      5108      5103      5101      5106      5114
      5104      5101      5106      5108      5104      5101      5106      5114
      5105      5101      5106      5108      5105      5101      5106      5114
      5106      5108      5111      5113      5106      5108      5111      5117
      5106      5114      5117      5111      5106      5114      5117      5119
      5108      5106      5114      5116      5108      5106      5114      5117
      5108      5111      5117      5114      5108      5111      5117      5119
      5110      5108      5106      5114      5110      5108      5111      5113
      5110      5108      5111      5117      5111      5108      5106      5114
      5111      5117      5114      5116      5113      5111      5117      5114
      5113      5111      5117      5119      5116      5114      5117      5119
      5121      5126      5128      5130      5121      5126      5128      5131
      5121      5126      5134      5136      5121      5126      5134      5137
      5123      5121      5126      5128      5123      5121      5126      5134
      5124      5121      5126      5128      5124      5121      5126      5134
      5125      5121      5126      5128      5125      5121      5126      5134
      5126      5128      5131      5133      5126      5128      5131      5137
      5126      5134      5137      5131      5126      5134      5137      5139
      5128      5126      5134      5136      5128      5126      5134      5137
      5128      5131      5137      5134      5128      5131      5137      5139
      5130      5128      5126      5134      5130      5128      5131      5133
      5130      5128      5131      5137      5131      5128      5126      5134
      5131      5137      5134      5136      5133      5131      5137      5134
      5133      5131      5137      5139      5136      5134      5137      5139
      5141      5146      5148      5150      5141      5146      5148      5151
      5141      5146      5154      5156      5141      5146      5154      5157
      5143      5141      5146      5148      5143      5141      5146      5154
      5144      5141      5146      5148      5144      5141      5146      5154
      5145      5141      5146      5148      5145      5141      5146      5154
      5146      5148      5151      5153      5146      5148      5151      5157
      5146      5154      5157      5151      5146      5154      5157      5159
      5148      5146      5154      5156      5148      5146      5154      5157
      5148      5151      5157      5154      5148      5151      5157      5159
      5150      5148      5146      5154      5150      5148      5151      5153
      5150      5148      5151      5157      5151      5148      5146      5154
      5151      5157      5154      5156      5153      5151      5157      5154
      5153      5151      5157      5159      5156      5154      5157      5159
      5161      5166      5168      5170      5161      5166      5168      5171
      5161      5166      5174      5176      5161      5166      5174      5177
      5163      5161      5166      5168      5163      5161      5166      5174
      5164      5161      5166      5168      5164      5161      5166      5174
      5165      5161      5166      5168      5165      5161      5166      5174
      5166      5168      5171      5173      5166      5168      5171      5177
      5166      5174      5177      5171      5166      5174      5177      5179
      5168      5166      5174      5176      5168      5166      5174      5177
      5168      5171      5177      5174      5168      5171      5177      5179
      5170      5168      5166      5174      5170      5168      5171      5173
      5170      5168      5171      5177      5171      5168      5166      5174
      5171      5177      5174      5176      5173      5171      5177      5174
      5173      5171      5177      5179      5176      5174      5177      5179
      5181      5186      5188      5190      5181      5186      5188      5191
      5181      5186      5194      5196      5181      5186      5194      5197
      5183      5181      5186      5188      5183      5181      5186      5194
      5184      5181      5186      5188      5184      5181      5186      5194
      5185      5181      5186      5188      5185      5181      5186      5194
      5186      5188      5191      5193      5186      5188      5191      5197
      5186      5194      5197      5191      5186      5194      5197      5199
      5188      5186      5194      5196      5188      5186      5194      5197
      5188      5191      5197      5194      5188      5191      5197      5199
      5190      5188      5186      5194      5190      5188      5191      5193
      5190      5188      5191      5197      5191      5188      5186      5194
      5191      5197      5194      5196      5193      5191      5197      5194
      5193      5191      5197      5199      5196      5194      5197      5199
      5201      5206      5208      5210      5201      5206      5208      5211
      5201      5206      5214      5216      5201      5206      5214      5217
      5203      5201      5206      5208      5203      5201      5206      5214
      5204      5201      5206      5208      5204      5201      5206      5214
      5205      5201      5206      5208      5205      5201      5206      5214
      5206      5208      5211      5213      5206      5208      5211      5217
      5206      5214      5217      5211      5206      5214      5217      5219
      5208      5206      5214      5216      5208      5206      5214      5217
      5208      5211      5217      5214      5208      5211      5217      5219
      5210      5208      5206      5214      5210      5208      5211      5213
      5210      5208      5211      5217      5211      5208      5206      5214
      5211      5217      5214      5216      5213      5211      5217      5214
      5213      5211      5217      5219      5216      5214      5217      5219
      5221      5226      5228      5230      5221      5226      5228      5231
      5221      5226      5234      5236      5221      5226      5234      5237
      5223      5221      5226      5228      5223      5221      5226      5234
      5224      5221      5226      5228      5224      5221      5226      5234
      5225      5221      5226      5228      5225      5221      5226      5234
      5226      5228      5231      5233      5226      5228      5231      5237
      5226      5234      5237      5231      5226      5234      5237      5239
      5228      5226      5234      5236      5228      5226      5234      5237
      5228      5231      5237      5234      5228      5231      5237      5239
      5230      5228      5226      5234      5230      5228      5231      5233
      5230      5228      5231      5237      5231      5228      5226      5234
      5231      5237      5234      5236      5233      5231      5237      5234
      5233      5231      5237      5239      5236      5234      5237      5239
      5241      5246      5248      5250      5241      5246      5248      5251
      5241      5246      5254      5256      5241      5246      5254      5257
      5243      5241      5246      5248      5243      5241      5246      5254
      5244      5241      5246      5248      5244      5241      5246      5254
      5245      5241      5246      5248      5245      5241      5246      5254
      5246      5248      5251      5253      5246      5248      5251      5257
      5246      5254      5257      5251      5246      5254      5257      5259
      5248      5246      5254      5256      5248      5246      5254      5257
      5248      5251      5257      5254      5248      5251      5257      5259
      5250      5248      5246      5254      5250      5248      5251      5253
      5250      5248      5251      5257      5251      5248      5246      5254
      5251      5257      5254      5256      5253      5251      5257      5254
      5253      5251      5257      5259      5256      5254      5257      5259
      5261      5266      5268      5270      5261      5266      5268      5271
      5261      5266      5274      5276      5261      5266      5274      5277
      5263      5261      5266      5268      5263      5261      5266      5274
      5264      5261      5266      5268      5264      5261      5266      5274
      5265      5261      5266      5268      5265      5261      5266      5274
      5266      5268      5271      5273      5266      5268      5271      5277
      5266      5274      5277      5271      5266      5274      5277      5279
      5268      5266      5274      5276      5268      5266      5274      5277
      5268      5271      5277      5274      5268      5271      5277      5279
      5270      5268      5266      5274      5270      5268      5271      5273
      5270      5268      5271      5277      5271      5268      5266      5274
      5271      5277      5274      5276      5273      5271      5277      5274
      5273      5271      5277      5279      5276      5274      5277      5279
      5281      5286      5288      5290      5281      5286      5288      5291
      5281      5286      5294      5296      5281      5286      5294      5297
      5283      5281      5286      5288      5283      5281      5286      5294
      5284      5281      5286      5288      5284      5281      5286      5294
      5285      5281      5286      5288      5285      5281      5286      5294
      5286      5288      5291      5293      5286      5288      5291      5297
      5286      5294      5297      5291      5286      5294      5297      5299
      5288      5286      5294      5296      5288      5286      5294      5297
      5288      5291      5297      5294      5288      5291      5297      5299
      5290      5288      5286      5294      5290      5288      5291      5293
      5290      5288      5291      5297      5291      5288      5286      5294
      5291      5297      5294      5296      5293      5291      5297      5294
      5293      5291      5297      5299      5296      5294      5297      5299
      5301      5306      5308      5310      5301      5306      5308      5311
      5301      5306      5314      5316      5301      5306      5314      5317
      5303      5301      5306      5308      5303      5301      5306      5314
      5304      5301      5306      5308      5304      5301      5306      5314
      5305      5301      5306      5308      5305      5301      5306      5314
      5306      5308      5311      5313      5306      5308      5311      5317
      5306      5314      5317      5311      5306      5314      5317      5319
      5308      5306      5314      5316      5308      5306      5314      5317
      5308      5311      5317      5314      5308      5311      5317      5319
      5310      5308      5306      5314      5310      5308      5311      5313
      5310      5308      5311      5317      5311      5308      5306      5314
      5311      5317      5314      5316      5313      5311      5317      5314
      5313      5311      5317      5319      5316      5314      5317      5319
      5321      5326      5328      5330      5321      5326      5328      5331
      5321      5326      5334      5336      5321      5326      5334      5337
      5323      5321      5326      5328      5323      5321      5326      5334
      5324      5321      5326      5328      5324      5321      5326      5334
      5325      5321      5326      5328      5325      5321      5326      5334
      5326      5328      5331      5333      5326      5328      5331      5337
      5326      5334      5337      5331      5326      5334      5337      5339
      5328      5326      5334      5336      5328      5326      5334      5337
      5328      5331      5337      5334      5328      5331      5337      5339
      5330      5328      5326      5334      5330      5328      5331      5333
      5330      5328      5331      5337      5331      5328      5326      5334
      5331      5337      5334      5336      5333      5331      5337      5334
      5333      5331      5337      5339      5336      5334      5337      5339
      5341      5346      5348      5350      5341      5346      5348      5351
      5341      5346      5354      5356      5341      5346      5354      5357
      5343      5341      5346      5348      5343      5341      5346      5354
      5344      5341      5346      5348      5344      5341      5346      5354
      5345      5341      5346      5348      5345      5341      5346      5354
      5346      5348      5351      5353      5346      5348      5351      5357
      5346      5354      5357      5351      5346      5354      5357      5359
      5348      5346      5354      5356      5348      5346      5354      5357
      5348      5351      5357      5354      5348      5351      5357      5359
      5350      5348      5346      5354      5350      5348      5351      5353
      5350      5348      5351      5357      5351      5348      5346      5354
      5351      5357      5354      5356      5353      5351      5357      5354
      5353      5351      5357      5359      5356      5354      5357      5359
      5361      5366      5368      5370      5361      5366      5368      5371
      5361      5366      5374      5376      5361      5366      5374      5377
      5363      5361      5366      5368      5363      5361      5366      5374
      5364      5361      5366      5368      5364      5361      5366      5374
      5365      5361      5366      5368      5365      5361      5366      5374
      5366      5368      5371      5373      5366      5368      5371      5377
      5366      5374      5377      5371      5366      5374      5377      5379
      5368      5366      5374      5376      5368      5366      5374      5377
      5368      5371      5377      5374      5368      5371      5377      5379
      5370      5368      5366      5374      5370      5368      5371      5373
      5370      5368      5371      5377      5371      5368      5366      5374
      5371      5377      5374      5376      5373      5371      5377      5374
      5373      5371      5377      5379      5376      5374      5377      5379
      5381      5386      5388      5390      5381      5386      5388      5391
      5381      5386      5394      5396      5381      5386      5394      5397
      5383      5381      5386      5388      5383      5381      5386      5394
      5384      5381      5386      5388      5384      5381      5386      5394
      5385      5381      5386      5388      5385      5381      5386      5394
      5386      5388      5391      5393      5386      5388      5391      5397
      5386      5394      5397      5391      5386      5394      5397      5399
      5388      5386      5394      5396      5388      5386      5394      5397
      5388      5391      5397      5394      5388      5391      5397      5399
      5390      5388      5386      5394      5390      5388      5391      5393
      5390      5388      5391      5397      5391      5388      5386      5394
      5391      5397      5394      5396      5393      5391      5397      5394
      5393      5391      5397      5399      5396      5394      5397      5399
      5401      5406      5408      5410      5401      5406      5408      5411
      5401      5406      5414      5416      5401      5406      5414      5417
      5403      5401      5406      5408      5403      5401      5406      5414
      5404      5401      5406      5408      5404      5401      5406      5414
      5405      5401      5406      5408      5405      5401      5406      5414
      5406      5408      5411      5413      5406      5408      5411      5417
      5406      5414      5417      5411      5406      5414      5417      5419
      5408      5406      5414      5416      5408      5406      5414      5417
      5408      5411      5417      5414      5408      5411      5417      5419
      5410      5408      5406      5414      5410      5408      5411      5413
      5410      5408      5411      5417      5411      5408      5406      5414
      5411      5417      5414      5416      5413      5411      5417      5414
      5413      5411      5417      5419      5416      5414      5417      5419
      5421      5426      5428      5430      5421      5426      5428      5431
      5421      5426      5434      5436      5421      5426      5434      5437
      5423      5421      5426      5428      5423      5421      5426      5434
      5424      5421      5426      5428      5424      5421      5426      5434
      5425      5421      5426      5428      5425      5421      5426      5434
      5426      5428      5431      5433      5426      5428      5431      5437
      5426      5434      5437      5431      5426      5434      5437      5439
      5428      5426      5434      5436      5428      5426      5434      5437
      5428      5431      5437      5434      5428      5431      5437      5439
      5430      5428      5426      5434      5430      5428      5431      5433
      5430      5428      5431      5437      5431      5428      5426      5434
      5431      5437      5434      5436      5433      5431      5437      5434
      5433      5431      5437      5439      5436      5434      5437      5439
      5441      5446      5448      5450      5441      5446      5448      5451
      5441      5446      5454      5456      5441      5446      5454      5457
      5443      5441      5446      5448      5443      5441      5446      5454
      5444      5441      5446      5448      5444      5441      5446      5454
      5445      5441      5446      5448      5445      5441      5446      5454
      5446      5448      5451      5453      5446      5448      5451      5457
      5446      5454      5457      5451      5446      5454      5457      5459
      5448      5446      5454      5456      5448      5446      5454      5457
      5448      5451      5457      5454      5448      5451      5457      5459
      5450      5448      5446      5454      5450      5448      5451      5453
      5450      5448      5451      5457      5451      5448      5446      5454
      5451      5457      5454      5456      5453      5451      5457      5454
      5453      5451      5457      5459      5456      5454      5457      5459
      5461      5466      5468      5470      5461      5466      5468      5471
      5461      5466      5474      5476      5461      5466      5474      5477
      5463      5461      5466      5468      5463      5461      5466      5474
      5464      5461      5466      5468      5464      5461      5466      5474
      5465      5461      5466      5468      5465      5461      5466      5474
      5466      5468      5471      5473      5466      5468      5471      5477
      5466      5474      5477      5471      5466      5474      5477      5479
      5468      5466      5474      5476      5468      5466      5474      5477
      5468      5471      5477      5474      5468      5471      5477      5479
      5470      5468      5466      5474      5470      5468      5471      5473
      5470      5468      5471      5477      5471      5468      5466      5474
      5471      5477      5474      5476      5473      5471      5477      5474
      5473      5471      5477      5479      5476      5474      5477      5479
      5481      5486      5488      5490      5481      5486      5488      5491
      5481      5486      5494      5496      5481      5486      5494      5497
      5483      5481      5486      5488      5483      5481      5486      5494
      5484      5481      5486      5488      5484      5481      5486      5494
      5485      5481      5486      5488      5485      5481      5486      5494
      5486      5488      5491      5493      5486      5488      5491      5497
      5486      5494      5497      5491      5486      5494      5497      5499
      5488      5486      5494      5496      5488      5486      5494      5497
      5488      5491      5497      5494      5488      5491      5497      5499
      5490      5488      5486      5494      5490      5488      5491      5493
      5490      5488      5491      5497      5491      5488      5486      5494
      5491      5497      5494      5496      5493      5491      5497      5494
      5493      5491      5497      5499      5496      5494      5497      5499
      5501      5506      5508      5510      5501      5506      5508      5511
      5501      5506      5514      5516      5501      5506      5514      5517
      5503      5501      5506      5508      5503      5501      5506      5514
      5504      5501      5506      5508      5504      5501      5506      5514
      5505      5501      5506      5508      5505      5501      5506      5514
      5506      5508      5511      5513      5506      5508      5511      5517
      5506      5514      5517      5511      5506      5514      5517      5519
      5508      5506      5514      5516      5508      5506      5514      5517
      5508      5511      5517      5514      5508      5511      5517      5519
      5510      5508      5506      5514      5510      5508      5511      5513
      5510      5508      5511      5517      5511      5508      5506      5514
      5511      5517      5514      5516      5513      5511      5517      5514
      5513      5511      5517      5519      5516      5514      5517      5519
      5521      5526      5528      5530      5521      5526      5528      5531
      5521      5526      5534      5536      5521      5526      5534      5537
      5523      5521      5526      5528      5523      5521      5526      5534
      5524      5521      5526      5528      5524      5521      5526      5534
      5525      5521      5526      5528      5525      5521      5526      5534
      5526      5528      5531      5533      5526      5528      5531      5537
      5526      5534      5537      5531      5526      5534      5537      5539
      5528      5526      5534      5536      5528      5526      5534      5537
      5528      5531      5537      5534      5528      5531      5537      5539
      5530      5528      5526      5534      5530      5528      5531      5533
      5530      5528      5531      5537      5531      5528      5526      5534
      5531      5537      5534      5536      5533      5531      5537      5534
      5533      5531      5537      5539      5536      5534      5537      5539
      5541      5546      5548      5550      5541      5546      5548      5551
      5541      5546      5554      5556      5541      5546      5554      5557
      5543      5541      5546      5548      5543      5541      5546      5554
      5544      5541      5546      5548      5544      5541      5546      5554
      5545      5541      5546      5548      5545      5541      5546      5554
      5546      5548      5551      5553      5546      5548      5551      5557
      5546      5554      5557      5551      5546      5554      5557      5559
      5548      5546      5554      5556      5548      5546      5554      5557
      5548      5551      5557      5554      5548      5551      5557      5559
      5550      5548      5546      5554      5550      5548      5551      5553
      5550      5548      5551      5557      5551      5548      5546      5554
      5551      5557      5554      5556      5553      5551      5557      5554
      5553      5551      5557      5559      5556      5554      5557      5559
      5561      5566      5568      5570      5561      5566      5568      5571
      5561      5566      5574      5576      5561      5566      5574      5577
      5563      5561      5566      5568      5563      5561      5566      5574
      5564      5561      5566      5568      5564      5561      5566      5574
      5565      5561      5566      5568      5565      5561      5566      5574
      5566      5568      5571      5573      5566      5568      5571      5577
      5566      5574      5577      5571      5566      5574      5577      5579
      5568      5566      5574      5576      5568      5566      5574      5577
      5568      5571      5577      5574      5568      5571      5577      5579
      5570      5568      5566      5574      5570      5568      5571      5573
      5570      5568      5571      5577      5571      5568      5566      5574
      5571      5577      5574      5576      5573      5571      5577      5574
      5573      5571      5577      5579      5576      5574      5577      5579
      5581      5586      5588      5590      5581      5586      5588      5591
      5581      5586      5594      5596      5581      5586      5594      5597
      5583      5581      5586      5588      5583      5581      5586      5594
      5584      5581      5586      5588      5584      5581      5586      5594
      5585      5581      5586      5588      5585      5581      5586      5594
      5586      5588      5591      5593      5586      5588      5591      5597
      5586      5594      5597      5591      5586      5594      5597      5599
      5588      5586      5594      5596      5588      5586      5594      5597
      5588      5591      5597      5594      5588      5591      5597      5599
      5590      5588      5586      5594      5590      5588      5591      5593
      5590      5588      5591      5597      5591      5588      5586      5594
      5591      5597      5594      5596      5593      5591      5597      5594
      5593      5591      5597      5599      5596      5594      5597      5599
      5601      5606      5608      5610      5601      5606      5608      5611
      5601      5606      5614      5616      5601      5606      5614      5617
      5603      5601      5606      5608      5603      5601      5606      5614
      5604      5601      5606      5608      5604      5601      5606      5614
      5605      5601      5606      5608      5605      5601      5606      5614
      5606      5608      5611      5613      5606      5608      5611      5617
      5606      5614      5617      5611      5606      5614      5617      5619
      5608      5606      5614      5616      5608      5606      5614      5617
      5608      5611      5617      5614      5608      5611      5617      5619
      5610      5608      5606      5614      5610      5608      5611      5613
      5610      5608      5611      5617      5611      5608      5606      5614
      5611      5617      5614      5616      5613      5611      5617      5614
      5613      5611      5617      5619      5616      5614      5617      5619
      5621      5626      5628      5630      5621      5626      5628      5631
      5621      5626      5634      5636      5621      5626      5634      5637
      5623      5621      5626      5628      5623      5621      5626      5634
      5624      5621      5626      5628      5624      5621      5626      5634
      5625      5621      5626      5628      5625      5621      5626      5634
      5626      5628      5631      5633      5626      5628      5631      5637
      5626      5634      5637      5631      5626      5634      5637      5639
      5628      5626      5634      5636      5628      5626      5634      5637
      5628      5631      5637      5634      5628      5631      5637      5639
      5630      5628      5626      5634      5630      5628      5631      5633
      5630      5628      5631      5637      5631      5628      5626      5634
      5631      5637      5634      5636      5633      5631      5637      5634
      5633      5631      5637      5639      5636      5634      5637      5639
      5641      5646      5648      5650      5641      5646      5648      5651
      5641      5646      5654      5656      5641      5646      5654      5657
      5643      5641      5646      5648      5643      5641      5646      5654
      5644      5641      5646      5648      5644      5641      5646      5654
      5645      5641      5646      5648      5645      5641      5646      5654
      5646      5648      5651      5653      5646      5648      5651      5657
      5646      5654      5657      5651      5646      5654      5657      5659
      5648      5646      5654      5656      5648      5646      5654      5657
      5648      5651      5657      5654      5648      5651      5657      5659
      5650      5648      5646      5654      5650      5648      5651      5653
      5650      5648      5651      5657      5651      5648      5646      5654
      5651      5657      5654      5656      5653      5651      5657      5654
      5653      5651      5657      5659      5656      5654      5657      5659
      5661      5666      5668      5670      5661      5666      5668      5671
      5661      5666      5674      5676      5661      5666      5674      5677
      5663      5661      5666      5668      5663      5661      5666      5674
      5664      5661      5666      5668      5664      5661      5666      5674
      5665      5661      5666      5668      5665      5661      5666      5674
      5666      5668      5671      5673      5666      5668      5671      5677
      5666      5674      5677      5671      5666      5674      5677      5679
      5668      5666      5674      5676      5668      5666      5674      5677
      5668      5671      5677      5674      5668      5671      5677      5679
      5670      5668      5666      5674      5670      5668      5671      5673
      5670      5668      5671      5677      5671      5668      5666      5674
      5671      5677      5674      5676      5673      5671      5677      5674
      5673      5671      5677      5679      5676      5674      5677      5679
      5681      5686      5688      5690      5681      5686      5688      5691
      5681      5686      5694      5696      5681      5686      5694      5697
      5683      5681      5686      5688      5683      5681      5686      5694
      5684      5681      5686      5688      5684      5681      5686      5694
      5685      5681      5686      5688      5685      5681      5686      5694
      5686      5688      5691      5693      5686      5688      5691      5697
      5686      5694      5697      5691      5686      5694      5697      5699
      5688      5686      5694      5696      5688      5686      5694      5697
      5688      5691      5697      5694      5688      5691      5697      5699
      5690      5688      5686      5694      5690      5688      5691      5693
      5690      5688      5691      5697      5691      5688      5686      5694
      5691      5697      5694      5696      5693      5691      5697      5694
      5693      5691      5697      5699      5696      5694      5697      5699
      5701      5706      5708      5710      5701      5706      5708      5711
      5701      5706      5714      5716      5701      5706      5714      5717
      5703      5701      5706      5708      5703      5701      5706      5714
      5704      5701      5706      5708      5704      5701      5706      5714
      5705      5701      5706      5708      5705      5701      5706      5714
      5706      5708      5711      5713      5706      5708      5711      5717
      5706      5714      5717      5711      5706      5714      5717      5719
      5708      5706      5714      5716      5708      5706      5714      5717
      5708      5711      5717      5714      5708      5711      5717      5719
      5710      5708      5706      5714      5710      5708      5711      5713
      5710      5708      5711      5717      5711      5708      5706      5714
      5711      5717      5714      5716      5713      5711      5717      5714
      5713      5711      5717      5719      5716      5714      5717      5719
      5721      5726      5728      5730      5721      5726      5728      5731
      5721      5726      5734      5736      5721      5726      5734      5737
      5723      5721      5726      5728      5723      5721      5726      5734
      5724      5721      5726      5728      5724      5721      5726      5734
      5725      5721      5726      5728      5725      5721      5726      5734
      5726      5728      5731      5733      5726      5728      5731      5737
      5726      5734      5737      5731      5726      5734      5737      5739
      5728      5726      5734      5736      5728      5726      5734      5737
      5728      5731      5737      5734      5728      5731      5737      5739
      5730      5728      5726      5734      5730      5728      5731      5733
      5730      5728      5731      5737      5731      5728      5726      5734
      5731      5737      5734      5736      5733      5731      5737      5734
      5733      5731      5737      5739      5736      5734      5737      5739
      5741      5746      5748      5750      5741      5746      5748      5751
      5741      5746      5754      5756      5741      5746      5754      5757
      5743      5741      5746      5748      5743      5741      5746      5754
      5744      5741      5746      5748      5744      5741      5746      5754
      5745      5741      5746      5748      5745      5741      5746      5754
      5746      5748      5751      5753      5746      5748      5751      5757
      5746      5754      5757      5751      5746      5754      5757      5759
      5748      5746      5754      5756      5748      5746      5754      5757
      5748      5751      5757      5754      5748      5751      5757      5759
      5750      5748      5746      5754      5750      5748      5751      5753
      5750      5748      5751      5757      5751      5748      5746      5754
      5751      5757      5754      5756      5753      5751      5757      5754
      5753      5751      5757      5759      5756      5754      5757      5759
      5761      5766      5768      5770      5761      5766      5768      5771
      5761      5766      5774      5776      5761      5766      5774      5777
      5763      5761      5766      5768      5763      5761      5766      5774
      5764      5761      5766      5768      5764      5761      5766      5774
      5765      5761      5766      5768      5765      5761      5766      5774
      5766      5768      5771      5773      5766      5768      5771      5777
      5766      5774      5777      5771      5766      5774      5777      5779
      5768      5766      5774      5776      5768      5766      5774      5777
      5768      5771      5777      5774      5768      5771      5777      5779
      5770      5768      5766      5774      5770      5768      5771      5773
      5770      5768      5771      5777      5771      5768      5766      5774
      5771      5777      5774      5776      5773      5771      5777      5774
      5773      5771      5777      5779      5776      5774      5777      5779
      5781      5786      5788      5790      5781      5786      5788      5791
      5781      5786      5794      5796      5781      5786      5794      5797
      5783      5781      5786      5788      5783      5781      5786      5794
      5784      5781      5786      5788      5784      5781      5786      5794
      5785      5781      5786      5788      5785      5781      5786      5794
      5786      5788      5791      5793      5786      5788      5791      5797
      5786      5794      5797      5791      5786      5794      5797      5799
      5788      5786      5794      5796      5788      5786      5794      5797
      5788      5791      5797      5794      5788      5791      5797      5799
      5790      5788      5786      5794      5790      5788      5791      5793
      5790      5788      5791      5797      5791      5788      5786      5794
      5791      5797      5794      5796      5793      5791      5797      5794
      5793      5791      5797      5799      5796      5794      5797      5799
      5801      5806      5808      5810      5801      5806      5808      5811
      5801      5806      5814      5816      5801      5806      5814      5817
      5803      5801      5806      5808      5803      5801      5806      5814
      5804      5801      5806      5808      5804      5801      5806      5814
      5805      5801      5806      5808      5805      5801      5806      5814
      5806      5808      5811      5813      5806      5808      5811      5817
      5806      5814      5817      5811      5806      5814      5817      5819
      5808      5806      5814      5816      5808      5806      5814      5817
      5808      5811      5817      5814      5808      5811      5817      5819
      5810      5808      5806      5814      5810      5808      5811      5813
      5810      5808      5811      5817      5811      5808      5806      5814
      5811      5817      5814      5816      5813      5811      5817      5814
      5813      5811      5817      5819      5816      5814      5817      5819
      5821      5826      5828      5830      5821      5826      5828      5831
      5821      5826      5834      5836      5821      5826      5834      5837
      5823      5821      5826      5828      5823      5821      5826      5834
      5824      5821      5826      5828      5824      5821      5826      5834
      5825      5821      5826      5828      5825      5821      5826      5834
      5826      5828      5831      5833      5826      5828      5831      5837
      5826      5834      5837      5831      5826      5834      5837      5839
      5828      5826      5834      5836      5828      5826      5834      5837
      5828      5831      5837      5834      5828      5831      5837      5839
      5830      5828      5826      5834      5830      5828      5831      5833
      5830      5828      5831      5837      5831      5828      5826      5834
      5831      5837      5834      5836      5833      5831      5837      5834
      5833      5831      5837      5839      5836      5834      5837      5839
      5841      5846      5848      5850      5841      5846      5848      5851
      5841      5846      5854      5856      5841      5846      5854      5857
      5843      5841      5846      5848      5843      5841      5846      5854
      5844      5841      5846      5848      5844      5841      5846      5854
      5845      5841      5846      5848      5845      5841      5846      5854
      5846      5848      5851      5853      5846      5848      5851      5857
      5846      5854      5857      5851      5846      5854      5857      5859
      5848      5846      5854      5856      5848      5846      5854      5857
      5848      5851      5857      5854      5848      5851      5857      5859
      5850      5848      5846      5854      5850      5848      5851      5853
      5850      5848      5851      5857      5851      5848      5846      5854
      5851      5857      5854      5856      5853      5851      5857      5854
      5853      5851      5857      5859      5856      5854      5857      5859
      5861      5866      5868      5870      5861      5866      5868      5871
      5861      5866      5874      5876      5861      5866      5874      5877
      5863      5861      5866      5868      5863      5861      5866      5874
      5864      5861      5866      5868      5864      5861      5866      5874
      5865      5861      5866      5868      5865      5861      5866      5874
      5866      5868      5871      5873      5866      5868      5871      5877
      5866      5874      5877      5871      5866      5874      5877      5879
      5868      5866      5874      5876      5868      5866      5874      5877
      5868      5871      5877      5874      5868      5871      5877      5879
      5870      5868      5866      5874      5870      5868      5871      5873
      5870      5868      5871      5877      5871      5868      5866      5874
      5871      5877      5874      5876      5873      5871      5877      5874
      5873      5871      5877      5879      5876      5874      5877      5879
      5881      5886      5888      5890      5881      5886      5888      5891
      5881      5886      5894      5896      5881      5886      5894      5897
      5883      5881      5886      5888      5883      5881      5886      5894
      5884      5881      5886      5888      5884      5881      5886      5894
      5885      5881      5886      5888      5885      5881      5886      5894
      5886      5888      5891      5893      5886      5888      5891      5897
      5886      5894      5897      5891      5886      5894      5897      5899
      5888      5886      5894      5896      5888      5886      5894      5897
      5888      5891      5897      5894      5888      5891      5897      5899
      5890      5888      5886      5894      5890      5888      5891      5893
      5890      5888      5891      5897      5891      5888      5886      5894
      5891      5897      5894      5896      5893      5891      5897      5894
      5893      5891      5897      5899      5896      5894      5897      5899
      5901      5906      5908      5910      5901      5906      5908      5911
      5901      5906      5914      5916      5901      5906      5914      5917
      5903      5901      5906      5908      5903      5901      5906      5914
      5904      5901      5906      5908      5904      5901      5906      5914
      5905      5901      5906      5908      5905      5901      5906      5914
      5906      5908      5911      5913      5906      5908      5911      5917
      5906      5914      5917      5911      5906      5914      5917      5919
      5908      5906      5914      5916      5908      5906      5914      5917
      5908      5911      5917      5914      5908      5911      5917      5919
      5910      5908      5906      5914      5910      5908      5911      5913
      5910      5908      5911      5917      5911      5908      5906      5914
      5911      5917      5914      5916      5913      5911      5917      5914
      5913      5911      5917      5919      5916      5914      5917      5919
      5921      5926      5928      5930      5921      5926      5928      5931
      5921      5926      5934      5936      5921      5926      5934      5937
      5923      5921      5926      5928      5923      5921      5926      5934
      5924      5921      5926      5928      5924      5921      5926      5934
      5925      5921      5926      5928      5925      5921      5926      5934
      5926      5928      5931      5933      5926      5928      5931      5937
      5926      5934      5937      5931      5926      5934      5937      5939
      5928      5926      5934      5936      5928      5926      5934      5937
      5928      5931      5937      5934      5928      5931      5937      5939
      5930      5928      5926      5934      5930      5928      5931      5933
      5930      5928      5931      5937      5931      5928      5926      5934
      5931      5937      5934      5936      5933      5931      5937      5934
      5933      5931      5937      5939      5936      5934      5937      5939
      5941      5946      5948      5950      5941      5946      5948      5951
      5941      5946      5954      5956      5941      5946      5954      5957
      5943      5941      5946      5948      5943      5941      5946      5954
      5944      5941      5946      5948      5944      5941      5946      5954
      5945      5941      5946      5948      5945      5941      5946      5954
      5946      5948      5951      5953      5946      5948      5951      5957
      5946      5954      5957      5951      5946      5954      5957      5959
      5948      5946      5954      5956      5948      5946      5954      5957
      5948      5951      5957      5954      5948      5951      5957      5959
      5950      5948      5946      5954      5950      5948      5951      5953
      5950      5948      5951      5957      5951      5948      5946      5954
      5951      5957      5954      5956      5953      5951      5957      5954
      5953      5951      5957      5959      5956      5954      5957      5959
      5961      5966      5968      5970      5961      5966      5968      5971
      5961      5966      5974      5976      5961      5966      5974      5977
      5963      5961      5966      5968      5963      5961      5966      5974
      5964      5961      5966      5968      5964      5961      5966      5974
      5965      5961      5966      5968      5965      5961      5966      5974
      5966      5968      5971      5973      5966      5968      5971      5977
      5966      5974      5977      5971      5966      5974      5977      5979
      5968      5966      5974      5976      5968      5966      5974      5977
      5968      5971      5977      5974      5968      5971      5977      5979
      5970      5968      5966      5974      5970      5968      5971      5973
      5970      5968      5971      5977      5971      5968      5966      5974
      5971      5977      5974      5976      5973      5971      5977      5974
      5973      5971      5977      5979      5976      5974      5977      5979
      5981      5986      5988      5990      5981      5986      5988      5991
      5981      5986      5994      5996      5981      5986      5994      5997
      5983      5981      5986      5988      5983      5981      5986      5994
      5984      5981      5986      5988      5984      5981      5986      5994
      5985      5981      5986      5988      5985      5981      5986      5994
      5986      5988      5991      5993      5986      5988      5991      5997
      5986      5994      5997      5991      5986      5994      5997      5999
      5988      5986      5994      5996      5988      5986      5994      5997
      5988      5991      5997      5994      5988      5991      5997      5999
      5990      5988      5986      5994      5990      5988      5991      5993
      5990      5988      5991      5997      5991      5988      5986      5994
      5991      5997      5994      5996      5993      5991      5997      5994
      5993      5991      5997      5999      5996      5994      5997      5999
      6001      6006      6008      6010      6001      6006      6008      6011
      6001      6006      6014      6016      6001      6006      6014      6017
      6003      6001      6006      6008      6003      6001      6006      6014
      6004      6001      6006      6008      6004      6001      6006      6014
      6005      6001      6006      6008      6005      6001      6006      6014
      6006      6008      6011      6013      6006      6008      6011      6017
      6006      6014      6017      6011      6006      6014      6017      6019
      6008      6006      6014      6016      6008      6006      6014      6017
      6008      6011      6017      6014      6008      6011      6017      6019
      6010      6008      6006      6014      6010      6008      6011      6013
      6010      6008      6011      6017      6011      6008      6006      6014
      6011      6017      6014      6016      6013      6011      6017      6014
      6013      6011      6017      6019      6016      6014      6017      6019
      6021      6026      6028      6030      6021      6026      6028      6031
      6021      6026      6034      6036      6021      6026      6034      6037
      6023      6021      6026      6028      6023      6021      6026      6034
      6024      6021      6026      6028      6024      6021      6026      6034
      6025      6021      6026      6028      6025      6021      6026      6034
      6026      6028      6031      6033      6026      6028      6031      6037
      6026      6034      6037      6031      6026      6034      6037      6039
      6028      6026      6034      6036      6028      6026      6034      6037
      6028      6031      6037      6034      6028      6031      6037      6039
      6030      6028      6026      6034      6030      6028      6031      6033
      6030      6028      6031      6037      6031      6028      6026      6034
      6031      6037      6034      6036      6033      6031      6037      6034
      6033      6031      6037      6039      6036      6034      6037      6039
      6041      6046      6048      6050      6041      6046      6048      6051
      6041      6046      6054      6056      6041      6046      6054      6057
      6043      6041      6046      6048      6043      6041      6046      6054
      6044      6041      6046      6048      6044      6041      6046      6054
      6045      6041      6046      6048      6045      6041      6046      6054
      6046      6048      6051      6053      6046      6048      6051      6057
      6046      6054      6057      6051      6046      6054      6057      6059
      6048      6046      6054      6056      6048      6046      6054      6057
      6048      6051      6057      6054      6048      6051      6057      6059
      6050      6048      6046      6054      6050      6048      6051      6053
      6050      6048      6051      6057      6051      6048      6046      6054
      6051      6057      6054      6056      6053      6051      6057      6054
      6053      6051      6057      6059      6056      6054      6057      6059
      6061      6066      6068      6070      6061      6066      6068      6071
      6061      6066      6074      6076      6061      6066      6074      6077
      6063      6061      6066      6068      6063      6061      6066      6074
      6064      6061      6066      6068      6064      6061      6066      6074
      6065      6061      6066      6068      6065      6061      6066      6074
      6066      6068      6071      6073      6066      6068      6071      6077
      6066      6074      6077      6071      6066      6074      6077      6079
      6068      6066      6074      6076      6068      6066      6074      6077
      6068      6071      6077      6074      6068      6071      6077      6079
      6070      6068      6066      6074      6070      6068      6071      6073
      6070      6068      6071      6077      6071      6068      6066      6074
      6071      6077      6074      6076      6073      6071      6077      6074
      6073      6071      6077      6079      6076      6074      6077      6079
      6081      6086      6088      6090      6081      6086      6088      6091
      6081      6086      6094      6096      6081      6086      6094      6097
      6083      6081      6086      6088      6083      6081      6086      6094
      6084      6081      6086      6088      6084      6081      6086      6094
      6085      6081      6086      6088      6085      6081      6086      6094
      6086      6088      6091      6093      6086      6088      6091      6097
      6086      6094      6097      6091      6086      6094      6097      6099
      6088      6086      6094      6096      6088      6086      6094      6097
      6088      6091      6097      6094      6088      6091      6097      6099
      6090      6088      6086      6094      6090      6088      6091      6093
      6090      6088      6091      6097      6091      6088      6086      6094
      6091      6097      6094      6096      6093      6091      6097      6094
      6093      6091      6097      6099      6096      6094      6097      6099
      6101      6106      6108      6110      6101      6106      6108      6111
      6101      6106      6114      6116      6101      6106      6114      6117
      6103      6101      6106      6108      6103      6101      6106      6114
      6104      6101      6106      6108      6104      6101      6106      6114
      6105      6101      6106      6108      6105      6101      6106      6114
      6106      6108      6111      6113      6106      6108      6111      6117
      6106      6114      6117      6111      6106      6114      6117      6119
      6108      6106      6114      6116      6108      6106      6114      6117
      6108      6111      6117      6114      6108      6111      6117      6119
      6110      6108      6106      6114      6110      6108      6111      6113
      6110      6108      6111      6117      6111      6108      6106      6114
      6111      6117      6114      6116      6113      6111      6117      6114
      6113      6111      6117      6119      6116      6114      6117      6119
      6121      6126      6128      6130      6121      6126      6128      6131
      6121      6126      6134      6136      6121      6126      6134      6137
      6123      6121      6126      6128      6123      6121      6126      6134
      6124      6121      6126      6128      6124      6121      6126      6134
      6125      6121      6126      6128      6125      6121      6126      6134
      6126      6128      6131      6133      6126      6128      6131      6137
      6126      6134      6137      6131      6126      6134      6137      6139
      6128      6126      6134      6136      6128      6126      6134      6137
      6128      6131      6137      6134      6128      6131      6137      6139
      6130      6128      6126      6134      6130      6128      6131      6133
      6130      6128      6131      6137      6131      6128      6126      6134
      6131      6137      6134      6136      6133      6131      6137      6134
      6133      6131      6137      6139      6136      6134      6137      6139
      6141      6146      6148      6150      6141      6146      6148      6151
      6141      6146      6154      6156      6141      6146      6154      6157
      6143      6141      6146      6148      6143      6141      6146      6154
      6144      6141      6146      6148      6144      6141      6146      6154
      6145      6141      6146      6148      6145      6141      6146      6154
      6146      6148      6151      6153      6146      6148      6151      6157
      6146      6154      6157      6151      6146      6154      6157      6159
      6148      6146      6154      6156      6148      6146      6154      6157
      6148      6151      6157      6154      6148      6151      6157      6159
      6150      6148      6146      6154      6150      6148      6151      6153
      6150      6148      6151      6157      6151      6148      6146      6154
      6151      6157      6154      6156      6153      6151      6157      6154
      6153      6151      6157      6159      6156      6154      6157      6159
      6161      6166      6168      6170      6161      6166      6168      6171
      6161      6166      6174      6176      6161      6166      6174      6177
      6163      6161      6166      6168      6163      6161      6166      6174
      6164      6161      6166      6168      6164      6161      6166      6174
      6165      6161      6166      6168      6165      6161      6166      6174
      6166      6168      6171      6173      6166      6168      6171      6177
      6166      6174      6177      6171      6166      6174      6177      6179
      6168      6166      6174      6176      6168      6166      6174      6177
      6168      6171      6177      6174      6168      6171      6177      6179
      6170      6168      6166      6174      6170      6168      6171      6173
      6170      6168      6171      6177      6171      6168      6166      6174
      6171      6177      6174      6176      6173      6171      6177      6174
      6173      6171      6177      6179      6176      6174      6177      6179
      6181      6186      6188      6190      6181      6186      6188      6191
      6181      6186      6194      6196      6181      6186      6194      6197
      6183      6181      6186      6188      6183      6181      6186      6194
      6184      6181      6186      6188      6184      6181      6186      6194
      6185      6181      6186      6188      6185      6181      6186      6194
      6186      6188      6191      6193      6186      6188      6191      6197
      6186      6194      6197      6191      6186      6194      6197      6199
      6188      6186      6194      6196      6188      6186      6194      6197
      6188      6191      6197      6194      6188      6191      6197      6199
      6190      6188      6186      6194      6190      6188      6191      6193
      6190      6188      6191      6197      6191      6188      6186      6194
      6191      6197      6194      6196      6193      6191      6197      6194
      6193      6191      6197      6199      6196      6194      6197      6199
      6201      6206      6208      6210      6201      6206      6208      6211
      6201      6206      6214      6216      6201      6206      6214      6217
      6203      6201      6206      6208      6203      6201      6206      6214
      6204      6201      6206      6208      6204      6201      6206      6214
      6205      6201      6206      6208      6205      6201      6206      6214
      6206      6208      6211      6213      6206      6208      6211      6217
      6206      6214      6217      6211      6206      6214      6217      6219
      6208      6206      6214      6216      6208      6206      6214      6217
      6208      6211      6217      6214      6208      6211      6217      6219
      6210      6208      6206      6214      6210      6208      6211      6213
      6210      6208      6211      6217      6211      6208      6206      6214
      6211      6217      6214      6216      6213      6211      6217      6214
      6213      6211      6217      6219      6216      6214      6217      6219
      6221      6226      6228      6230      6221      6226      6228      6231
      6221      6226      6234      6236      6221      6226      6234      6237
      6223      6221      6226      6228      6223      6221      6226      6234
      6224      6221      6226      6228      6224      6221      6226      6234
      6225      6221      6226      6228      6225      6221      6226      6234
      6226      6228      6231      6233      6226      6228      6231      6237
      6226      6234      6237      6231      6226      6234      6237      6239
      6228      6226      6234      6236      6228      6226      6234      6237
      6228      6231      6237      6234      6228      6231      6237      6239
      6230      6228      6226      6234      6230      6228      6231      6233
      6230      6228      6231      6237      6231      6228      6226      6234
      6231      6237      6234      6236      6233      6231      6237      6234
      6233      6231      6237      6239      6236      6234      6237      6239
      6241      6246      6248      6250      6241      6246      6248      6251
      6241      6246      6254      6256      6241      6246      6254      6257
      6243      6241      6246      6248      6243      6241      6246      6254
      6244      6241      6246      6248      6244      6241      6246      6254
      6245      6241      6246      6248      6245      6241      6246      6254
      6246      6248      6251      6253      6246      6248      6251      6257
      6246      6254      6257      6251      6246      6254      6257      6259
      6248      6246      6254      6256      6248      6246      6254      6257
      6248      6251      6257      6254      6248      6251      6257      6259
      6250      6248      6246      6254      6250      6248      6251      6253
      6250      6248      6251      6257      6251      6248      6246      6254
      6251      6257      6254      6256      6253      6251      6257      6254
      6253      6251      6257      6259      6256      6254      6257      6259
      6261      6266      6268      6270      6261      6266      6268      6271
      6261      6266      6274      6276      6261      6266      6274      6277
      6263      6261      6266      6268      6263      6261      6266      6274
      6264      6261      6266      6268      6264      6261      6266      6274
      6265      6261      6266      6268      6265      6261      6266      6274
      6266      6268      6271      6273      6266      6268      6271      6277
      6266      6274      6277      6271      6266      6274      6277      6279
      6268      6266      6274      6276      6268      6266      6274      6277
      6268      6271      6277      6274      6268      6271      6277      6279
      6270      6268      6266      6274      6270      6268      6271      6273
      6270      6268      6271      6277      6271      6268      6266      6274
      6271      6277      6274      6276      6273      6271      6277      6274
      6273      6271      6277      6279      6276      6274      6277      6279
      6281      6286      6288      6290      6281      6286      6288      6291
      6281      6286      6294      6296      6281      6286      6294      6297
      6283      6281      6286      6288      6283      6281      6286      6294
      6284      6281      6286      6288      6284      6281      6286      6294
      6285      6281      6286      6288      6285      6281      6286      6294
      6286      6288      6291      6293      6286      6288      6291      6297
      6286      6294      6297      6291      6286      6294      6297      6299
      6288      6286      6294      6296      6288      6286      6294      6297
      6288      6291      6297      6294      6288      6291      6297      6299
      6290      6288      6286      6294      6290      6288      6291      6293
      6290      6288      6291      6297      6291      6288      6286      6294
      6291      6297      6294      6296      6293      6291      6297      6294
      6293      6291      6297      6299      6296      6294      6297      6299
      6301      6306      6308      6310      6301      6306      6308      6311
      6301      6306      6314      6316      6301      6306      6314      6317
      6303      6301      6306      6308      6303      6301      6306      6314
      6304      6301      6306      6308      6304      6301      6306      6314
      6305      6301      6306      6308      6305      6301      6306      6314
      6306      6308      6311      6313      6306      6308      6311      6317
      6306      6314      6317      6311      6306      6314      6317      6319
      6308      6306      6314      6316      6308      6306      6314      6317
      6308      6311      6317      6314      6308      6311      6317      6319
      6310      6308      6306      6314      6310      6308      6311      6313
      6310      6308      6311      6317      6311      6308      6306      6314
      6311      6317      6314      6316      6313      6311      6317      6314
      6313      6311      6317      6319      6316      6314      6317      6319
      6321      6326      6328      6330      6321      6326      6328      6331
      6321      6326      6334      6336      6321      6326      6334      6337
      6323      6321      6326      6328      6323      6321      6326      6334
      6324      6321      6326      6328      6324      6321      6326      6334
      6325      6321      6326      6328      6325      6321      6326      6334
      6326      6328      6331      6333      6326      6328      6331      6337
      6326      6334      6337      6331      6326      6334      6337      6339
      6328      6326      6334      6336      6328      6326      6334      6337
      6328      6331      6337      6334      6328      6331      6337      6339
      6330      6328      6326      6334      6330      6328      6331      6333
      6330      6328      6331      6337      6331      6328      6326      6334
      6331      6337      6334      6336      6333      6331      6337      6334
      6333      6331      6337      6339      6336      6334      6337      6339
      6341      6346      6348      6350      6341      6346      6348      6351
      6341      6346      6354      6356      6341      6346      6354      6357
      6343      6341      6346      6348      6343      6341      6346      6354
      6344      6341      6346      6348      6344      6341      6346      6354
      6345      6341      6346      6348      6345      6341      6346      6354
      6346      6348      6351      6353      6346      6348      6351      6357
      6346      6354      6357      6351      6346      6354      6357      6359
      6348      6346      6354      6356      6348      6346      6354      6357
      6348      6351      6357      6354      6348      6351      6357      6359
      6350      6348      6346      6354      6350      6348      6351      6353
      6350      6348      6351      6357      6351      6348      6346      6354
      6351      6357      6354      6356      6353      6351      6357      6354
      6353      6351      6357      6359      6356      6354      6357      6359
      6361      6366      6368      6370      6361      6366      6368      6371
      6361      6366      6374      6376      6361      6366      6374      6377
      6363      6361      6366      6368      6363      6361      6366      6374
      6364      6361      6366      6368      6364      6361      6366      6374
      6365      6361      6366      6368      6365      6361      6366      6374
      6366      6368      6371      6373      6366      6368      6371      6377
      6366      6374      6377      6371      6366      6374      6377      6379
      6368      6366      6374      6376      6368      6366      6374      6377
      6368      6371      6377      6374      6368      6371      6377      6379
      6370      6368      6366      6374      6370      6368      6371      6373
      6370      6368      6371      6377      6371      6368      6366      6374
      6371      6377      6374      6376      6373      6371      6377      6374
      6373      6371      6377      6379      6376      6374      6377      6379
      6381      6386      6388      6390      6381      6386      6388      6391
      6381      6386      6394      6396      6381      6386      6394      6397
      6383      6381      6386      6388      6383      6381      6386      6394
      6384      6381      6386      6388      6384      6381      6386      6394
      6385      6381      6386      6388      6385      6381      6386      6394
      6386      6388      6391      6393      6386      6388      6391      6397
      6386      6394      6397      6391      6386      6394      6397      6399
      6388      6386      6394      6396      6388      6386      6394      6397
      6388      6391      6397      6394      6388      6391      6397      6399
      6390      6388      6386      6394      6390      6388      6391      6393
      6390      6388      6391      6397      6391      6388      6386      6394
      6391      6397      6394      6396      6393      6391      6397      6394
      6393      6391      6397      6399      6396      6394      6397      6399
      6401      6406      6408      6410      6401      6406      6408      6411
      6401      6406      6414      6416      6401      6406      6414      6417
      6403      6401      6406      6408      6403      6401      6406      6414
      6404      6401      6406      6408      6404      6401      6406      6414
      6405      6401      6406      6408      6405      6401      6406      6414
      6406      6408      6411      6413      6406      6408      6411      6417
      6406      6414      6417      6411      6406      6414      6417      6419
      6408      6406      6414      6416      6408      6406      6414      6417
      6408      6411      6417      6414      6408      6411      6417      6419
      6410      6408      6406      6414      6410      6408      6411      6413
      6410      6408      6411      6417      6411      6408      6406      6414
      6411      6417      6414      6416      6413      6411      6417      6414
      6413      6411      6417      6419      6416      6414      6417      6419
      6421      6426      6428      6430      6421      6426      6428      6431
      6421      6426      6434      6436      6421      6426      6434      6437
      6423      6421      6426      6428      6423      6421      6426      6434
      6424      6421      6426      6428      6424      6421      6426      6434
      6425      6421      6426      6428      6425      6421      6426      6434
      6426      6428      6431      6433      6426      6428      6431      6437
      6426      6434      6437      6431      6426      6434      6437      6439
      6428      6426      6434      6436      6428      6426      6434      6437
      6428      6431      6437      6434      6428      6431      6437      6439
      6430      6428      6426      6434      6430      6428      6431      6433
      6430      6428      6431      6437      6431      6428      6426      6434
      6431      6437      6434      6436      6433      6431      6437      6434
      6433      6431      6437      6439      6436      6434      6437      6439
      6441      6446      6448      6450      6441      6446      6448      6451
      6441      6446      6454      6456      6441      6446      6454      6457
      6443      6441      6446      6448      6443      6441      6446      6454
      6444      6441      6446      6448      6444      6441      6446      6454
      6445      6441      6446      6448      6445      6441      6446      6454
      6446      6448      6451      6453      6446      6448      6451      6457
      6446      6454      6457      6451      6446      6454      6457      6459
      6448      6446      6454      6456      6448      6446      6454      6457
      6448      6451      6457      6454      6448      6451      6457      6459
      6450      6448      6446      6454      6450      6448      6451      6453
      6450      6448      6451      6457      6451      6448      6446      6454
      6451      6457      6454      6456      6453      6451      6457      6454
      6453      6451      6457      6459      6456      6454      6457      6459
      6461      6466      6468      6470      6461      6466      6468      6471
      6461      6466      6474      6476      6461      6466      6474      6477
      6463      6461      6466      6468      6463      6461      6466      6474
      6464      6461      6466      6468      6464      6461      6466      6474
      6465      6461      6466      6468      6465      6461      6466      6474
      6466      6468      6471      6473      6466      6468      6471      6477
      6466      6474      6477      6471      6466      6474      6477      6479
      6468      6466      6474      6476      6468      6466      6474      6477
      6468      6471      6477      6474      6468      6471      6477      6479
      6470      6468      6466      6474      6470      6468      6471      6473
      6470      6468      6471      6477      6471      6468      6466      6474
      6471      6477      6474      6476      6473      6471      6477      6474
      6473      6471      6477      6479      6476      6474      6477      6479
      6481      6486      6488      6490      6481      6486      6488      6491
      6481      6486      6494      6496      6481      6486      6494      6497
      6483      6481      6486      6488      6483      6481      6486      6494
      6484      6481      6486      6488      6484      6481      6486      6494
      6485      6481      6486      6488      6485      6481      6486      6494
      6486      6488      6491      6493      6486      6488      6491      6497
      6486      6494      6497      6491      6486      6494      6497      6499
      6488      6486      6494      6496      6488      6486      6494      6497
      6488      6491      6497      6494      6488      6491      6497      6499
      6490      6488      6486      6494      6490      6488      6491      6493
      6490      6488      6491      6497      6491      6488      6486      6494
      6491      6497      6494      6496      6493      6491      6497      6494
      6493      6491      6497      6499      6496      6494      6497      6499
      6501      6506      6508      6510      6501      6506      6508      6511
      6501      6506      6514      6516      6501      6506      6514      6517
      6503      6501      6506      6508      6503      6501      6506      6514
      6504      6501      6506      6508      6504      6501      6506      6514
      6505      6501      6506      6508      6505      6501      6506      6514
      6506      6508      6511      6513      6506      6508      6511      6517
      6506      6514      6517      6511      6506      6514      6517      6519
      6508      6506      6514      6516      6508      6506      6514      6517
      6508      6511      6517      6514      6508      6511      6517      6519
      6510      6508      6506      6514      6510      6508      6511      6513
      6510      6508      6511      6517      6511      6508      6506      6514
      6511      6517      6514      6516      6513      6511      6517      6514
      6513      6511      6517      6519      6516      6514      6517      6519
      6521      6526      6528      6530      6521      6526      6528      6531
      6521      6526      6534      6536      6521      6526      6534      6537
      6523      6521      6526      6528      6523      6521      6526      6534
      6524      6521      6526      6528      6524      6521      6526      6534
      6525      6521      6526      6528      6525      6521      6526      6534
      6526      6528      6531      6533      6526      6528      6531      6537
      6526      6534      6537      6531      6526      6534      6537      6539
      6528      6526      6534      6536      6528      6526      6534      6537
      6528      6531      6537      6534      6528      6531      6537      6539
      6530      6528      6526      6534      6530      6528      6531      6533
      6530      6528      6531      6537      6531      6528      6526      6534
      6531      6537      6534      6536      6533      6531      6537      6534
      6533      6531      6537      6539      6536      6534      6537      6539
      6541      6546      6548      6550      6541      6546      6548      6551
      6541      6546      6554      6556      6541      6546      6554      6557
      6543      6541      6546      6548      6543      6541      6546      6554
      6544      6541      6546      6548      6544      6541      6546      6554
      6545      6541      6546      6548      6545      6541      6546      6554
      6546      6548      6551      6553      6546      6548      6551      6557
      6546      6554      6557      6551      6546      6554      6557      6559
      6548      6546      6554      6556      6548      6546      6554      6557
      6548      6551      6557      6554      6548      6551      6557      6559
      6550      6548      6546      6554      6550      6548      6551      6553
      6550      6548      6551      6557      6551      6548      6546      6554
      6551      6557      6554      6556      6553      6551      6557      6554
      6553      6551      6557      6559      6556      6554      6557      6559
      6561      6566      6568      6570      6561      6566      6568      6571
      6561      6566      6574      6576      6561      6566      6574      6577
      6563      6561      6566      6568      6563      6561      6566      6574
      6564      6561      6566      6568      6564      6561      6566      6574
      6565      6561      6566      6568      6565      6561      6566      6574
      6566      6568      6571      6573      6566      6568      6571      6577
      6566      6574      6577      6571      6566      6574      6577      6579
      6568      6566      6574      6576      6568      6566      6574      6577
      6568      6571      6577      6574      6568      6571      6577      6579
      6570      6568      6566      6574      6570      6568      6571      6573
      6570      6568      6571      6577      6571      6568      6566      6574
      6571      6577      6574      6576      6573      6571      6577      6574
      6573      6571      6577      6579      6576      6574      6577      6579
      6581      6586      6588      6590      6581      6586      6588      6591
      6581      6586      6594      6596      6581      6586      6594      6597
      6583      6581      6586      6588      6583      6581      6586      6594
      6584      6581      6586      6588      6584      6581      6586      6594
      6585      6581      6586      6588      6585      6581      6586      6594
      6586      6588      6591      6593      6586      6588      6591      6597
      6586      6594      6597      6591      6586      6594      6597      6599
      6588      6586      6594      6596      6588      6586      6594      6597
      6588      6591      6597      6594      6588      6591      6597      6599
      6590      6588      6586      6594      6590      6588      6591      6593
      6590      6588      6591      6597      6591      6588      6586      6594
      6591      6597      6594      6596      6593      6591      6597      6594
      6593      6591      6597      6599      6596      6594      6597      6599
      6601      6606      6608      6610      6601      6606      6608      6611
      6601      6606      6614      6616      6601      6606      6614      6617
      6603      6601      6606      6608      6603      6601      6606      6614
      6604      6601      6606      6608      6604      6601      6606      6614
      6605      6601      6606      6608      6605      6601      6606      6614
      6606      6608      6611      6613      6606      6608      6611      6617
      6606      6614      6617      6611      6606      6614      6617      6619
      6608      6606      6614      6616      6608      6606      6614      6617
      6608      6611      6617      6614      6608      6611      6617      6619
      6610      6608      6606      6614      6610      6608      6611      6613
      6610      6608      6611      6617      6611      6608      6606      6614
      6611      6617      6614      6616      6613      6611      6617      6614
      6613      6611      6617      6619      6616      6614      6617      6619
      6621      6626      6628      6630      6621      6626      6628      6631
      6621      6626      6634      6636      6621      6626      6634      6637
      6623      6621      6626      6628      6623      6621      6626      6634
      6624      6621      6626      6628      6624      6621      6626      6634
      6625      6621      6626      6628      6625      6621      6626      6634
      6626      6628      6631      6633      6626      6628      6631      6637
      6626      6634      6637      6631      6626      6634      6637      6639
      6628      6626      6634      6636      6628      6626      6634      6637
      6628      6631      6637      6634      6628      6631      6637      6639
      6630      6628      6626      6634      6630      6628      6631      6633
      6630      6628      6631      6637      6631      6628      6626      6634
      6631      6637      6634      6636      6633      6631      6637      6634
      6633      6631      6637      6639      6636      6634      6637      6639
      6641      6646      6648      6650      6641      6646      6648      6651
      6641      6646      6654      6656      6641      6646      6654      6657
      6643      6641      6646      6648      6643      6641      6646      6654
      6644      6641      6646      6648      6644      6641      6646      6654
      6645      6641      6646      6648      6645      6641      6646      6654
      6646      6648      6651      6653      6646      6648      6651      6657
      6646      6654      6657      6651      6646      6654      6657      6659
      6648      6646      6654      6656      6648      6646      6654      6657
      6648      6651      6657      6654      6648      6651      6657      6659
      6650      6648      6646      6654      6650      6648      6651      6653
      6650      6648      6651      6657      6651      6648      6646      6654
      6651      6657      6654      6656      6653      6651      6657      6654
      6653      6651      6657      6659      6656      6654      6657      6659
      6661      6666      6668      6670      6661      6666      6668      6671
      6661      6666      6674      6676      6661      6666      6674      6677
      6663      6661      6666      6668      6663      6661      6666      6674
      6664      6661      6666      6668      6664      6661      6666      6674
      6665      6661      6666      6668      6665      6661      6666      6674
      6666      6668      6671      6673      6666      6668      6671      6677
      6666      6674      6677      6671      6666      6674      6677      6679
      6668      6666      6674      6676      6668      6666      6674      6677
      6668      6671      6677      6674      6668      6671      6677      6679
      6670      6668      6666      6674      6670      6668      6671      6673
      6670      6668      6671      6677      6671      6668      6666      6674
      6671      6677      6674      6676      6673      6671      6677      6674
      6673      6671      6677      6679      6676      6674      6677      6679
      6681      6686      6688      6690      6681      6686      6688      6691
      6681      6686      6694      6696      6681      6686      6694      6697
      6683      6681      6686      6688      6683      6681      6686      6694
      6684      6681      6686      6688      6684      6681      6686      6694
      6685      6681      6686      6688      6685      6681      6686      6694
      6686      6688      6691      6693      6686      6688      6691      6697
      6686      6694      6697      6691      6686      6694      6697      6699
      6688      6686      6694      6696      6688      6686      6694      6697
      6688      6691      6697      6694      6688      6691      6697      6699
      6690      6688      6686      6694      6690      6688      6691      6693
      6690      6688      6691      6697      6691      6688      6686      6694
      6691      6697      6694      6696      6693      6691      6697      6694
      6693      6691      6697      6699      6696      6694      6697      6699
      6701      6706      6708      6710      6701      6706      6708      6711
      6701      6706      6714      6716      6701      6706      6714      6717
      6703      6701      6706      6708      6703      6701      6706      6714
      6704      6701      6706      6708      6704      6701      6706      6714
      6705      6701      6706      6708      6705      6701      6706      6714
      6706      6708      6711      6713      6706      6708      6711      6717
      6706      6714      6717      6711      6706      6714      6717      6719
      6708      6706      6714      6716      6708      6706      6714      6717
      6708      6711      6717      6714      6708      6711      6717      6719
      6710      6708      6706      6714      6710      6708      6711      6713
      6710      6708      6711      6717      6711      6708      6706      6714
      6711      6717      6714      6716      6713      6711      6717      6714
      6713      6711      6717      6719      6716      6714      6717      6719
      6721      6726      6728      6730      6721      6726      6728      6731
      6721      6726      6734      6736      6721      6726      6734      6737
      6723      6721      6726      6728      6723      6721      6726      6734
      6724      6721      6726      6728      6724      6721      6726      6734
      6725      6721      6726      6728      6725      6721      6726      6734
      6726      6728      6731      6733      6726      6728      6731      6737
      6726      6734      6737      6731      6726      6734      6737      6739
      6728      6726      6734      6736      6728      6726      6734      6737
      6728      6731      6737      6734      6728      6731      6737      6739
      6730      6728      6726      6734      6730      6728      6731      6733
      6730      6728      6731      6737      6731      6728      6726      6734
      6731      6737      6734      6736      6733      6731      6737      6734
      6733      6731      6737      6739      6736      6734      6737      6739
      6741      6746      6748      6750      6741      6746      6748      6751
      6741      6746      6754      6756      6741      6746      6754      6757
      6743      6741      6746      6748      6743      6741      6746      6754
      6744      6741      6746      6748      6744      6741      6746      6754
      6745      6741      6746      6748      6745      6741      6746      6754
      6746      6748      6751      6753      6746      6748      6751      6757
      6746      6754      6757      6751      6746      6754      6757      6759
      6748      6746      6754      6756      6748      6746      6754      6757
      6748      6751      6757      6754      6748      6751      6757      6759
      6750      6748      6746      6754      6750      6748      6751      6753
      6750      6748      6751      6757      6751      6748      6746      6754
      6751      6757      6754      6756      6753      6751      6757      6754
      6753      6751      6757      6759      6756      6754      6757      6759
      6761      6766      6768      6770      6761      6766      6768      6771
      6761      6766      6774      6776      6761      6766      6774      6777
      6763      6761      6766      6768      6763      6761      6766      6774
      6764      6761      6766      6768      6764      6761      6766      6774
      6765      6761      6766      6768      6765      6761      6766      6774
      6766      6768      6771      6773      6766      6768      6771      6777
      6766      6774      6777      6771      6766      6774      6777      6779
      6768      6766      6774      6776      6768      6766      6774      6777
      6768      6771      6777      6774      6768      6771      6777      6779
      6770      6768      6766      6774      6770      6768      6771      6773
      6770      6768      6771      6777      6771      6768      6766      6774
      6771      6777      6774      6776      6773      6771      6777      6774
      6773      6771      6777      6779      6776      6774      6777      6779
      6781      6786      6788      6790      6781      6786      6788      6791
      6781      6786      6794      6796      6781      6786      6794      6797
      6783      6781      6786      6788      6783      6781      6786      6794
      6784      6781      6786      6788      6784      6781      6786      6794
      6785      6781      6786      6788      6785      6781      6786      6794
      6786      6788      6791      6793      6786      6788      6791      6797
      6786      6794      6797      6791      6786      6794      6797      6799
      6788      6786      6794      6796      6788      6786      6794      6797
      6788      6791      6797      6794      6788      6791      6797      6799
      6790      6788      6786      6794      6790      6788      6791      6793
      6790      6788      6791      6797      6791      6788      6786      6794
      6791      6797      6794      6796      6793      6791      6797      6794
      6793      6791      6797      6799      6796      6794      6797      6799
      6801      6806      6808      6810      6801      6806      6808      6811
      6801      6806      6814      6816      6801      6806      6814      6817
      6803      6801      6806      6808      6803      6801      6806      6814
      6804      6801      6806      6808      6804      6801      6806      6814
      6805      6801      6806      6808      6805      6801      6806      6814
      6806      6808      6811      6813      6806      6808      6811      6817
      6806      6814      6817      6811      6806      6814      6817      6819
      6808      6806      6814      6816      6808      6806      6814      6817
      6808      6811      6817      6814      6808      6811      6817      6819
      6810      6808      6806      6814      6810      6808      6811      6813
      6810      6808      6811      6817      6811      6808      6806      6814
      6811      6817      6814      6816      6813      6811      6817      6814
      6813      6811      6817      6819      6816      6814      6817      6819
      6821      6826      6828      6830      6821      6826      6828      6831
      6821      6826      6834      6836      6821      6826      6834      6837
      6823      6821      6826      6828      6823      6821      6826      6834
      6824      6821      6826      6828      6824      6821      6826      6834
      6825      6821      6826      6828      6825      6821      6826      6834
      6826      6828      6831      6833      6826      6828      6831      6837
      6826      6834      6837      6831      6826      6834      6837      6839
      6828      6826      6834      6836      6828      6826      6834      6837
      6828      6831      6837      6834      6828      6831      6837      6839
      6830      6828      6826      6834      6830      6828      6831      6833
      6830      6828      6831      6837      6831      6828      6826      6834
      6831      6837      6834      6836      6833      6831      6837      6834
      6833      6831      6837      6839      6836      6834      6837      6839
      6841      6846      6848      6850      6841      6846      6848      6851
      6841      6846      6854      6856      6841      6846      6854      6857
      6843      6841      6846      6848      6843      6841      6846      6854
      6844      6841      6846      6848      6844      6841      6846      6854
      6845      6841      6846      6848      6845      6841      6846      6854
      6846      6848      6851      6853      6846      6848      6851      6857
      6846      6854      6857      6851      6846      6854      6857      6859
      6848      6846      6854      6856      6848      6846      6854      6857
      6848      6851      6857      6854      6848      6851      6857      6859
      6850      6848      6846      6854      6850      6848      6851      6853
      6850      6848      6851      6857      6851      6848      6846      6854
      6851      6857      6854      6856      6853      6851      6857      6854
      6853      6851      6857      6859      6856      6854      6857      6859
      6861      6866      6868      6870      6861      6866      6868      6871
      6861      6866      6874      6876      6861      6866      6874      6877
      6863      6861      6866      6868      6863      6861      6866      6874
      6864      6861      6866      6868      6864      6861      6866      6874
      6865      6861      6866      6868      6865      6861      6866      6874
      6866      6868      6871      6873      6866      6868      6871      6877
      6866      6874      6877      6871      6866      6874      6877      6879
      6868      6866      6874      6876      6868      6866      6874      6877
      6868      6871      6877      6874      6868      6871      6877      6879
      6870      6868      6866      6874      6870      6868      6871      6873
      6870      6868      6871      6877      6871      6868      6866      6874
      6871      6877      6874      6876      6873      6871      6877      6874
      6873      6871      6877      6879      6876      6874      6877      6879
      6881      6886      6888      6890      6881      6886      6888      6891
      6881      6886      6894      6896      6881      6886      6894      6897
      6883      6881      6886      6888      6883      6881      6886      6894
      6884      6881      6886      6888      6884      6881      6886      6894
      6885      6881      6886      6888      6885      6881      6886      6894
      6886      6888      6891      6893      6886      6888      6891      6897
      6886      6894      6897      6891      6886      6894      6897      6899
      6888      6886      6894      6896      6888      6886      6894      6897
      6888      6891      6897      6894      6888      6891      6897      6899
      6890      6888      6886      6894      6890      6888      6891      6893
      6890      6888      6891      6897      6891      6888      6886      6894
      6891      6897      6894      6896      6893      6891      6897      6894
      6893      6891      6897      6899      6896      6894      6897      6899
      6901      6906      6908      6910      6901      6906      6908      6911
      6901      6906      6914      6916      6901      6906      6914      6917
      6903      6901      6906      6908      6903      6901      6906      6914
      6904      6901      6906      6908      6904      6901      6906      6914
      6905      6901      6906      6908      6905      6901      6906      6914
      6906      6908      6911      6913      6906      6908      6911      6917
      6906      6914      6917      6911      6906      6914      6917      6919
      6908      6906      6914      6916      6908      6906      6914      6917
      6908      6911      6917      6914      6908      6911      6917      6919
      6910      6908      6906      6914      6910      6908      6911      6913
      6910      6908      6911      6917      6911      6908      6906      6914
      6911      6917      6914      6916      6913      6911      6917      6914
      6913      6911      6917      6919      6916      6914      6917      6919
      6921      6926      6928      6930      6921      6926      6928      6931
      6921      6926      6934      6936      6921      6926      6934      6937
      6923      6921      6926      6928      6923      6921      6926      6934
      6924      6921      6926      6928      6924      6921      6926      6934
      6925      6921      6926      6928      6925      6921      6926      6934
      6926      6928      6931      6933      6926      6928      6931      6937
      6926      6934      6937      6931      6926      6934      6937      6939
      6928      6926      6934      6936      6928      6926      6934      6937
      6928      6931      6937      6934      6928      6931      6937      6939
      6930      6928      6926      6934      6930      6928      6931      6933
      6930      6928      6931      6937      6931      6928      6926      6934
      6931      6937      6934      6936      6933      6931      6937      6934
      6933      6931      6937      6939      6936      6934      6937      6939
      6941      6946      6948      6950      6941      6946      6948      6951
      6941      6946      6954      6956      6941      6946      6954      6957
      6943      6941      6946      6948      6943      6941      6946      6954
      6944      6941      6946      6948      6944      6941      6946      6954
      6945      6941      6946      6948      6945      6941      6946      6954
      6946      6948      6951      6953      6946      6948      6951      6957
      6946      6954      6957      6951      6946      6954      6957      6959
      6948      6946      6954      6956      6948      6946      6954      6957
      6948      6951      6957      6954      6948      6951      6957      6959
      6950      6948      6946      6954      6950      6948      6951      6953
      6950      6948      6951      6957      6951      6948      6946      6954
      6951      6957      6954      6956      6953      6951      6957      6954
      6953      6951      6957      6959      6956      6954      6957      6959
      6961      6966      6968      6970      6961      6966      6968      6971
      6961      6966      6974      6976      6961      6966      6974      6977
      6963      6961      6966      6968      6963      6961      6966      6974
      6964      6961      6966      6968      6964      6961      6966      6974
      6965      6961      6966      6968      6965      6961      6966      6974
      6966      6968      6971      6973      6966      6968      6971      6977
      6966      6974      6977      6971      6966      6974      6977      6979
      6968      6966      6974      6976      6968      6966      6974      6977
      6968      6971      6977      6974      6968      6971      6977      6979
      6970      6968      6966      6974      6970      6968      6971      6973
      6970      6968      6971      6977      6971      6968      6966      6974
      6971      6977      6974      6976      6973      6971      6977      6974
      6973      6971      6977      6979      6976      6974      6977      6979
      6981      6986      6988      6990      6981      6986      6988      6991
      6981      6986      6994      6996      6981      6986      6994      6997
      6983      6981      6986      6988      6983      6981      6986      6994
      6984      6981      6986      6988      6984      6981      6986      6994
      6985      6981      6986      6988      6985      6981      6986      6994
      6986      6988      6991      6993      6986      6988      6991      6997
      6986      6994      6997      6991      6986      6994      6997      6999
      6988      6986      6994      6996      6988      6986      6994      6997
      6988      6991      6997      6994      6988      6991      6997      6999
      6990      6988      6986      6994      6990      6988      6991      6993
      6990      6988      6991      6997      6991      6988      6986      6994
      6991      6997      6994      6996      6993      6991      6997      6994
      6993      6991      6997      6999      6996      6994      6997      6999
      7001      7006      7008      7010      7001      7006      7008      7011
      7001      7006      7014      7016      7001      7006      7014      7017
      7003      7001      7006      7008      7003      7001      7006      7014
      7004      7001      7006      7008      7004      7001      7006      7014
      7005      7001      7006      7008      7005      7001      7006      7014
      7006      7008      7011      7013      7006      7008      7011      7017
      7006      7014      7017      7011      7006      7014      7017      7019
      7008      7006      7014      7016      7008      7006      7014      7017
      7008      7011      7017      7014      7008      7011      7017      7019
      7010      7008      7006      7014      7010      7008      7011      7013
      7010      7008      7011      7017      7011      7008      7006      7014
      7011      7017      7014      7016      7013      7011      7017      7014
      7013      7011      7017      7019      7016      7014      7017      7019
      7021      7026      7028      7030      7021      7026      7028      7031
      7021      7026      7034      7036      7021      7026      7034      7037
      7023      7021      7026      7028      7023      7021      7026      7034
      7024      7021      7026      7028      7024      7021      7026      7034
      7025      7021      7026      7028      7025      7021      7026      7034
      7026      7028      7031      7033      7026      7028      7031      7037
      7026      7034      7037      7031      7026      7034      7037      7039
      7028      7026      7034      7036      7028      7026      7034      7037
      7028      7031      7037      7034      7028      7031      7037      7039
      7030      7028      7026      7034      7030      7028      7031      7033
      7030      7028      7031      7037      7031      7028      7026      7034
      7031      7037      7034      7036      7033      7031      7037      7034
      7033      7031      7037      7039      7036      7034      7037      7039
      7041      7046      7048      7050      7041      7046      7048      7051
      7041      7046      7054      7056      7041      7046      7054      7057
      7043      7041      7046      7048      7043      7041      7046      7054
      7044      7041      7046      7048      7044      7041      7046      7054
      7045      7041      7046      7048      7045      7041      7046      7054
      7046      7048      7051      7053      7046      7048      7051      7057
      7046      7054      7057      7051      7046      7054      7057      7059
      7048      7046      7054      7056      7048      7046      7054      7057
      7048      7051      7057      7054      7048      7051      7057      7059
      7050      7048      7046      7054      7050      7048      7051      7053
      7050      7048      7051      7057      7051      7048      7046      7054
      7051      7057      7054      7056      7053      7051      7057      7054
      7053      7051      7057      7059      7056      7054      7057      7059
      7061      7066      7068      7070      7061      7066      7068      7071
      7061      7066      7074      7076      7061      7066      7074      7077
      7063      7061      7066      7068      7063      7061      7066      7074
      7064      7061      7066      7068      7064      7061      7066      7074
      7065      7061      7066      7068      7065      7061      7066      7074
      7066      7068      7071      7073      7066      7068      7071      7077
      7066      7074      7077      7071      7066      7074      7077      7079
      7068      7066      7074      7076      7068      7066      7074      7077
      7068      7071      7077      7074      7068      7071      7077      7079
      7070      7068      7066      7074      7070      7068      7071      7073
      7070      7068      7071      7077      7071      7068      7066      7074
      7071      7077      7074      7076      7073      7071      7077      7074
      7073      7071      7077      7079      7076      7074      7077      7079
      7081      7086      7088      7090      7081      7086      7088      7091
      7081      7086      7094      7096      7081      7086      7094      7097
      7083      7081      7086      7088      7083      7081      7086      7094
      7084      7081      7086      7088      7084      7081      7086      7094
      7085      7081      7086      7088      7085      7081      7086      7094
      7086      7088      7091      7093      7086      7088      7091      7097
      7086      7094      7097      7091      7086      7094      7097      7099
      7088      7086      7094      7096      7088      7086      7094      7097
      7088      7091      7097      7094      7088      7091      7097      7099
      7090      7088      7086      7094      7090      7088      7091      7093
      7090      7088      7091      7097      7091      7088      7086      7094
      7091      7097      7094      7096      7093      7091      7097      7094
      7093      7091      7097      7099      7096      7094      7097      7099
      7101      7106      7108      7110      7101      7106      7108      7111
      7101      7106      7114      7116      7101      7106      7114      7117
      7103      7101      7106      7108      7103      7101      7106      7114
      7104      7101      7106      7108      7104      7101      7106      7114
      7105      7101      7106      7108      7105      7101      7106      7114
      7106      7108      7111      7113      7106      7108      7111      7117
      7106      7114      7117      7111      7106      7114      7117      7119
      7108      7106      7114      7116      7108      7106      7114      7117
      7108      7111      7117      7114      7108      7111      7117      7119
      7110      7108      7106      7114      7110      7108      7111      7113
      7110      7108      7111      7117      7111      7108      7106      7114
      7111      7117      7114      7116      7113      7111      7117      7114
      7113      7111      7117      7119      7116      7114      7117      7119
      7121      7126      7128      7130      7121      7126      7128      7131
      7121      7126      7134      7136      7121      7126      7134      7137
      7123      7121      7126      7128      7123      7121      7126      7134
      7124      7121      7126      7128      7124      7121      7126      7134
      7125      7121      7126      7128      7125      7121      7126      7134
      7126      7128      7131      7133      7126      7128      7131      7137
      7126      7134      7137      7131      7126      7134      7137      7139
      7128      7126      7134      7136      7128      7126      7134      7137
      7128      7131      7137      7134      7128      7131      7137      7139
      7130      7128      7126      7134      7130      7128      7131      7133
      7130      7128      7131      7137      7131      7128      7126      7134
      7131      7137      7134      7136      7133      7131      7137      7134
      7133      7131      7137      7139      7136      7134      7137      7139
      7141      7146      7148      7150      7141      7146      7148      7151
      7141      7146      7154      7156      7141      7146      7154      7157
      7143      7141      7146      7148      7143      7141      7146      7154
      7144      7141      7146      7148      7144      7141      7146      7154
      7145      7141      7146      7148      7145      7141      7146      7154
      7146      7148      7151      7153      7146      7148      7151      7157
      7146      7154      7157      7151      7146      7154      7157      7159
      7148      7146      7154      7156      7148      7146      7154      7157
      7148      7151      7157      7154      7148      7151      7157      7159
      7150      7148      7146      7154      7150      7148      7151      7153
      7150      7148      7151      7157      7151      7148      7146      7154
      7151      7157      7154      7156      7153      7151      7157      7154
      7153      7151      7157      7159      7156      7154      7157      7159
      7161      7166      7168      7170      7161      7166      7168      7171
      7161      7166      7174      7176      7161      7166      7174      7177
      7163      7161      7166      7168      7163      7161      7166      7174
      7164      7161      7166      7168      7164      7161      7166      7174
      7165      7161      7166      7168      7165      7161      7166      7174
      7166      7168      7171      7173      7166      7168      7171      7177
      7166      7174      7177      7171      7166      7174      7177      7179
      7168      7166      7174      7176      7168      7166      7174      7177
      7168      7171      7177      7174      7168      7171      7177      7179
      7170      7168      7166      7174      7170      7168      7171      7173
      7170      7168      7171      7177      7171      7168      7166      7174
      7171      7177      7174      7176      7173      7171      7177      7174
      7173      7171      7177      7179      7176      7174      7177      7179
      7181      7186      7188      7190      7181      7186      7188      7191
      7181      7186      7194      7196      7181      7186      7194      7197
      7183      7181      7186      7188      7183      7181      7186      7194
      7184      7181      7186      7188      7184      7181      7186      7194
      7185      7181      7186      7188      7185      7181      7186      7194
      7186      7188      7191      7193      7186      7188      7191      7197
      7186      7194      7197      7191      7186      7194      7197      7199
      7188      7186      7194      7196      7188      7186      7194      7197
      7188      7191      7197      7194      7188      7191      7197      7199
      7190      7188      7186      7194      7190      7188      7191      7193
      7190      7188      7191      7197      7191      7188      7186      7194
      7191      7197      7194      7196      7193      7191      7197      7194
      7193      7191      7197      7199      7196      7194      7197      7199
      7201      7206      7208      7210      7201      7206      7208      7211
      7201      7206      7214      7216      7201      7206      7214      7217
      7203      7201      7206      7208      7203      7201      7206      7214
      7204      7201      7206      7208      7204      7201      7206      7214
      7205      7201      7206      7208      7205      7201      7206      7214
      7206      7208      7211      7213      7206      7208      7211      7217
      7206      7214      7217      7211      7206      7214      7217      7219
      7208      7206      7214      7216      7208      7206      7214      7217
      7208      7211      7217      7214      7208      7211      7217      7219
      7210      7208      7206      7214      7210      7208      7211      7213
      7210      7208      7211      7217      7211      7208      7206      7214
      7211      7217      7214      7216      7213      7211      7217      7214
      7213      7211      7217      7219      7216      7214      7217      7219
      7221      7226      7228      7230      7221      7226      7228      7231
      7221      7226      7234      7236      7221      7226      7234      7237
      7223      7221      7226      7228      7223      7221      7226      7234
      7224      7221      7226      7228      7224      7221      7226      7234
      7225      7221      7226      7228      7225      7221      7226      7234
      7226      7228      7231      7233      7226      7228      7231      7237
      7226      7234      7237      7231      7226      7234      7237      7239
      7228      7226      7234      7236      7228      7226      7234      7237
      7228      7231      7237      7234      7228      7231      7237      7239
      7230      7228      7226      7234      7230      7228      7231      7233
      7230      7228      7231      7237      7231      7228      7226      7234
      7231      7237      7234      7236      7233      7231      7237      7234
      7233      7231      7237      7239      7236      7234      7237      7239
      7241      7246      7248      7250      7241      7246      7248      7251
      7241      7246      7254      7256      7241      7246      7254      7257
      7243      7241      7246      7248      7243      7241      7246      7254
      7244      7241      7246      7248      7244      7241      7246      7254
      7245      7241      7246      7248      7245      7241      7246      7254
      7246      7248      7251      7253      7246      7248      7251      7257
      7246      7254      7257      7251      7246      7254      7257      7259
      7248      7246      7254      7256      7248      7246      7254      7257
      7248      7251      7257      7254      7248      7251      7257      7259
      7250      7248      7246      7254      7250      7248      7251      7253
      7250      7248      7251      7257      7251      7248      7246      7254
      7251      7257      7254      7256      7253      7251      7257      7254
      7253      7251      7257      7259      7256      7254      7257      7259
      7261      7266      7268      7270      7261      7266      7268      7271
      7261      7266      7274      7276      7261      7266      7274      7277
      7263      7261      7266      7268      7263      7261      7266      7274
      7264      7261      7266      7268      7264      7261      7266      7274
      7265      7261      7266      7268      7265      7261      7266      7274
      7266      7268      7271      7273      7266      7268      7271      7277
      7266      7274      7277      7271      7266      7274      7277      7279
      7268      7266      7274      7276      7268      7266      7274      7277
      7268      7271      7277      7274      7268      7271      7277      7279
      7270      7268      7266      7274      7270      7268      7271      7273
      7270      7268      7271      7277      7271      7268      7266      7274
      7271      7277      7274      7276      7273      7271      7277      7274
      7273      7271      7277      7279      7276      7274      7277      7279
      7281      7286      7288      7290      7281      7286      7288      7291
      7281      7286      7294      7296      7281      7286      7294      7297
      7283      7281      7286      7288      7283      7281      7286      7294
      7284      7281      7286      7288      7284      7281      7286      7294
      7285      7281      7286      7288      7285      7281      7286      7294
      7286      7288      7291      7293      7286      7288      7291      7297
      7286      7294      7297      7291      7286      7294      7297      7299
      7288      7286      7294      7296      7288      7286      7294      7297
      7288      7291      7297      7294      7288      7291      7297      7299
      7290      7288      7286      7294      7290      7288      7291      7293
      7290      7288      7291      7297      7291      7288      7286      7294
      7291      7297      7294      7296      7293      7291      7297      7294
      7293      7291      7297      7299      7296      7294      7297      7299
      7301      7306      7308      7310      7301      7306      7308      7311
      7301      7306      7314      7316      7301      7306      7314      7317
      7303      7301      7306      7308      7303      7301      7306      7314
      7304      7301      7306      7308      7304      7301      7306      7314
      7305      7301      7306      7308      7305      7301      7306      7314
      7306      7308      7311      7313      7306      7308      7311      7317
      7306      7314      7317      7311      7306      7314      7317      7319
      7308      7306      7314      7316      7308      7306      7314      7317
      7308      7311      7317      7314      7308      7311      7317      7319
      7310      7308      7306      7314      7310      7308      7311      7313
      7310      7308      7311      7317      7311      7308      7306      7314
      7311      7317      7314      7316      7313      7311      7317      7314
      7313      7311      7317      7319      7316      7314      7317      7319
      7321      7326      7328      7330      7321      7326      7328      7331
      7321      7326      7334      7336      7321      7326      7334      7337
      7323      7321      7326      7328      7323      7321      7326      7334
      7324      7321      7326      7328      7324      7321      7326      7334
      7325      7321      7326      7328      7325      7321      7326      7334
      7326      7328      7331      7333      7326      7328      7331      7337
      7326      7334      7337      7331      7326      7334      7337      7339
      7328      7326      7334      7336      7328      7326      7334      7337
      7328      7331      7337      7334      7328      7331      7337      7339
      7330      7328      7326      7334      7330      7328      7331      7333
      7330      7328      7331      7337      7331      7328      7326      7334
      7331      7337      7334      7336      7333      7331      7337      7334
      7333      7331      7337      7339      7336      7334      7337      7339
      7341      7346      7348      7350      7341      7346      7348      7351
      7341      7346      7354      7356      7341      7346      7354      7357
      7343      7341      7346      7348      7343      7341      7346      7354
      7344      7341      7346      7348      7344      7341      7346      7354
      7345      7341      7346      7348      7345      7341      7346      7354
      7346      7348      7351      7353      7346      7348      7351      7357
      7346      7354      7357      7351      7346      7354      7357      7359
      7348      7346      7354      7356      7348      7346      7354      7357
      7348      7351      7357      7354      7348      7351      7357      7359
      7350      7348      7346      7354      7350      7348      7351      7353
      7350      7348      7351      7357      7351      7348      7346      7354
      7351      7357      7354      7356      7353      7351      7357      7354
      7353      7351      7357      7359      7356      7354      7357      7359
      7361      7366      7368      7370      7361      7366      7368      7371
      7361      7366      7374      7376      7361      7366      7374      7377
      7363      7361      7366      7368      7363      7361      7366      7374
      7364      7361      7366      7368      7364      7361      7366      7374
      7365      7361      7366      7368      7365      7361      7366      7374
      7366      7368      7371      7373      7366      7368      7371      7377
      7366      7374      7377      7371      7366      7374      7377      7379
      7368      7366      7374      7376      7368      7366      7374      7377
      7368      7371      7377      7374      7368      7371      7377      7379
      7370      7368      7366      7374      7370      7368      7371      7373
      7370      7368      7371      7377      7371      7368      7366      7374
      7371      7377      7374      7376      7373      7371      7377      7374
      7373      7371      7377      7379      7376      7374      7377      7379
      7381      7386      7388      7390      7381      7386      7388      7391
      7381      7386      7394      7396      7381      7386      7394      7397
      7383      7381      7386      7388      7383      7381      7386      7394
      7384      7381      7386      7388      7384      7381      7386      7394
      7385      7381      7386      7388      7385      7381      7386      7394
      7386      7388      7391      7393      7386      7388      7391      7397
      7386      7394      7397      7391      7386      7394      7397      7399
      7388      7386      7394      7396      7388      7386      7394      7397
      7388      7391      7397      7394      7388      7391      7397      7399
      7390      7388      7386      7394      7390      7388      7391      7393
      7390      7388      7391      7397      7391      7388      7386      7394
      7391      7397      7394      7396      7393      7391      7397      7394
      7393      7391      7397      7399      7396      7394      7397      7399
      7401      7406      7408      7410      7401      7406      7408      7411
      7401      7406      7414      7416      7401      7406      7414      7417
      7403      7401      7406      7408      7403      7401      7406      7414
      7404      7401      7406      7408      7404      7401      7406      7414
      7405      7401      7406      7408      7405      7401      7406      7414
      7406      7408      7411      7413      7406      7408      7411      7417
      7406      7414      7417      7411      7406      7414      7417      7419
      7408      7406      7414      7416      7408      7406      7414      7417
      7408      7411      7417      7414      7408      7411      7417      7419
      7410      7408      7406      7414      7410      7408      7411      7413
      7410      7408      7411      7417      7411      7408      7406      7414
      7411      7417      7414      7416      7413      7411      7417      7414
      7413      7411      7417      7419      7416      7414      7417      7419
      7421      7426      7428      7430      7421      7426      7428      7431
      7421      7426      7434      7436      7421      7426      7434      7437
      7423      7421      7426      7428      7423      7421      7426      7434
      7424      7421      7426      7428      7424      7421      7426      7434
      7425      7421      7426      7428      7425      7421      7426      7434
      7426      7428      7431      7433      7426      7428      7431      7437
      7426      7434      7437      7431      7426      7434      7437      7439
      7428      7426      7434      7436      7428      7426      7434      7437
      7428      7431      7437      7434      7428      7431      7437      7439
      7430      7428      7426      7434      7430      7428      7431      7433
      7430      7428      7431      7437      7431      7428      7426      7434
      7431      7437      7434      7436      7433      7431      7437      7434
      7433      7431      7437      7439      7436      7434      7437      7439
      7441      7446      7448      7450      7441      7446      7448      7451
      7441      7446      7454      7456      7441      7446      7454      7457
      7443      7441      7446      7448      7443      7441      7446      7454
      7444      7441      7446      7448      7444      7441      7446      7454
      7445      7441      7446      7448      7445      7441      7446      7454
      7446      7448      7451      7453      7446      7448      7451      7457
      7446      7454      7457      7451      7446      7454      7457      7459
      7448      7446      7454      7456      7448      7446      7454      7457
      7448      7451      7457      7454      7448      7451      7457      7459
      7450      7448      7446      7454      7450      7448      7451      7453
      7450      7448      7451      7457      7451      7448      7446      7454
      7451      7457      7454      7456      7453      7451      7457      7454
      7453      7451      7457      7459      7456      7454      7457      7459
      7461      7466      7468      7470      7461      7466      7468      7471
      7461      7466      7474      7476      7461      7466      7474      7477
      7463      7461      7466      7468      7463      7461      7466      7474
      7464      7461      7466      7468      7464      7461      7466      7474
      7465      7461      7466      7468      7465      7461      7466      7474
      7466      7468      7471      7473      7466      7468      7471      7477
      7466      7474      7477      7471      7466      7474      7477      7479
      7468      7466      7474      7476      7468      7466      7474      7477
      7468      7471      7477      7474      7468      7471      7477      7479
      7470      7468      7466      7474      7470      7468      7471      7473
      7470      7468      7471      7477      7471      7468      7466      7474
      7471      7477      7474      7476      7473      7471      7477      7474
      7473      7471      7477      7479      7476      7474      7477      7479
      7481      7486      7488      7490      7481      7486      7488      7491
      7481      7486      7494      7496      7481      7486      7494      7497
      7483      7481      7486      7488      7483      7481      7486      7494
      7484      7481      7486      7488      7484      7481      7486      7494
      7485      7481      7486      7488      7485      7481      7486      7494
      7486      7488      7491      7493      7486      7488      7491      7497
      7486      7494      7497      7491      7486      7494      7497      7499
      7488      7486      7494      7496      7488      7486      7494      7497
      7488      7491      7497      7494      7488      7491      7497      7499
      7490      7488      7486      7494      7490      7488      7491      7493
      7490      7488      7491      7497      7491      7488      7486      7494
      7491      7497      7494      7496      7493      7491      7497      7494
      7493      7491      7497      7499      7496      7494      7497      7499
      7501      7506      7508      7510      7501      7506      7508      7511
      7501      7506      7514      7516      7501      7506      7514      7517
      7503      7501      7506      7508      7503      7501      7506      7514
      7504      7501      7506      7508      7504      7501      7506      7514
      7505      7501      7506      7508      7505      7501      7506      7514
      7506      7508      7511      7513      7506      7508      7511      7517
      7506      7514      7517      7511      7506      7514      7517      7519
      7508      7506      7514      7516      7508      7506      7514      7517
      7508      7511      7517      7514      7508      7511      7517      7519
      7510      7508      7506      7514      7510      7508      7511      7513
      7510      7508      7511      7517      7511      7508      7506      7514
      7511      7517      7514      7516      7513      7511      7517      7514
      7513      7511      7517      7519      7516      7514      7517      7519
      7521      7526      7528      7530      7521      7526      7528      7531
      7521      7526      7534      7536      7521      7526      7534      7537
      7523      7521      7526      7528      7523      7521      7526      7534
      7524      7521      7526      7528      7524      7521      7526      7534
      7525      7521      7526      7528      7525      7521      7526      7534
      7526      7528      7531      7533      7526      7528      7531      7537
      7526      7534      7537      7531      7526      7534      7537      7539
      7528      7526      7534      7536      7528      7526      7534      7537
      7528      7531      7537      7534      7528      7531      7537      7539
      7530      7528      7526      7534      7530      7528      7531      7533
      7530      7528      7531      7537      7531      7528      7526      7534
      7531      7537      7534      7536      7533      7531      7537      7534
      7533      7531      7537      7539      7536      7534      7537      7539
      7541      7546      7548      7550      7541      7546      7548      7551
      7541      7546      7554      7556      7541      7546      7554      7557
      7543      7541      7546      7548      7543      7541      7546      7554
      7544      7541      7546      7548      7544      7541      7546      7554
      7545      7541      7546      7548      7545      7541      7546      7554
      7546      7548      7551      7553      7546      7548      7551      7557
      7546      7554      7557      7551      7546      7554      7557      7559
      7548      7546      7554      7556      7548      7546      7554      7557
      7548      7551      7557      7554      7548      7551      7557      7559
      7550      7548      7546      7554      7550      7548      7551      7553
      7550      7548      7551      7557      7551      7548      7546      7554
      7551      7557      7554      7556      7553      7551      7557      7554
      7553      7551      7557      7559      7556      7554      7557      7559
      7561      7566      7568      7570      7561      7566      7568      7571
      7561      7566      7574      7576      7561      7566      7574      7577
      7563      7561      7566      7568      7563      7561      7566      7574
      7564      7561      7566      7568      7564      7561      7566      7574
      7565      7561      7566      7568      7565      7561      7566      7574
      7566      7568      7571      7573      7566      7568      7571      7577
      7566      7574      7577      7571      7566      7574      7577      7579
      7568      7566      7574      7576      7568      7566      7574      7577
      7568      7571      7577      7574      7568      7571      7577      7579
      7570      7568      7566      7574      7570      7568      7571      7573
      7570      7568      7571      7577      7571      7568      7566      7574
      7571      7577      7574      7576      7573      7571      7577      7574
      7573      7571      7577      7579      7576      7574      7577      7579
      7581      7586      7588      7590      7581      7586      7588      7591
      7581      7586      7594      7596      7581      7586      7594      7597
      7583      7581      7586      7588      7583      7581      7586      7594
      7584      7581      7586      7588      7584      7581      7586      7594
      7585      7581      7586      7588      7585      7581      7586      7594
      7586      7588      7591      7593      7586      7588      7591      7597
      7586      7594      7597      7591      7586      7594      7597      7599
      7588      7586      7594      7596      7588      7586      7594      7597
      7588      7591      7597      7594      7588      7591      7597      7599
      7590      7588      7586      7594      7590      7588      7591      7593
      7590      7588      7591      7597      7591      7588      7586      7594
      7591      7597      7594      7596      7593      7591      7597      7594
      7593      7591      7597      7599      7596      7594      7597      7599
      7601      7606      7608      7610      7601      7606      7608      7611
      7601      7606      7614      7616      7601      7606      7614      7617
      7603      7601      7606      7608      7603      7601      7606      7614
      7604      7601      7606      7608      7604      7601      7606      7614
      7605      7601      7606      7608      7605      7601      7606      7614
      7606      7608      7611      7613      7606      7608      7611      7617
      7606      7614      7617      7611      7606      7614      7617      7619
      7608      7606      7614      7616      7608      7606      7614      7617
      7608      7611      7617      7614      7608      7611      7617      7619
      7610      7608      7606      7614      7610      7608      7611      7613
      7610      7608      7611      7617      7611      7608      7606      7614
      7611      7617      7614      7616      7613      7611      7617      7614
      7613      7611      7617      7619      7616      7614      7617      7619
      7621      7626      7628      7630      7621      7626      7628      7631
      7621      7626      7634      7636      7621      7626      7634      7637
      7623      7621      7626      7628      7623      7621      7626      7634
      7624      7621      7626      7628      7624      7621      7626      7634
      7625      7621      7626      7628      7625      7621      7626      7634
      7626      7628      7631      7633      7626      7628      7631      7637
      7626      7634      7637      7631      7626      7634      7637      7639
      7628      7626      7634      7636      7628      7626      7634      7637
      7628      7631      7637      7634      7628      7631      7637      7639
      7630      7628      7626      7634      7630      7628      7631      7633
      7630      7628      7631      7637      7631      7628      7626      7634
      7631      7637      7634      7636      7633      7631      7637      7634
      7633      7631      7637      7639      7636      7634      7637      7639
      7641      7646      7648      7650      7641      7646      7648      7651
      7641      7646      7654      7656      7641      7646      7654      7657
      7643      7641      7646      7648      7643      7641      7646      7654
      7644      7641      7646      7648      7644      7641      7646      7654
      7645      7641      7646      7648      7645      7641      7646      7654
      7646      7648      7651      7653      7646      7648      7651      7657
      7646      7654      7657      7651      7646      7654      7657      7659
      7648      7646      7654      7656      7648      7646      7654      7657
      7648      7651      7657      7654      7648      7651      7657      7659
      7650      7648      7646      7654      7650      7648      7651      7653
      7650      7648      7651      7657      7651      7648      7646      7654
      7651      7657      7654      7656      7653      7651      7657      7654
      7653      7651      7657      7659      7656      7654      7657      7659
      7661      7666      7668      7670      7661      7666      7668      7671
      7661      7666      7674      7676      7661      7666      7674      7677
      7663      7661      7666      7668      7663      7661      7666      7674
      7664      7661      7666      7668      7664      7661      7666      7674
      7665      7661      7666      7668      7665      7661      7666      7674
      7666      7668      7671      7673      7666      7668      7671      7677
      7666      7674      7677      7671      7666      7674      7677      7679
      7668      7666      7674      7676      7668      7666      7674      7677
      7668      7671      7677      7674      7668      7671      7677      7679
      7670      7668      7666      7674      7670      7668      7671      7673
      7670      7668      7671      7677      7671      7668      7666      7674
      7671      7677      7674      7676      7673      7671      7677      7674
      7673      7671      7677      7679      7676      7674      7677      7679
      7681      7686      7688      7690      7681      7686      7688      7691
      7681      7686      7694      7696      7681      7686      7694      7697
      7683      7681      7686      7688      7683      7681      7686      7694
      7684      7681      7686      7688      7684      7681      7686      7694
      7685      7681      7686      7688      7685      7681      7686      7694
      7686      7688      7691      7693      7686      7688      7691      7697
      7686      7694      7697      7691      7686      7694      7697      7699
      7688      7686      7694      7696      7688      7686      7694      7697
      7688      7691      7697      7694      7688      7691      7697      7699
      7690      7688      7686      7694      7690      7688      7691      7693
      7690      7688      7691      7697      7691      7688      7686      7694
      7691      7697      7694      7696      7693      7691      7697      7694
      7693      7691      7697      7699      7696      7694      7697      7699
      7701      7706      7708      7710      7701      7706      7708      7711
      7701      7706      7714      7716      7701      7706      7714      7717
      7703      7701      7706      7708      7703      7701      7706      7714
      7704      7701      7706      7708      7704      7701      7706      7714
      7705      7701      7706      7708      7705      7701      7706      7714
      7706      7708      7711      7713      7706      7708      7711      7717
      7706      7714      7717      7711      7706      7714      7717      7719
      7708      7706      7714      7716      7708      7706      7714      7717
      7708      7711      7717      7714      7708      7711      7717      7719
      7710      7708      7706      7714      7710      7708      7711      7713
      7710      7708      7711      7717      7711      7708      7706      7714
      7711      7717      7714      7716      7713      7711      7717      7714
      7713      7711      7717      7719      7716      7714      7717      7719
      7721      7726      7728      7730      7721      7726      7728      7731
      7721      7726      7734      7736      7721      7726      7734      7737
      7723      7721      7726      7728      7723      7721      7726      7734
      7724      7721      7726      7728      7724      7721      7726      7734
      7725      7721      7726      7728      7725      7721      7726      7734
      7726      7728      7731      7733      7726      7728      7731      7737
      7726      7734      7737      7731      7726      7734      7737      7739
      7728      7726      7734      7736      7728      7726      7734      7737
      7728      7731      7737      7734      7728      7731      7737      7739
      7730      7728      7726      7734      7730      7728      7731      7733
      7730      7728      7731      7737      7731      7728      7726      7734
      7731      7737      7734      7736      7733      7731      7737      7734
      7733      7731      7737      7739      7736      7734      7737      7739
      7741      7746      7748      7750      7741      7746      7748      7751
      7741      7746      7754      7756      7741      7746      7754      7757
      7743      7741      7746      7748      7743      7741      7746      7754
      7744      7741      7746      7748      7744      7741      7746      7754
      7745      7741      7746      7748      7745      7741      7746      7754
      7746      7748      7751      7753      7746      7748      7751      7757
      7746      7754      7757      7751      7746      7754      7757      7759
      7748      7746      7754      7756      7748      7746      7754      7757
      7748      7751      7757      7754      7748      7751      7757      7759
      7750      7748      7746      7754      7750      7748      7751      7753
      7750      7748      7751      7757      7751      7748      7746      7754
      7751      7757      7754      7756      7753      7751      7757      7754
      7753      7751      7757      7759      7756      7754      7757      7759
      7761      7766      7768      7770      7761      7766      7768      7771
      7761      7766      7774      7776      7761      7766      7774      7777
      7763      7761      7766      7768      7763      7761      7766      7774
      7764      7761      7766      7768      7764      7761      7766      7774
      7765      7761      7766      7768      7765      7761      7766      7774
      7766      7768      7771      7773      7766      7768      7771      7777
      7766      7774      7777      7771      7766      7774      7777      7779
      7768      7766      7774      7776      7768      7766      7774      7777
      7768      7771      7777      7774      7768      7771      7777      7779
      7770      7768      7766      7774      7770      7768      7771      7773
      7770      7768      7771      7777      7771      7768      7766      7774
      7771      7777      7774      7776      7773      7771      7777      7774
      7773      7771      7777      7779      7776      7774      7777      7779
      7781      7786      7788      7790      7781      7786      7788      7791
      7781      7786      7794      7796      7781      7786      7794      7797
      7783      7781      7786      7788      7783      7781      7786      7794
      7784      7781      7786      7788      7784      7781      7786      7794
      7785      7781      7786      7788      7785      7781      7786      7794
      7786      7788      7791      7793      7786      7788      7791      7797
      7786      7794      7797      7791      7786      7794      7797      7799
      7788      7786      7794      7796      7788      7786      7794      7797
      7788      7791      7797      7794      7788      7791      7797      7799
      7790      7788      7786      7794      7790      7788      7791      7793
      7790      7788      7791      7797      7791      7788      7786      7794
      7791      7797      7794      7796      7793      7791      7797      7794
      7793      7791      7797      7799      7796      7794      7797      7799
      7801      7806      7808      7810      7801      7806      7808      7811
      7801      7806      7814      7816      7801      7806      7814      7817
      7803      7801      7806      7808      7803      7801      7806      7814
      7804      7801      7806      7808      7804      7801      7806      7814
      7805      7801      7806      7808      7805      7801      7806      7814
      7806      7808      7811      7813      7806      7808      7811      7817
      7806      7814      7817      7811      7806      7814      7817      7819
      7808      7806      7814      7816      7808      7806      7814      7817
      7808      7811      7817      7814      7808      7811      7817      7819
      7810      7808      7806      7814      7810      7808      7811      7813
      7810      7808      7811      7817      7811      7808      7806      7814
      7811      7817      7814      7816      7813      7811      7817      7814
      7813      7811      7817      7819      7816      7814      7817      7819
      7821      7826      7828      7830      7821      7826      7828      7831
      7821      7826      7834      7836      7821      7826      7834      7837
      7823      7821      7826      7828      7823      7821      7826      7834
      7824      7821      7826      7828      7824      7821      7826      7834
      7825      7821      7826      7828      7825      7821      7826      7834
      7826      7828      7831      7833      7826      7828      7831      7837
      7826      7834      7837      7831      7826      7834      7837      7839
      7828      7826      7834      7836      7828      7826      7834      7837
      7828      7831      7837      7834      7828      7831      7837      7839
      7830      7828      7826      7834      7830      7828      7831      7833
      7830      7828      7831      7837      7831      7828      7826      7834
      7831      7837      7834      7836      7833      7831      7837      7834
      7833      7831      7837      7839      7836      7834      7837      7839
      7841      7846      7848      7850      7841      7846      7848      7851
      7841      7846      7854      7856      7841      7846      7854      7857
      7843      7841      7846      7848      7843      7841      7846      7854
      7844      7841      7846      7848      7844      7841      7846      7854
      7845      7841      7846      7848      7845      7841      7846      7854
      7846      7848      7851      7853      7846      7848      7851      7857
      7846      7854      7857      7851      7846      7854      7857      7859
      7848      7846      7854      7856      7848      7846      7854      7857
      7848      7851      7857      7854      7848      7851      7857      7859
      7850      7848      7846      7854      7850      7848      7851      7853
      7850      7848      7851      7857      7851      7848      7846      7854
      7851      7857      7854      7856      7853      7851      7857      7854
      7853      7851      7857      7859      7856      7854      7857      7859
      7861      7866      7868      7870      7861      7866      7868      7871
      7861      7866      7874      7876      7861      7866      7874      7877
      7863      7861      7866      7868      7863      7861      7866      7874
      7864      7861      7866      7868      7864      7861      7866      7874
      7865      7861      7866      7868      7865      7861      7866      7874
      7866      7868      7871      7873      7866      7868      7871      7877
      7866      7874      7877      7871      7866      7874      7877      7879
      7868      7866      7874      7876      7868      7866      7874      7877
      7868      7871      7877      7874      7868      7871      7877      7879
      7870      7868      7866      7874      7870      7868      7871      7873
      7870      7868      7871      7877      7871      7868      7866      7874
      7871      7877      7874      7876      7873      7871      7877      7874
      7873      7871      7877      7879      7876      7874      7877      7879
      7881      7886      7888      7890      7881      7886      7888      7891
      7881      7886      7894      7896      7881      7886      7894      7897
      7883      7881      7886      7888      7883      7881      7886      7894
      7884      7881      7886      7888      7884      7881      7886      7894
      7885      7881      7886      7888      7885      7881      7886      7894
      7886      7888      7891      7893      7886      7888      7891      7897
      7886      7894      7897      7891      7886      7894      7897      7899
      7888      7886      7894      7896      7888      7886      7894      7897
      7888      7891      7897      7894      7888      7891      7897      7899
      7890      7888      7886      7894      7890      7888      7891      7893
      7890      7888      7891      7897      7891      7888      7886      7894
      7891      7897      7894      7896      7893      7891      7897      7894
      7893      7891      7897      7899      7896      7894      7897      7899
      7901      7906      7908      7910      7901      7906      7908      7911
      7901      7906      7914      7916      7901      7906      7914      7917
      7903      7901      7906      7908      7903      7901      7906      7914
      7904      7901      7906      7908      7904      7901      7906      7914
      7905      7901      7906      7908      7905      7901      7906      7914
      7906      7908      7911      7913      7906      7908      7911      7917
      7906      7914      7917      7911      7906      7914      7917      7919
      7908      7906      7914      7916      7908      7906      7914      7917
      7908      7911      7917      7914      7908      7911      7917      7919
      7910      7908      7906      7914      7910      7908      7911      7913
      7910      7908      7911      7917      7911      7908      7906      7914
      7911      7917      7914      7916      7913      7911      7917      7914
      7913      7911      7917      7919      7916      7914      7917      7919
      7921      7926      7928      7930      7921      7926      7928      7931
      7921      7926      7934      7936      7921      7926      7934      7937
      7923      7921      7926      7928      7923      7921      7926      7934
      7924      7921      7926      7928      7924      7921      7926      7934
      7925      7921      7926      7928      7925      7921      7926      7934
      7926      7928      7931      7933      7926      7928      7931      7937
      7926      7934      7937      7931      7926      7934      7937      7939
      7928      7926      7934      7936      7928      7926      7934      7937
      7928      7931      7937      7934      7928      7931      7937      7939
      7930      7928      7926      7934      7930      7928      7931      7933
      7930      7928      7931      7937      7931      7928      7926      7934
      7931      7937      7934      7936      7933      7931      7937      7934
      7933      7931      7937      7939      7936      7934      7937      7939
      7941      7946      7948      7950      7941      7946      7948      7951
      7941      7946      7954      7956      7941      7946      7954      7957
      7943      7941      7946      7948      7943      7941      7946      7954
      7944      7941      7946      7948      7944      7941      7946      7954
      7945      7941      7946      7948      7945      7941      7946      7954
      7946      7948      7951      7953      7946      7948      7951      7957
      7946      7954      7957      7951      7946      7954      7957      7959
      7948      7946      7954      7956      7948      7946      7954      7957
      7948      7951      7957      7954      7948      7951      7957      7959
      7950      7948      7946      7954      7950      7948      7951      7953
      7950      7948      7951      7957      7951      7948      7946      7954
      7951      7957      7954      7956      7953      7951      7957      7954
      7953      7951      7957      7959      7956      7954      7957      7959
      7961      7966      7968      7970      7961      7966      7968      7971
      7961      7966      7974      7976      7961      7966      7974      7977
      7963      7961      7966      7968      7963      7961      7966      7974
      7964      7961      7966      7968      7964      7961      7966      7974
      7965      7961      7966      7968      7965      7961      7966      7974
      7966      7968      7971      7973      7966      7968      7971      7977
      7966      7974      7977      7971      7966      7974      7977      7979
      7968      7966      7974      7976      7968      7966      7974      7977
      7968      7971      7977      7974      7968      7971      7977      7979
      7970      7968      7966      7974      7970      7968      7971      7973
      7970      7968      7971      7977      7971      7968      7966      7974
      7971      7977      7974      7976      7973      7971      7977      7974
      7973      7971      7977      7979      7976      7974      7977      7979
      7981      7986      7988      7990      7981      7986      7988      7991
      7981      7986      7994      7996      7981      7986      7994      7997
      7983      7981      7986      7988      7983      7981      7986      7994
      7984      7981      7986      7988      7984      7981      7986      7994
      7985      7981      7986      7988      7985      7981      7986      7994
      7986      7988      7991      7993      7986      7988      7991      7997
      7986      7994      7997      7991      7986      7994      7997      7999
      7988      7986      7994      7996      7988      7986      7994      7997
      7988      7991      7997      7994      7988      7991      7997      7999
      7990      7988      7986      7994      7990      7988      7991      7993
      7990      7988      7991      7997      7991      7988      7986      7994
      7991      7997      7994      7996      7993      7991      7997      7994
      7993      7991      7997      7999      7996      7994      7997      7999
      8001      8006      8008      8010      8001      8006      8008      8011
      8001      8006      8014      8016      8001      8006      8014      8017
      8003      8001      8006      8008      8003      8001      8006      8014
      8004      8001      8006      8008      8004      8001      8006      8014
      8005      8001      8006      8008      8005      8001      8006      8014
      8006      8008      8011      8013      8006      8008      8011      8017
      8006      8014      8017      8011      8006      8014      8017      8019
      8008      8006      8014      8016      8008      8006      8014      8017
      8008      8011      8017      8014      8008      8011      8017      8019
      8010      8008      8006      8014      8010      8008      8011      8013
      8010      8008      8011      8017      8011      8008      8006      8014
      8011      8017      8014      8016      8013      8011      8017      8014
      8013      8011      8017      8019      8016      8014      8017      8019
      8021      8026      8028      8030      8021      8026      8028      8031
      8021      8026      8034      8036      8021      8026      8034      8037
      8023      8021      8026      8028      8023      8021      8026      8034
      8024      8021      8026      8028      8024      8021      8026      8034
      8025      8021      8026      8028      8025      8021      8026      8034
      8026      8028      8031      8033      8026      8028      8031      8037
      8026      8034      8037      8031      8026      8034      8037      8039
      8028      8026      8034      8036      8028      8026      8034      8037
      8028      8031      8037      8034      8028      8031      8037      8039
      8030      8028      8026      8034      8030      8028      8031      8033
      8030      8028      8031      8037      8031      8028      8026      8034
      8031      8037      8034      8036      8033      8031      8037      8034
      8033      8031      8037      8039      8036      8034      8037      8039
      8041      8046      8048      8050      8041      8046      8048      8051
      8041      8046      8054      8056      8041      8046      8054      8057
      8043      8041      8046      8048      8043      8041      8046      8054
      8044      8041      8046      8048      8044      8041      8046      8054
      8045      8041      8046      8048      8045      8041      8046      8054
      8046      8048      8051      8053      8046      8048      8051      8057
      8046      8054      8057      8051      8046      8054      8057      8059
      8048      8046      8054      8056      8048      8046      8054      8057
      8048      8051      8057      8054      8048      8051      8057      8059
      8050      8048      8046      8054      8050      8048      8051      8053
      8050      8048      8051      8057      8051      8048      8046      8054
      8051      8057      8054      8056      8053      8051      8057      8054
      8053      8051      8057      8059      8056      8054      8057      8059
      8061      8066      8068      8070      8061      8066      8068      8071
      8061      8066      8074      8076      8061      8066      8074      8077
      8063      8061      8066      8068      8063      8061      8066      8074
      8064      8061      8066      8068      8064      8061      8066      8074
      8065      8061      8066      8068      8065      8061      8066      8074
      8066      8068      8071      8073      8066      8068      8071      8077
      8066      8074      8077      8071      8066      8074      8077      8079
      8068      8066      8074      8076      8068      8066      8074      8077
      8068      8071      8077      8074      8068      8071      8077      8079
      8070      8068      8066      8074      8070      8068      8071      8073
      8070      8068      8071      8077      8071      8068      8066      8074
      8071      8077      8074      8076      8073      8071      8077      8074
      8073      8071      8077      8079      8076      8074      8077      8079
      8081      8086      8088      8090      8081      8086      8088      8091
      8081      8086      8094      8096      8081      8086      8094      8097
      8083      8081      8086      8088      8083      8081      8086      8094
      8084      8081      8086      8088      8084      8081      8086      8094
      8085      8081      8086      8088      8085      8081      8086      8094
      8086      8088      8091      8093      8086      8088      8091      8097
      8086      8094      8097      8091      8086      8094      8097      8099
      8088      8086      8094      8096      8088      8086      8094      8097
      8088      8091      8097      8094      8088      8091      8097      8099
      8090      8088      8086      8094      8090      8088      8091      8093
      8090      8088      8091      8097      8091      8088      8086      8094
      8091      8097      8094      8096      8093      8091      8097      8094
      8093      8091      8097      8099      8096      8094      8097      8099
      8101      8106      8108      8110      8101      8106      8108      8111
      8101      8106      8114      8116      8101      8106      8114      8117
      8103      8101      8106      8108      8103      8101      8106      8114
      8104      8101      8106      8108      8104      8101      8106      8114
      8105      8101      8106      8108      8105      8101      8106      8114
      8106      8108      8111      8113      8106      8108      8111      8117
      8106      8114      8117      8111      8106      8114      8117      8119
      8108      8106      8114      8116      8108      8106      8114      8117
      8108      8111      8117      8114      8108      8111      8117      8119
      8110      8108      8106      8114      8110      8108      8111      8113
      8110      8108      8111      8117      8111      8108      8106      8114
      8111      8117      8114      8116      8113      8111      8117      8114
      8113      8111      8117      8119      8116      8114      8117      8119
      8121      8126      8128      8130      8121      8126      8128      8131
      8121      8126      8134      8136      8121      8126      8134      8137
      8123      8121      8126      8128      8123      8121      8126      8134
      8124      8121      8126      8128      8124      8121      8126      8134
      8125      8121      8126      8128      8125      8121      8126      8134
      8126      8128      8131      8133      8126      8128      8131      8137
      8126      8134      8137      8131      8126      8134      8137      8139
      8128      8126      8134      8136      8128      8126      8134      8137
      8128      8131      8137      8134      8128      8131      8137      8139
      8130      8128      8126      8134      8130      8128      8131      8133
      8130      8128      8131      8137      8131      8128      8126      8134
      8131      8137      8134      8136      8133      8131      8137      8134
      8133      8131      8137      8139      8136      8134      8137      8139
      8141      8146      8148      8150      8141      8146      8148      8151
      8141      8146      8154      8156      8141      8146      8154      8157
      8143      8141      8146      8148      8143      8141      8146      8154
      8144      8141      8146      8148      8144      8141      8146      8154
      8145      8141      8146      8148      8145      8141      8146      8154
      8146      8148      8151      8153      8146      8148      8151      8157
      8146      8154      8157      8151      8146      8154      8157      8159
      8148      8146      8154      8156      8148      8146      8154      8157
      8148      8151      8157      8154      8148      8151      8157      8159
      8150      8148      8146      8154      8150      8148      8151      8153
      8150      8148      8151      8157      8151      8148      8146      8154
      8151      8157      8154      8156      8153      8151      8157      8154
      8153      8151      8157      8159      8156      8154      8157      8159
      8161      8166      8168      8170      8161      8166      8168      8171
      8161      8166      8174      8176      8161      8166      8174      8177
      8163      8161      8166      8168      8163      8161      8166      8174
      8164      8161      8166      8168      8164      8161      8166      8174
      8165      8161      8166      8168      8165      8161      8166      8174
      8166      8168      8171      8173      8166      8168      8171      8177
      8166      8174      8177      8171      8166      8174      8177      8179
      8168      8166      8174      8176      8168      8166      8174      8177
      8168      8171      8177      8174      8168      8171      8177      8179
      8170      8168      8166      8174      8170      8168      8171      8173
      8170      8168      8171      8177      8171      8168      8166      8174
      8171      8177      8174      8176      8173      8171      8177      8174
      8173      8171      8177      8179      8176      8174      8177      8179
      8181      8186      8188      8190      8181      8186      8188      8191
      8181      8186      8194      8196      8181      8186      8194      8197
      8183      8181      8186      8188      8183      8181      8186      8194
      8184      8181      8186      8188      8184      8181      8186      8194
      8185      8181      8186      8188      8185      8181      8186      8194
      8186      8188      8191      8193      8186      8188      8191      8197
      8186      8194      8197      8191      8186      8194      8197      8199
      8188      8186      8194      8196      8188      8186      8194      8197
      8188      8191      8197      8194      8188      8191      8197      8199
      8190      8188      8186      8194      8190      8188      8191      8193
      8190      8188      8191      8197      8191      8188      8186      8194
      8191      8197      8194      8196      8193      8191      8197      8194
      8193      8191      8197      8199      8196      8194      8197      8199
      8201      8206      8208      8210      8201      8206      8208      8211
      8201      8206      8214      8216      8201      8206      8214      8217
      8203      8201      8206      8208      8203      8201      8206      8214
      8204      8201      8206      8208      8204      8201      8206      8214
      8205      8201      8206      8208      8205      8201      8206      8214
      8206      8208      8211      8213      8206      8208      8211      8217
      8206      8214      8217      8211      8206      8214      8217      8219
      8208      8206      8214      8216      8208      8206      8214      8217
      8208      8211      8217      8214      8208      8211      8217      8219
      8210      8208      8206      8214      8210      8208      8211      8213
      8210      8208      8211      8217      8211      8208      8206      8214
      8211      8217      8214      8216      8213      8211      8217      8214
      8213      8211      8217      8219      8216      8214      8217      8219
      8221      8226      8228      8230      8221      8226      8228      8231
      8221      8226      8234      8236      8221      8226      8234      8237
      8223      8221      8226      8228      8223      8221      8226      8234
      8224      8221      8226      8228      8224      8221      8226      8234
      8225      8221      8226      8228      8225      8221      8226      8234
      8226      8228      8231      8233      8226      8228      8231      8237
      8226      8234      8237      8231      8226      8234      8237      8239
      8228      8226      8234      8236      8228      8226      8234      8237
      8228      8231      8237      8234      8228      8231      8237      8239
      8230      8228      8226      8234      8230      8228      8231      8233
      8230      8228      8231      8237      8231      8228      8226      8234
      8231      8237      8234      8236      8233      8231      8237      8234
      8233      8231      8237      8239      8236      8234      8237      8239
      8241      8246      8248      8250      8241      8246      8248      8251
      8241      8246      8254      8256      8241      8246      8254      8257
      8243      8241      8246      8248      8243      8241      8246      8254
      8244      8241      8246      8248      8244      8241      8246      8254
      8245      8241      8246      8248      8245      8241      8246      8254
      8246      8248      8251      8253      8246      8248      8251      8257
      8246      8254      8257      8251      8246      8254      8257      8259
      8248      8246      8254      8256      8248      8246      8254      8257
      8248      8251      8257      8254      8248      8251      8257      8259
      8250      8248      8246      8254      8250      8248      8251      8253
      8250      8248      8251      8257      8251      8248      8246      8254
      8251      8257      8254      8256      8253      8251      8257      8254
      8253      8251      8257      8259      8256      8254      8257      8259
      8261      8266      8268      8270      8261      8266      8268      8271
      8261      8266      8274      8276      8261      8266      8274      8277
      8263      8261      8266      8268      8263      8261      8266      8274
      8264      8261      8266      8268      8264      8261      8266      8274
      8265      8261      8266      8268      8265      8261      8266      8274
      8266      8268      8271      8273      8266      8268      8271      8277
      8266      8274      8277      8271      8266      8274      8277      8279
      8268      8266      8274      8276      8268      8266      8274      8277
      8268      8271      8277      8274      8268      8271      8277      8279
      8270      8268      8266      8274      8270      8268      8271      8273
      8270      8268      8271      8277      8271      8268      8266      8274
      8271      8277      8274      8276      8273      8271      8277      8274
      8273      8271      8277      8279      8276      8274      8277      8279
      8281      8286      8288      8290      8281      8286      8288      8291
      8281      8286      8294      8296      8281      8286      8294      8297
      8283      8281      8286      8288      8283      8281      8286      8294
      8284      8281      8286      8288      8284      8281      8286      8294
      8285      8281      8286      8288      8285      8281      8286      8294
      8286      8288      8291      8293      8286      8288      8291      8297
      8286      8294      8297      8291      8286      8294      8297      8299
      8288      8286      8294      8296      8288      8286      8294      8297
      8288      8291      8297      8294      8288      8291      8297      8299
      8290      8288      8286      8294      8290      8288      8291      8293
      8290      8288      8291      8297      8291      8288      8286      8294
      8291      8297      8294      8296      8293      8291      8297      8294
      8293      8291      8297      8299      8296      8294      8297      8299
      8301      8306      8308      8310      8301      8306      8308      8311
      8301      8306      8314      8316      8301      8306      8314      8317
      8303      8301      8306      8308      8303      8301      8306      8314
      8304      8301      8306      8308      8304      8301      8306      8314
      8305      8301      8306      8308      8305      8301      8306      8314
      8306      8308      8311      8313      8306      8308      8311      8317
      8306      8314      8317      8311      8306      8314      8317      8319
      8308      8306      8314      8316      8308      8306      8314      8317
      8308      8311      8317      8314      8308      8311      8317      8319
      8310      8308      8306      8314      8310      8308      8311      8313
      8310      8308      8311      8317      8311      8308      8306      8314
      8311      8317      8314      8316      8313      8311      8317      8314
      8313      8311      8317      8319      8316      8314      8317      8319
      8321      8326      8328      8330      8321      8326      8328      8331
      8321      8326      8334      8336      8321      8326      8334      8337
      8323      8321      8326      8328      8323      8321      8326      8334
      8324      8321      8326      8328      8324      8321      8326      8334
      8325      8321      8326      8328      8325      8321      8326      8334
      8326      8328      8331      8333      8326      8328      8331      8337
      8326      8334      8337      8331      8326      8334      8337      8339
      8328      8326      8334      8336      8328      8326      8334      8337
      8328      8331      8337      8334      8328      8331      8337      8339
      8330      8328      8326      8334      8330      8328      8331      8333
      8330      8328      8331      8337      8331      8328      8326      8334
      8331      8337      8334      8336      8333      8331      8337      8334
      8333      8331      8337      8339      8336      8334      8337      8339
      8341      8346      8348      8350      8341      8346      8348      8351
      8341      8346      8354      8356      8341      8346      8354      8357
      8343      8341      8346      8348      8343      8341      8346      8354
      8344      8341      8346      8348      8344      8341      8346      8354
      8345      8341      8346      8348      8345      8341      8346      8354
      8346      8348      8351      8353      8346      8348      8351      8357
      8346      8354      8357      8351      8346      8354      8357      8359
      8348      8346      8354      8356      8348      8346      8354      8357
      8348      8351      8357      8354      8348      8351      8357      8359
      8350      8348      8346      8354      8350      8348      8351      8353
      8350      8348      8351      8357      8351      8348      8346      8354
      8351      8357      8354      8356      8353      8351      8357      8354
      8353      8351      8357      8359      8356      8354      8357      8359
      8361      8366      8368      8370      8361      8366      8368      8371
      8361      8366      8374      8376      8361      8366      8374      8377
      8363      8361      8366      8368      8363      8361      8366      8374
      8364      8361      8366      8368      8364      8361      8366      8374
      8365      8361      8366      8368      8365      8361      8366      8374
      8366      8368      8371      8373      8366      8368      8371      8377
      8366      8374      8377      8371      8366      8374      8377      8379
      8368      8366      8374      8376      8368      8366      8374      8377
      8368      8371      8377      8374      8368      8371      8377      8379
      8370      8368      8366      8374      8370      8368      8371      8373
      8370      8368      8371      8377      8371      8368      8366      8374
      8371      8377      8374      8376      8373      8371      8377      8374
      8373      8371      8377      8379      8376      8374      8377      8379
      8381      8386      8388      8390      8381      8386      8388      8391
      8381      8386      8394      8396      8381      8386      8394      8397
      8383      8381      8386      8388      8383      8381      8386      8394
      8384      8381      8386      8388      8384      8381      8386      8394
      8385      8381      8386      8388      8385      8381      8386      8394
      8386      8388      8391      8393      8386      8388      8391      8397
      8386      8394      8397      8391      8386      8394      8397      8399
      8388      8386      8394      8396      8388      8386      8394      8397
      8388      8391      8397      8394      8388      8391      8397      8399
      8390      8388      8386      8394      8390      8388      8391      8393
      8390      8388      8391      8397      8391      8388      8386      8394
      8391      8397      8394      8396      8393      8391      8397      8394
      8393      8391      8397      8399      8396      8394      8397      8399
      8401      8406      8408      8410      8401      8406      8408      8411
      8401      8406      8414      8416      8401      8406      8414      8417
      8403      8401      8406      8408      8403      8401      8406      8414
      8404      8401      8406      8408      8404      8401      8406      8414
      8405      8401      8406      8408      8405      8401      8406      8414
      8406      8408      8411      8413      8406      8408      8411      8417
      8406      8414      8417      8411      8406      8414      8417      8419
      8408      8406      8414      8416      8408      8406      8414      8417
      8408      8411      8417      8414      8408      8411      8417      8419
      8410      8408      8406      8414      8410      8408      8411      8413
      8410      8408      8411      8417      8411      8408      8406      8414
      8411      8417      8414      8416      8413      8411      8417      8414
      8413      8411      8417      8419      8416      8414      8417      8419
      8421      8426      8428      8430      8421      8426      8428      8431
      8421      8426      8434      8436      8421      8426      8434      8437
      8423      8421      8426      8428      8423      8421      8426      8434
      8424      8421      8426      8428      8424      8421      8426      8434
      8425      8421      8426      8428      8425      8421      8426      8434
      8426      8428      8431      8433      8426      8428      8431      8437
      8426      8434      8437      8431      8426      8434      8437      8439
      8428      8426      8434      8436      8428      8426      8434      8437
      8428      8431      8437      8434      8428      8431      8437      8439
      8430      8428      8426      8434      8430      8428      8431      8433
      8430      8428      8431      8437      8431      8428      8426      8434
      8431      8437      8434      8436      8433      8431      8437      8434
      8433      8431      8437      8439      8436      8434      8437      8439
      8441      8446      8448      8450      8441      8446      8448      8451
      8441      8446      8454      8456      8441      8446      8454      8457
      8443      8441      8446      8448      8443      8441      8446      8454
      8444      8441      8446      8448      8444      8441      8446      8454
      8445      8441      8446      8448      8445      8441      8446      8454
      8446      8448      8451      8453      8446      8448      8451      8457
      8446      8454      8457      8451      8446      8454      8457      8459
      8448      8446      8454      8456      8448      8446      8454      8457
      8448      8451      8457      8454      8448      8451      8457      8459
      8450      8448      8446      8454      8450      8448      8451      8453
      8450      8448      8451      8457      8451      8448      8446      8454
      8451      8457      8454      8456      8453      8451      8457      8454
      8453      8451      8457      8459      8456      8454      8457      8459
      8461      8466      8468      8470      8461      8466      8468      8471
      8461      8466      8474      8476      8461      8466      8474      8477
      8463      8461      8466      8468      8463      8461      8466      8474
      8464      8461      8466      8468      8464      8461      8466      8474
      8465      8461      8466      8468      8465      8461      8466      8474
      8466      8468      8471      8473      8466      8468      8471      8477
      8466      8474      8477      8471      8466      8474      8477      8479
      8468      8466      8474      8476      8468      8466      8474      8477
      8468      8471      8477      8474      8468      8471      8477      8479
      8470      8468      8466      8474      8470      8468      8471      8473
      8470      8468      8471      8477      8471      8468      8466      8474
      8471      8477      8474      8476      8473      8471      8477      8474
      8473      8471      8477      8479      8476      8474      8477      8479
      8481      8486      8488      8490      8481      8486      8488      8491
      8481      8486      8494      8496      8481      8486      8494      8497
      8483      8481      8486      8488      8483      8481      8486      8494
      8484      8481      8486      8488      8484      8481      8486      8494
      8485      8481      8486      8488      8485      8481      8486      8494
      8486      8488      8491      8493      8486      8488      8491      8497
      8486      8494      8497      8491      8486      8494      8497      8499
      8488      8486      8494      8496      8488      8486      8494      8497
      8488      8491      8497      8494      8488      8491      8497      8499
      8490      8488      8486      8494      8490      8488      8491      8493
      8490      8488      8491      8497      8491      8488      8486      8494
      8491      8497      8494      8496      8493      8491      8497      8494
      8493      8491      8497      8499      8496      8494      8497      8499
      8501      8506      8508      8510      8501      8506      8508      8511
      8501      8506      8514      8516      8501      8506      8514      8517
      8503      8501      8506      8508      8503      8501      8506      8514
      8504      8501      8506      8508      8504      8501      8506      8514
      8505      8501      8506      8508      8505      8501      8506      8514
      8506      8508      8511      8513      8506      8508      8511      8517
      8506      8514      8517      8511      8506      8514      8517      8519
      8508      8506      8514      8516      8508      8506      8514      8517
      8508      8511      8517      8514      8508      8511      8517      8519
      8510      8508      8506      8514      8510      8508      8511      8513
      8510      8508      8511      8517      8511      8508      8506      8514
      8511      8517      8514      8516      8513      8511      8517      8514
      8513      8511      8517      8519      8516      8514      8517      8519
      8521      8526      8528      8530      8521      8526      8528      8531
      8521      8526      8534      8536      8521      8526      8534      8537
      8523      8521      8526      8528      8523      8521      8526      8534
      8524      8521      8526      8528      8524      8521      8526      8534
      8525      8521      8526      8528      8525      8521      8526      8534
      8526      8528      8531      8533      8526      8528      8531      8537
      8526      8534      8537      8531      8526      8534      8537      8539
      8528      8526      8534      8536      8528      8526      8534      8537
      8528      8531      8537      8534      8528      8531      8537      8539
      8530      8528      8526      8534      8530      8528      8531      8533
      8530      8528      8531      8537      8531      8528      8526      8534
      8531      8537      8534      8536      8533      8531      8537      8534
      8533      8531      8537      8539      8536      8534      8537      8539
      8541      8546      8548      8550      8541      8546      8548      8551
      8541      8546      8554      8556      8541      8546      8554      8557
      8543      8541      8546      8548      8543      8541      8546      8554
      8544      8541      8546      8548      8544      8541      8546      8554
      8545      8541      8546      8548      8545      8541      8546      8554
      8546      8548      8551      8553      8546      8548      8551      8557
      8546      8554      8557      8551      8546      8554      8557      8559
      8548      8546      8554      8556      8548      8546      8554      8557
      8548      8551      8557      8554      8548      8551      8557      8559
      8550      8548      8546      8554      8550      8548      8551      8553
      8550      8548      8551      8557      8551      8548      8546      8554
      8551      8557      8554      8556      8553      8551      8557      8554
      8553      8551      8557      8559      8556      8554      8557      8559
      8561      8566      8568      8570      8561      8566      8568      8571
      8561      8566      8574      8576      8561      8566      8574      8577
      8563      8561      8566      8568      8563      8561      8566      8574
      8564      8561      8566      8568      8564      8561      8566      8574
      8565      8561      8566      8568      8565      8561      8566      8574
      8566      8568      8571      8573      8566      8568      8571      8577
      8566      8574      8577      8571      8566      8574      8577      8579
      8568      8566      8574      8576      8568      8566      8574      8577
      8568      8571      8577      8574      8568      8571      8577      8579
      8570      8568      8566      8574      8570      8568      8571      8573
      8570      8568      8571      8577      8571      8568      8566      8574
      8571      8577      8574      8576      8573      8571      8577      8574
      8573      8571      8577      8579      8576      8574      8577      8579
      8581      8586      8588      8590      8581      8586      8588      8591
      8581      8586      8594      8596      8581      8586      8594      8597
      8583      8581      8586      8588      8583      8581      8586      8594
      8584      8581      8586      8588      8584      8581      8586      8594
      8585      8581      8586      8588      8585      8581      8586      8594
      8586      8588      8591      8593      8586      8588      8591      8597
      8586      8594      8597      8591      8586      8594      8597      8599
      8588      8586      8594      8596      8588      8586      8594      8597
      8588      8591      8597      8594      8588      8591      8597      8599
      8590      8588      8586      8594      8590      8588      8591      8593
      8590      8588      8591      8597      8591      8588      8586      8594
      8591      8597      8594      8596      8593      8591      8597      8594
      8593      8591      8597      8599      8596      8594      8597      8599
      8601      8606      8608      8610      8601      8606      8608      8611
      8601      8606      8614      8616      8601      8606      8614      8617
      8603      8601      8606      8608      8603      8601      8606      8614
      8604      8601      8606      8608      8604      8601      8606      8614
      8605      8601      8606      8608      8605      8601      8606      8614
      8606      8608      8611      8613      8606      8608      8611      8617
      8606      8614      8617      8611      8606      8614      8617      8619
      8608      8606      8614      8616      8608      8606      8614      8617
      8608      8611      8617      8614      8608      8611      8617      8619
      8610      8608      8606      8614      8610      8608      8611      8613
      8610      8608      8611      8617      8611      8608      8606      8614
      8611      8617      8614      8616      8613      8611      8617      8614
      8613      8611      8617      8619      8616      8614      8617      8619
      8621      8626      8628      8630      8621      8626      8628      8631
      8621      8626      8634      8636      8621      8626      8634      8637
      8623      8621      8626      8628      8623      8621      8626      8634
      8624      8621      8626      8628      8624      8621      8626      8634
      8625      8621      8626      8628      8625      8621      8626      8634
      8626      8628      8631      8633      8626      8628      8631      8637
      8626      8634      8637      8631      8626      8634      8637      8639
      8628      8626      8634      8636      8628      8626      8634      8637
      8628      8631      8637      8634      8628      8631      8637      8639
      8630      8628      8626      8634      8630      8628      8631      8633
      8630      8628      8631      8637      8631      8628      8626      8634
      8631      8637      8634      8636      8633      8631      8637      8634
      8633      8631      8637      8639      8636      8634      8637      8639
      8641      8646      8648      8650      8641      8646      8648      8651
      8641      8646      8654      8656      8641      8646      8654      8657
      8643      8641      8646      8648      8643      8641      8646      8654
      8644      8641      8646      8648      8644      8641      8646      8654
      8645      8641      8646      8648      8645      8641      8646      8654
      8646      8648      8651      8653      8646      8648      8651      8657
      8646      8654      8657      8651      8646      8654      8657      8659
      8648      8646      8654      8656      8648      8646      8654      8657
      8648      8651      8657      8654      8648      8651      8657      8659
      8650      8648      8646      8654      8650      8648      8651      8653
      8650      8648      8651      8657      8651      8648      8646      8654
      8651      8657      8654      8656      8653      8651      8657      8654
      8653      8651      8657      8659      8656      8654      8657      8659
      8661      8666      8668      8670      8661      8666      8668      8671
      8661      8666      8674      8676      8661      8666      8674      8677
      8663      8661      8666      8668      8663      8661      8666      8674
      8664      8661      8666      8668      8664      8661      8666      8674
      8665      8661      8666      8668      8665      8661      8666      8674
      8666      8668      8671      8673      8666      8668      8671      8677
      8666      8674      8677      8671      8666      8674      8677      8679
      8668      8666      8674      8676      8668      8666      8674      8677
      8668      8671      8677      8674      8668      8671      8677      8679
      8670      8668      8666      8674      8670      8668      8671      8673
      8670      8668      8671      8677      8671      8668      8666      8674
      8671      8677      8674      8676      8673      8671      8677      8674
      8673      8671      8677      8679      8676      8674      8677      8679
      8681      8686      8688      8690      8681      8686      8688      8691
      8681      8686      8694      8696      8681      8686      8694      8697
      8683      8681      8686      8688      8683      8681      8686      8694
      8684      8681      8686      8688      8684      8681      8686      8694
      8685      8681      8686      8688      8685      8681      8686      8694
      8686      8688      8691      8693      8686      8688      8691      8697
      8686      8694      8697      8691      8686      8694      8697      8699
      8688      8686      8694      8696      8688      8686      8694      8697
      8688      8691      8697      8694      8688      8691      8697      8699
      8690      8688      8686      8694      8690      8688      8691      8693
      8690      8688      8691      8697      8691      8688      8686      8694
      8691      8697      8694      8696      8693      8691      8697      8694
      8693      8691      8697      8699      8696      8694      8697      8699
      8701      8706      8708      8710      8701      8706      8708      8711
      8701      8706      8714      8716      8701      8706      8714      8717
      8703      8701      8706      8708      8703      8701      8706      8714
      8704      8701      8706      8708      8704      8701      8706      8714
      8705      8701      8706      8708      8705      8701      8706      8714
      8706      8708      8711      8713      8706      8708      8711      8717
      8706      8714      8717      8711      8706      8714      8717      8719
      8708      8706      8714      8716      8708      8706      8714      8717
      8708      8711      8717      8714      8708      8711      8717      8719
      8710      8708      8706      8714      8710      8708      8711      8713
      8710      8708      8711      8717      8711      8708      8706      8714
      8711      8717      8714      8716      8713      8711      8717      8714
      8713      8711      8717      8719      8716      8714      8717      8719
      8721      8726      8728      8730      8721      8726      8728      8731
      8721      8726      8734      8736      8721      8726      8734      8737
      8723      8721      8726      8728      8723      8721      8726      8734
      8724      8721      8726      8728      8724      8721      8726      8734
      8725      8721      8726      8728      8725      8721      8726      8734
      8726      8728      8731      8733      8726      8728      8731      8737
      8726      8734      8737      8731      8726      8734      8737      8739
      8728      8726      8734      8736      8728      8726      8734      8737
      8728      8731      8737      8734      8728      8731      8737      8739
      8730      8728      8726      8734      8730      8728      8731      8733
      8730      8728      8731      8737      8731      8728      8726      8734
      8731      8737      8734      8736      8733      8731      8737      8734
      8733      8731      8737      8739      8736      8734      8737      8739
      8741      8746      8748      8750      8741      8746      8748      8751
      8741      8746      8754      8756      8741      8746      8754      8757
      8743      8741      8746      8748      8743      8741      8746      8754
      8744      8741      8746      8748      8744      8741      8746      8754
      8745      8741      8746      8748      8745      8741      8746      8754
      8746      8748      8751      8753      8746      8748      8751      8757
      8746      8754      8757      8751      8746      8754      8757      8759
      8748      8746      8754      8756      8748      8746      8754      8757
      8748      8751      8757      8754      8748      8751      8757      8759
      8750      8748      8746      8754      8750      8748      8751      8753
      8750      8748      8751      8757      8751      8748      8746      8754
      8751      8757      8754      8756      8753      8751      8757      8754
      8753      8751      8757      8759      8756      8754      8757      8759
      8761      8766      8768      8770      8761      8766      8768      8771
      8761      8766      8774      8776      8761      8766      8774      8777
      8763      8761      8766      8768      8763      8761      8766      8774
      8764      8761      8766      8768      8764      8761      8766      8774
      8765      8761      8766      8768      8765      8761      8766      8774
      8766      8768      8771      8773      8766      8768      8771      8777
      8766      8774      8777      8771      8766      8774      8777      8779
      8768      8766      8774      8776      8768      8766      8774      8777
      8768      8771      8777      8774      8768      8771      8777      8779
      8770      8768      8766      8774      8770      8768      8771      8773
      8770      8768      8771      8777      8771      8768      8766      8774
      8771      8777      8774      8776      8773      8771      8777      8774
      8773      8771      8777      8779      8776      8774      8777      8779
      8781      8786      8788      8790      8781      8786      8788      8791
      8781      8786      8794      8796      8781      8786      8794      8797
      8783      8781      8786      8788      8783      8781      8786      8794
      8784      8781      8786      8788      8784      8781      8786      8794
      8785      8781      8786      8788      8785      8781      8786      8794
      8786      8788      8791      8793      8786      8788      8791      8797
      8786      8794      8797      8791      8786      8794      8797      8799
      8788      8786      8794      8796      8788      8786      8794      8797
      8788      8791      8797      8794      8788      8791      8797      8799
      8790      8788      8786      8794      8790      8788      8791      8793
      8790      8788      8791      8797      8791      8788      8786      8794
      8791      8797      8794      8796      8793      8791      8797      8794
      8793      8791      8797      8799      8796      8794      8797      8799
      8801      8806      8808      8810      8801      8806      8808      8811
      8801      8806      8814      8816      8801      8806      8814      8817
      8803      8801      8806      8808      8803      8801      8806      8814
      8804      8801      8806      8808      8804      8801      8806      8814
      8805      8801      8806      8808      8805      8801      8806      8814
      8806      8808      8811      8813      8806      8808      8811      8817
      8806      8814      8817      8811      8806      8814      8817      8819
      8808      8806      8814      8816      8808      8806      8814      8817
      8808      8811      8817      8814      8808      8811      8817      8819
      8810      8808      8806      8814      8810      8808      8811      8813
      8810      8808      8811      8817      8811      8808      8806      8814
      8811      8817      8814      8816      8813      8811      8817      8814
      8813      8811      8817      8819      8816      8814      8817      8819
      8821      8826      8828      8830      8821      8826      8828      8831
      8821      8826      8834      8836      8821      8826      8834      8837
      8823      8821      8826      8828      8823      8821      8826      8834
      8824      8821      8826      8828      8824      8821      8826      8834
      8825      8821      8826      8828      8825      8821      8826      8834
      8826      8828      8831      8833      8826      8828      8831      8837
      8826      8834      8837      8831      8826      8834      8837      8839
      8828      8826      8834      8836      8828      8826      8834      8837
      8828      8831      8837      8834      8828      8831      8837      8839
      8830      8828      8826      8834      8830      8828      8831      8833
      8830      8828      8831      8837      8831      8828      8826      8834
      8831      8837      8834      8836      8833      8831      8837      8834
      8833      8831      8837      8839      8836      8834      8837      8839
      8841      8846      8848      8850      8841      8846      8848      8851
      8841      8846      8854      8856      8841      8846      8854      8857
      8843      8841      8846      8848      8843      8841      8846      8854
      8844      8841      8846      8848      8844      8841      8846      8854
      8845      8841      8846      8848      8845      8841      8846      8854
      8846      8848      8851      8853      8846      8848      8851      8857
      8846      8854      8857      8851      8846      8854      8857      8859
      8848      8846      8854      8856      8848      8846      8854      8857
      8848      8851      8857      8854      8848      8851      8857      8859
      8850      8848      8846      8854      8850      8848      8851      8853
      8850      8848      8851      8857      8851      8848      8846      8854
      8851      8857      8854      8856      8853      8851      8857      8854
      8853      8851      8857      8859      8856      8854      8857      8859
      8861      8866      8868      8870      8861      8866      8868      8871
      8861      8866      8874      8876      8861      8866      8874      8877
      8863      8861      8866      8868      8863      8861      8866      8874
      8864      8861      8866      8868      8864      8861      8866      8874
      8865      8861      8866      8868      8865      8861      8866      8874
      8866      8868      8871      8873      8866      8868      8871      8877
      8866      8874      8877      8871      8866      8874      8877      8879
      8868      8866      8874      8876      8868      8866      8874      8877
      8868      8871      8877      8874      8868      8871      8877      8879
      8870      8868      8866      8874      8870      8868      8871      8873
      8870      8868      8871      8877      8871      8868      8866      8874
      8871      8877      8874      8876      8873      8871      8877      8874
      8873      8871      8877      8879      8876      8874      8877      8879
      8881      8886      8888      8890      8881      8886      8888      8891
      8881      8886      8894      8896      8881      8886      8894      8897
      8883      8881      8886      8888      8883      8881      8886      8894
      8884      8881      8886      8888      8884      8881      8886      8894
      8885      8881      8886      8888      8885      8881      8886      8894
      8886      8888      8891      8893      8886      8888      8891      8897
      8886      8894      8897      8891      8886      8894      8897      8899
      8888      8886      8894      8896      8888      8886      8894      8897
      8888      8891      8897      8894      8888      8891      8897      8899
      8890      8888      8886      8894      8890      8888      8891      8893
      8890      8888      8891      8897      8891      8888      8886      8894
      8891      8897      8894      8896      8893      8891      8897      8894
      8893      8891      8897      8899      8896      8894      8897      8899
      8901      8906      8908      8910      8901      8906      8908      8911
      8901      8906      8914      8916      8901      8906      8914      8917
      8903      8901      8906      8908      8903      8901      8906      8914
      8904      8901      8906      8908      8904      8901      8906      8914
      8905      8901      8906      8908      8905      8901      8906      8914
      8906      8908      8911      8913      8906      8908      8911      8917
      8906      8914      8917      8911      8906      8914      8917      8919
      8908      8906      8914      8916      8908      8906      8914      8917
      8908      8911      8917      8914      8908      8911      8917      8919
      8910      8908      8906      8914      8910      8908      8911      8913
      8910      8908      8911      8917      8911      8908      8906      8914
      8911      8917      8914      8916      8913      8911      8917      8914
      8913      8911      8917      8919      8916      8914      8917      8919
      8921      8926      8928      8930      8921      8926      8928      8931
      8921      8926      8934      8936      8921      8926      8934      8937
      8923      8921      8926      8928      8923      8921      8926      8934
      8924      8921      8926      8928      8924      8921      8926      8934
      8925      8921      8926      8928      8925      8921      8926      8934
      8926      8928      8931      8933      8926      8928      8931      8937
      8926      8934      8937      8931      8926      8934      8937      8939
      8928      8926      8934      8936      8928      8926      8934      8937
      8928      8931      8937      8934      8928      8931      8937      8939
      8930      8928      8926      8934      8930      8928      8931      8933
      8930      8928      8931      8937      8931      8928      8926      8934
      8931      8937      8934      8936      8933      8931      8937      8934
      8933      8931      8937      8939      8936      8934      8937      8939
      8941      8946      8948      8950      8941      8946      8948      8951
      8941      8946      8954      8956      8941      8946      8954      8957
      8943      8941      8946      8948      8943      8941      8946      8954
      8944      8941      8946      8948      8944      8941      8946      8954
      8945      8941      8946      8948      8945      8941      8946      8954
      8946      8948      8951      8953      8946      8948      8951      8957
      8946      8954      8957      8951      8946      8954      8957      8959
      8948      8946      8954      8956      8948      8946      8954      8957
      8948      8951      8957      8954      8948      8951      8957      8959
      8950      8948      8946      8954      8950      8948      8951      8953
      8950      8948      8951      8957      8951      8948      8946      8954
      8951      8957      8954      8956      8953      8951      8957      8954
      8953      8951      8957      8959      8956      8954      8957      8959
      8961      8966      8968      8970      8961      8966      8968      8971
      8961      8966      8974      8976      8961      8966      8974      8977
      8963      8961      8966      8968      8963      8961      8966      8974
      8964      8961      8966      8968      8964      8961      8966      8974
      8965      8961      8966      8968      8965      8961      8966      8974
      8966      8968      8971      8973      8966      8968      8971      8977
      8966      8974      8977      8971      8966      8974      8977      8979
      8968      8966      8974      8976      8968      8966      8974      8977
      8968      8971      8977      8974      8968      8971      8977      8979
      8970      8968      8966      8974      8970      8968      8971      8973
      8970      8968      8971      8977      8971      8968      8966      8974
      8971      8977      8974      8976      8973      8971      8977      8974
      8973      8971      8977      8979      8976      8974      8977      8979
      8981      8986      8988      8990      8981      8986      8988      8991
      8981      8986      8994      8996      8981      8986      8994      8997
      8983      8981      8986      8988      8983      8981      8986      8994
      8984      8981      8986      8988      8984      8981      8986      8994
      8985      8981      8986      8988      8985      8981      8986      8994
      8986      8988      8991      8993      8986      8988      8991      8997
      8986      8994      8997      8991      8986      8994      8997      8999
      8988      8986      8994      8996      8988      8986      8994      8997
      8988      8991      8997      8994      8988      8991      8997      8999
      8990      8988      8986      8994      8990      8988      8991      8993
      8990      8988      8991      8997      8991      8988      8986      8994
      8991      8997      8994      8996      8993      8991      8997      8994
      8993      8991      8997      8999      8996      8994      8997      8999
      9001      9006      9008      9010      9001      9006      9008      9011
      9001      9006      9014      9016      9001      9006      9014      9017
      9003      9001      9006      9008      9003      9001      9006      9014
      9004      9001      9006      9008      9004      9001      9006      9014
      9005      9001      9006      9008      9005      9001      9006      9014
      9006      9008      9011      9013      9006      9008      9011      9017
      9006      9014      9017      9011      9006      9014      9017      9019
      9008      9006      9014      9016      9008      9006      9014      9017
      9008      9011      9017      9014      9008      9011      9017      9019
      9010      9008      9006      9014      9010      9008      9011      9013
      9010      9008      9011      9017      9011      9008      9006      9014
      9011      9017      9014      9016      9013      9011      9017      9014
      9013      9011      9017      9019      9016      9014      9017      9019
      9021      9026      9028      9030      9021      9026      9028      9031
      9021      9026      9034      9036      9021      9026      9034      9037
      9023      9021      9026      9028      9023      9021      9026      9034
      9024      9021      9026      9028      9024      9021      9026      9034
      9025      9021      9026      9028      9025      9021      9026      9034
      9026      9028      9031      9033      9026      9028      9031      9037
      9026      9034      9037      9031      9026      9034      9037      9039
      9028      9026      9034      9036      9028      9026      9034      9037
      9028      9031      9037      9034      9028      9031      9037      9039
      9030      9028      9026      9034      9030      9028      9031      9033
      9030      9028      9031      9037      9031      9028      9026      9034
      9031      9037      9034      9036      9033      9031      9037      9034
      9033      9031      9037      9039      9036      9034      9037      9039
      9041      9046      9048      9050      9041      9046      9048      9051
      9041      9046      9054      9056      9041      9046      9054      9057
      9043      9041      9046      9048      9043      9041      9046      9054
      9044      9041      9046      9048      9044      9041      9046      9054
      9045      9041      9046      9048      9045      9041      9046      9054
      9046      9048      9051      9053      9046      9048      9051      9057
      9046      9054      9057      9051      9046      9054      9057      9059
      9048      9046      9054      9056      9048      9046      9054      9057
      9048      9051      9057      9054      9048      9051      9057      9059
      9050      9048      9046      9054      9050      9048      9051      9053
      9050      9048      9051      9057      9051      9048      9046      9054
      9051      9057      9054      9056      9053      9051      9057      9054
      9053      9051      9057      9059      9056      9054      9057      9059
      9061      9066      9068      9070      9061      9066      9068      9071
      9061      9066      9074      9076      9061      9066      9074      9077
      9063      9061      9066      9068      9063      9061      9066      9074
      9064      9061      9066      9068      9064      9061      9066      9074
      9065      9061      9066      9068      9065      9061      9066      9074
      9066      9068      9071      9073      9066      9068      9071      9077
      9066      9074      9077      9071      9066      9074      9077      9079
      9068      9066      9074      9076      9068      9066      9074      9077
      9068      9071      9077      9074      9068      9071      9077      9079
      9070      9068      9066      9074      9070      9068      9071      9073
      9070      9068      9071      9077      9071      9068      9066      9074
      9071      9077      9074      9076      9073      9071      9077      9074
      9073      9071      9077      9079      9076      9074      9077      9079
      9081      9086      9088      9090      9081      9086      9088      9091
      9081      9086      9094      9096      9081      9086      9094      9097
      9083      9081      9086      9088      9083      9081      9086      9094
      9084      9081      9086      9088      9084      9081      9086      9094
      9085      9081      9086      9088      9085      9081      9086      9094
      9086      9088      9091      9093      9086      9088      9091      9097
      9086      9094      9097      9091      9086      9094      9097      9099
      9088      9086      9094      9096      9088      9086      9094      9097
      9088      9091      9097      9094      9088      9091      9097      9099
      9090      9088      9086      9094      9090      9088      9091      9093
      9090      9088      9091      9097      9091      9088      9086      9094
      9091      9097      9094      9096      9093      9091      9097      9094
      9093      9091      9097      9099      9096      9094      9097      9099
      9101      9106      9108      9110      9101      9106      9108      9111
      9101      9106      9114      9116      9101      9106      9114      9117
      9103      9101      9106      9108      9103      9101      9106      9114
      9104      9101      9106      9108      9104      9101      9106      9114
      9105      9101      9106      9108      9105      9101      9106      9114
      9106      9108      9111      9113      9106      9108      9111      9117
      9106      9114      9117      9111      9106      9114      9117      9119
      9108      9106      9114      9116      9108      9106      9114      9117
      9108      9111      9117      9114      9108      9111      9117      9119
      9110      9108      9106      9114      9110      9108      9111      9113
      9110      9108      9111      9117      9111      9108      9106      9114
      9111      9117      9114      9116      9113      9111      9117      9114
      9113      9111      9117      9119      9116      9114      9117      9119
      9121      9126      9128      9130      9121      9126      9128      9131
      9121      9126      9134      9136      9121      9126      9134      9137
      9123      9121      9126      9128      9123      9121      9126      9134
      9124      9121      9126      9128      9124      9121      9126      9134
      9125      9121      9126      9128      9125      9121      9126      9134
      9126      9128      9131      9133      9126      9128      9131      9137
      9126      9134      9137      9131      9126      9134      9137      9139
      9128      9126      9134      9136      9128      9126      9134      9137
      9128      9131      9137      9134      9128      9131      9137      9139
      9130      9128      9126      9134      9130      9128      9131      9133
      9130      9128      9131      9137      9131      9128      9126      9134
      9131      9137      9134      9136      9133      9131      9137      9134
      9133      9131      9137      9139      9136      9134      9137      9139
      9141      9146      9148      9150      9141      9146      9148      9151
      9141      9146      9154      9156      9141      9146      9154      9157
      9143      9141      9146      9148      9143      9141      9146      9154
      9144      9141      9146      9148      9144      9141      9146      9154
      9145      9141      9146      9148      9145      9141      9146      9154
      9146      9148      9151      9153      9146      9148      9151      9157
      9146      9154      9157      9151      9146      9154      9157      9159
      9148      9146      9154      9156      9148      9146      9154      9157
      9148      9151      9157      9154      9148      9151      9157      9159
      9150      9148      9146      9154      9150      9148      9151      9153
      9150      9148      9151      9157      9151      9148      9146      9154
      9151      9157      9154      9156      9153      9151      9157      9154
      9153      9151      9157      9159      9156      9154      9157      9159
      9161      9166      9168      9170      9161      9166      9168      9171
      9161      9166      9174      9176      9161      9166      9174      9177
      9163      9161      9166      9168      9163      9161      9166      9174
      9164      9161      9166      9168      9164      9161      9166      9174
      9165      9161      9166      9168      9165      9161      9166      9174
      9166      9168      9171      9173      9166      9168      9171      9177
      9166      9174      9177      9171      9166      9174      9177      9179
      9168      9166      9174      9176      9168      9166      9174      9177
      9168      9171      9177      9174      9168      9171      9177      9179
      9170      9168      9166      9174      9170      9168      9171      9173
      9170      9168      9171      9177      9171      9168      9166      9174
      9171      9177      9174      9176      9173      9171      9177      9174
      9173      9171      9177      9179      9176      9174      9177      9179
      9181      9186      9188      9190      9181      9186      9188      9191
      9181      9186      9194      9196      9181      9186      9194      9197
      9183      9181      9186      9188      9183      9181      9186      9194
      9184      9181      9186      9188      9184      9181      9186      9194
      9185      9181      9186      9188      9185      9181      9186      9194
      9186      9188      9191      9193      9186      9188      9191      9197
      9186      9194      9197      9191      9186      9194      9197      9199
      9188      9186      9194      9196      9188      9186      9194      9197
      9188      9191      9197      9194      9188      9191      9197      9199
      9190      9188      9186      9194      9190      9188      9191      9193
      9190      9188      9191      9197      9191      9188      9186      9194
      9191      9197      9194      9196      9193      9191      9197      9194
      9193      9191      9197      9199      9196      9194      9197      9199
      9201      9206      9208      9210      9201      9206      9208      9211
      9201      9206      9214      9216      9201      9206      9214      9217
      9203      9201      9206      9208      9203      9201      9206      9214
      9204      9201      9206      9208      9204      9201      9206      9214
      9205      9201      9206      9208      9205      9201      9206      9214
      9206      9208      9211      9213      9206      9208      9211      9217
      9206      9214      9217      9211      9206      9214      9217      9219
      9208      9206      9214      9216      9208      9206      9214      9217
      9208      9211      9217      9214      9208      9211      9217      9219
      9210      9208      9206      9214      9210      9208      9211      9213
      9210      9208      9211      9217      9211      9208      9206      9214
      9211      9217      9214      9216      9213      9211      9217      9214
      9213      9211      9217      9219      9216      9214      9217      9219
      9221      9226      9228      9230      9221      9226      9228      9231
      9221      9226      9234      9236      9221      9226      9234      9237
      9223      9221      9226      9228      9223      9221      9226      9234
      9224      9221      9226      9228      9224      9221      9226      9234
      9225      9221      9226      9228      9225      9221      9226      9234
      9226      9228      9231      9233      9226      9228      9231      9237
      9226      9234      9237      9231      9226      9234      9237      9239
      9228      9226      9234      9236      9228      9226      9234      9237
      9228      9231      9237      9234      9228      9231      9237      9239
      9230      9228      9226      9234      9230      9228      9231      9233
      9230      9228      9231      9237      9231      9228      9226      9234
      9231      9237      9234      9236      9233      9231      9237      9234
      9233      9231      9237      9239      9236      9234      9237      9239
      9241      9246      9248      9250      9241      9246      9248      9251
      9241      9246      9254      9256      9241      9246      9254      9257
      9243      9241      9246      9248      9243      9241      9246      9254
      9244      9241      9246      9248      9244      9241      9246      9254
      9245      9241      9246      9248      9245      9241      9246      9254
      9246      9248      9251      9253      9246      9248      9251      9257
      9246      9254      9257      9251      9246      9254      9257      9259
      9248      9246      9254      9256      9248      9246      9254      9257
      9248      9251      9257      9254      9248      9251      9257      9259
      9250      9248      9246      9254      9250      9248      9251      9253
      9250      9248      9251      9257      9251      9248      9246      9254
      9251      9257      9254      9256      9253      9251      9257      9254
      9253      9251      9257      9259      9256      9254      9257      9259
      9261      9266      9268      9270      9261      9266      9268      9271
      9261      9266      9274      9276      9261      9266      9274      9277
      9263      9261      9266      9268      9263      9261      9266      9274
      9264      9261      9266      9268      9264      9261      9266      9274
      9265      9261      9266      9268      9265      9261      9266      9274
      9266      9268      9271      9273      9266      9268      9271      9277
      9266      9274      9277      9271      9266      9274      9277      9279
      9268      9266      9274      9276      9268      9266      9274      9277
      9268      9271      9277      9274      9268      9271      9277      9279
      9270      9268      9266      9274      9270      9268      9271      9273
      9270      9268      9271      9277      9271      9268      9266      9274
      9271      9277      9274      9276      9273      9271      9277      9274
      9273      9271      9277      9279      9276      9274      9277      9279
      9281      9286      9288      9290      9281      9286      9288      9291
      9281      9286      9294      9296      9281      9286      9294      9297
      9283      9281      9286      9288      9283      9281      9286      9294
      9284      9281      9286      9288      9284      9281      9286      9294
      9285      9281      9286      9288      9285      9281      9286      9294
      9286      9288      9291      9293      9286      9288      9291      9297
      9286      9294      9297      9291      9286      9294      9297      9299
      9288      9286      9294      9296      9288      9286      9294      9297
      9288      9291      9297      9294      9288      9291      9297      9299
      9290      9288      9286      9294      9290      9288      9291      9293
      9290      9288      9291      9297      9291      9288      9286      9294
      9291      9297      9294      9296      9293      9291      9297      9294
      9293      9291      9297      9299      9296      9294      9297      9299
      9301      9306      9308      9310      9301      9306      9308      9311
      9301      9306      9314      9316      9301      9306      9314      9317
      9303      9301      9306      9308      9303      9301      9306      9314
      9304      9301      9306      9308      9304      9301      9306      9314
      9305      9301      9306      9308      9305      9301      9306      9314
      9306      9308      9311      9313      9306      9308      9311      9317
      9306      9314      9317      9311      9306      9314      9317      9319
      9308      9306      9314      9316      9308      9306      9314      9317
      9308      9311      9317      9314      9308      9311      9317      9319
      9310      9308      9306      9314      9310      9308      9311      9313
      9310      9308      9311      9317      9311      9308      9306      9314
      9311      9317      9314      9316      9313      9311      9317      9314
      9313      9311      9317      9319      9316      9314      9317      9319
      9321      9326      9328      9330      9321      9326      9328      9331
      9321      9326      9334      9336      9321      9326      9334      9337
      9323      9321      9326      9328      9323      9321      9326      9334
      9324      9321      9326      9328      9324      9321      9326      9334
      9325      9321      9326      9328      9325      9321      9326      9334
      9326      9328      9331      9333      9326      9328      9331      9337
      9326      9334      9337      9331      9326      9334      9337      9339
      9328      9326      9334      9336      9328      9326      9334      9337
      9328      9331      9337      9334      9328      9331      9337      9339
      9330      9328      9326      9334      9330      9328      9331      9333
      9330      9328      9331      9337      9331      9328      9326      9334
      9331      9337      9334      9336      9333      9331      9337      9334
      9333      9331      9337      9339      9336      9334      9337      9339
      9341      9346      9348      9350      9341      9346      9348      9351
      9341      9346      9354      9356      9341      9346      9354      9357
      9343      9341      9346      9348      9343      9341      9346      9354
      9344      9341      9346      9348      9344      9341      9346      9354
      9345      9341      9346      9348      9345      9341      9346      9354
      9346      9348      9351      9353      9346      9348      9351      9357
      9346      9354      9357      9351      9346      9354      9357      9359
      9348      9346      9354      9356      9348      9346      9354      9357
      9348      9351      9357      9354      9348      9351      9357      9359
      9350      9348      9346      9354      9350      9348      9351      9353
      9350      9348      9351      9357      9351      9348      9346      9354
      9351      9357      9354      9356      9353      9351      9357      9354
      9353      9351      9357      9359      9356      9354      9357      9359
      9361      9366      9368      9370      9361      9366      9368      9371
      9361      9366      9374      9376      9361      9366      9374      9377
      9363      9361      9366      9368      9363      9361      9366      9374
      9364      9361      9366      9368      9364      9361      9366      9374
      9365      9361      9366      9368      9365      9361      9366      9374
      9366      9368      9371      9373      9366      9368      9371      9377
      9366      9374      9377      9371      9366      9374      9377      9379
      9368      9366      9374      9376      9368      9366      9374      9377
      9368      9371      9377      9374      9368      9371      9377      9379
      9370      9368      9366      9374      9370      9368      9371      9373
      9370      9368      9371      9377      9371      9368      9366      9374
      9371      9377      9374      9376      9373      9371      9377      9374
      9373      9371      9377      9379      9376      9374      9377      9379
      9381      9386      9388      9390      9381      9386      9388      9391
      9381      9386      9394      9396      9381      9386      9394      9397
      9383      9381      9386      9388      9383      9381      9386      9394
      9384      9381      9386      9388      9384      9381      9386      9394
      9385      9381      9386      9388      9385      9381      9386      9394
      9386      9388      9391      9393      9386      9388      9391      9397
      9386      9394      9397      9391      9386      9394      9397      9399
      9388      9386      9394      9396      9388      9386      9394      9397
      9388      9391      9397      9394      9388      9391      9397      9399
      9390      9388      9386      9394      9390      9388      9391      9393
      9390      9388      9391      9397      9391      9388      9386      9394
      9391      9397      9394      9396      9393      9391      9397      9394
      9393      9391      9397      9399      9396      9394      9397      9399
      9401      9406      9408      9410      9401      9406      9408      9411
      9401      9406      9414      9416      9401      9406      9414      9417
      9403      9401      9406      9408      9403      9401      9406      9414
      9404      9401      9406      9408      9404      9401      9406      9414
      9405      9401      9406      9408      9405      9401      9406      9414
      9406      9408      9411      9413      9406      9408      9411      9417
      9406      9414      9417      9411      9406      9414      9417      9419
      9408      9406      9414      9416      9408      9406      9414      9417
      9408      9411      9417      9414      9408      9411      9417      9419
      9410      9408      9406      9414      9410      9408      9411      9413
      9410      9408      9411      9417      9411      9408      9406      9414
      9411      9417      9414      9416      9413      9411      9417      9414
      9413      9411      9417      9419      9416      9414      9417      9419
      9421      9426      9428      9430      9421      9426      9428      9431
      9421      9426      9434      9436      9421      9426      9434      9437
      9423      9421      9426      9428      9423      9421      9426      9434
      9424      9421      9426      9428      9424      9421      9426      9434
      9425      9421      9426      9428      9425      9421      9426      9434
      9426      9428      9431      9433      9426      9428      9431      9437
      9426      9434      9437      9431      9426      9434      9437      9439
      9428      9426      9434      9436      9428      9426      9434      9437
      9428      9431      9437      9434      9428      9431      9437      9439
      9430      9428      9426      9434      9430      9428      9431      9433
      9430      9428      9431      9437      9431      9428      9426      9434
      9431      9437      9434      9436      9433      9431      9437      9434
      9433      9431      9437      9439      9436      9434      9437      9439
      9441      9446      9448      9450      9441      9446      9448      9451
      9441      9446      9454      9456      9441      9446      9454      9457
      9443      9441      9446      9448      9443      9441      9446      9454
      9444      9441      9446      9448      9444      9441      9446      9454
      9445      9441      9446      9448      9445      9441      9446      9454
      9446      9448      9451      9453      9446      9448      9451      9457
      9446      9454      9457      9451      9446      9454      9457      9459
      9448      9446      9454      9456      9448      9446      9454      9457
      9448      9451      9457      9454      9448      9451      9457      9459
      9450      9448      9446      9454      9450      9448      9451      9453
      9450      9448      9451      9457      9451      9448      9446      9454
      9451      9457      9454      9456      9453      9451      9457      9454
      9453      9451      9457      9459      9456      9454      9457      9459
      9461      9466      9468      9470      9461      9466      9468      9471
      9461      9466      9474      9476      9461      9466      9474      9477
      9463      9461      9466      9468      9463      9461      9466      9474
      9464      9461      9466      9468      9464      9461      9466      9474
      9465      9461      9466      9468      9465      9461      9466      9474
      9466      9468      9471      9473      9466      9468      9471      9477
      9466      9474      9477      9471      9466      9474      9477      9479
      9468      9466      9474      9476      9468      9466      9474      9477
      9468      9471      9477      9474      9468      9471      9477      9479
      9470      9468      9466      9474      9470      9468      9471      9473
      9470      9468      9471      9477      9471      9468      9466      9474
      9471      9477      9474      9476      9473      9471      9477      9474
      9473      9471      9477      9479      9476      9474      9477      9479
      9481      9486      9488      9490      9481      9486      9488      9491
      9481      9486      9494      9496      9481      9486      9494      9497
      9483      9481      9486      9488      9483      9481      9486      9494
      9484      9481      9486      9488      9484      9481      9486      9494
      9485      9481      9486      9488      9485      9481      9486      9494
      9486      9488      9491      9493      9486      9488      9491      9497
      9486      9494      9497      9491      9486      9494      9497      9499
      9488      9486      9494      9496      9488      9486      9494      9497
      9488      9491      9497      9494      9488      9491      9497      9499
      9490      9488      9486      9494      9490      9488      9491      9493
      9490      9488      9491      9497      9491      9488      9486      9494
      9491      9497      9494      9496      9493      9491      9497      9494
      9493      9491      9497      9499      9496      9494      9497      9499
      9501      9506      9508      9510      9501      9506      9508      9511
      9501      9506      9514      9516      9501      9506      9514      9517
      9503      9501      9506      9508      9503      9501      9506      9514
      9504      9501      9506      9508      9504      9501      9506      9514
      9505      9501      9506      9508      9505      9501      9506      9514
      9506      9508      9511      9513      9506      9508      9511      9517
      9506      9514      9517      9511      9506      9514      9517      9519
      9508      9506      9514      9516      9508      9506      9514      9517
      9508      9511      9517      9514      9508      9511      9517      9519
      9510      9508      9506      9514      9510      9508      9511      9513
      9510      9508      9511      9517      9511      9508      9506      9514
      9511      9517      9514      9516      9513      9511      9517      9514
      9513      9511      9517      9519      9516      9514      9517      9519
      9521      9526      9528      9530      9521      9526      9528      9531
      9521      9526      9534      9536      9521      9526      9534      9537
      9523      9521      9526      9528      9523      9521      9526      9534
      9524      9521      9526      9528      9524      9521      9526      9534
      9525      9521      9526      9528      9525      9521      9526      9534
      9526      9528      9531      9533      9526      9528      9531      9537
      9526      9534      9537      9531      9526      9534      9537      9539
      9528      9526      9534      9536      9528      9526      9534      9537
      9528      9531      9537      9534      9528      9531      9537      9539
      9530      9528      9526      9534      9530      9528      9531      9533
      9530      9528      9531      9537      9531      9528      9526      9534
      9531      9537      9534      9536      9533      9531      9537      9534
      9533      9531      9537      9539      9536      9534      9537      9539
      9541      9546      9548      9550      9541      9546      9548      9551
      9541      9546      9554      9556      9541      9546      9554      9557
      9543      9541      9546      9548      9543      9541      9546      9554
      9544      9541      9546      9548      9544      9541      9546      9554
      9545      9541      9546      9548      9545      9541      9546      9554
      9546      9548      9551      9553      9546      9548      9551      9557
      9546      9554      9557      9551      9546      9554      9557      9559
      9548      9546      9554      9556      9548      9546      9554      9557
      9548      9551      9557      9554      9548      9551      9557      9559
      9550      9548      9546      9554      9550      9548      9551      9553
      9550      9548      9551      9557      9551      9548      9546      9554
      9551      9557      9554      9556      9553      9551      9557      9554
      9553      9551      9557      9559      9556      9554      9557      9559
      9561      9566      9568      9570      9561      9566      9568      9571
      9561      9566      9574      9576      9561      9566      9574      9577
      9563      9561      9566      9568      9563      9561      9566      9574
      9564      9561      9566      9568      9564      9561      9566      9574
      9565      9561      9566      9568      9565      9561      9566      9574
      9566      9568      9571      9573      9566      9568      9571      9577
      9566      9574      9577      9571      9566      9574      9577      9579
      9568      9566      9574      9576      9568      9566      9574      9577
      9568      9571      9577      9574      9568      9571      9577      9579
      9570      9568      9566      9574      9570      9568      9571      9573
      9570      9568      9571      9577      9571      9568      9566      9574
      9571      9577      9574      9576      9573      9571      9577      9574
      9573      9571      9577      9579      9576      9574      9577      9579
      9581      9586      9588      9590      9581      9586      9588      9591
      9581      9586      9594      9596      9581      9586      9594      9597
      9583      9581      9586      9588      9583      9581      9586      9594
      9584      9581      9586      9588      9584      9581      9586      9594
      9585      9581      9586      9588      9585      9581      9586      9594
      9586      9588      9591      9593      9586      9588      9591      9597
      9586      9594      9597      9591      9586      9594      9597      9599
      9588      9586      9594      9596      9588      9586      9594      9597
      9588      9591      9597      9594      9588      9591      9597      9599
      9590      9588      9586      9594      9590      9588      9591      9593
      9590      9588      9591      9597      9591      9588      9586      9594
      9591      9597      9594      9596      9593      9591      9597      9594
      9593      9591      9597      9599      9596      9594      9597      9599
      9601      9606      9608      9610      9601      9606      9608      9611
      9601      9606      9614      9616      9601      9606      9614      9617
      9603      9601      9606      9608      9603      9601      9606      9614
      9604      9601      9606      9608      9604      9601      9606      9614
      9605      9601      9606      9608      9605      9601      9606      9614
      9606      9608      9611      9613      9606      9608      9611      9617
      9606      9614      9617      9611      9606      9614      9617      9619
      9608      9606      9614      9616      9608      9606      9614      9617
      9608      9611      9617      9614      9608      9611      9617      9619
      9610      9608      9606      9614      9610      9608      9611      9613
      9610      9608      9611      9617      9611      9608      9606      9614
      9611      9617      9614      9616      9613      9611      9617      9614
      9613      9611      9617      9619      9616      9614      9617      9619
      9621      9626      9628      9630      9621      9626      9628      9631
      9621      9626      9634      9636      9621      9626      9634      9637
      9623      9621      9626      9628      9623      9621      9626      9634
      9624      9621      9626      9628      9624      9621      9626      9634
      9625      9621      9626      9628      9625      9621      9626      9634
      9626      9628      9631      9633      9626      9628      9631      9637
      9626      9634      9637      9631      9626      9634      9637      9639
      9628      9626      9634      9636      9628      9626      9634      9637
      9628      9631      9637      9634      9628      9631      9637      9639
      9630      9628      9626      9634      9630      9628      9631      9633
      9630      9628      9631      9637      9631      9628      9626      9634
      9631      9637      9634      9636      9633      9631      9637      9634
      9633      9631      9637      9639      9636      9634      9637      9639
      9641      9646      9648      9650      9641      9646      9648      9651
      9641      9646      9654      9656      9641      9646      9654      9657
      9643      9641      9646      9648      9643      9641      9646      9654
      9644      9641      9646      9648      9644      9641      9646      9654
      9645      9641      9646      9648      9645      9641      9646      9654
      9646      9648      9651      9653      9646      9648      9651      9657
      9646      9654      9657      9651      9646      9654      9657      9659
      9648      9646      9654      9656      9648      9646      9654      9657
      9648      9651      9657      9654      9648      9651      9657      9659
      9650      9648      9646      9654      9650      9648      9651      9653
      9650      9648      9651      9657      9651      9648      9646      9654
      9651      9657      9654      9656      9653      9651      9657      9654
      9653      9651      9657      9659      9656      9654      9657      9659
      9661      9666      9668      9670      9661      9666      9668      9671
      9661      9666      9674      9676      9661      9666      9674      9677
      9663      9661      9666      9668      9663      9661      9666      9674
      9664      9661      9666      9668      9664      9661      9666      9674
      9665      9661      9666      9668      9665      9661      9666      9674
      9666      9668      9671      9673      9666      9668      9671      9677
      9666      9674      9677      9671      9666      9674      9677      9679
      9668      9666      9674      9676      9668      9666      9674      9677
      9668      9671      9677      9674      9668      9671      9677      9679
      9670      9668      9666      9674      9670      9668      9671      9673
      9670      9668      9671      9677      9671      9668      9666      9674
      9671      9677      9674      9676      9673      9671      9677      9674
      9673      9671      9677      9679      9676      9674      9677      9679
      9681      9686      9688      9690      9681      9686      9688      9691
      9681      9686      9694      9696      9681      9686      9694      9697
      9683      9681      9686      9688      9683      9681      9686      9694
      9684      9681      9686      9688      9684      9681      9686      9694
      9685      9681      9686      9688      9685      9681      9686      9694
      9686      9688      9691      9693      9686      9688      9691      9697
      9686      9694      9697      9691      9686      9694      9697      9699
      9688      9686      9694      9696      9688      9686      9694      9697
      9688      9691      9697      9694      9688      9691      9697      9699
      9690      9688      9686      9694      9690      9688      9691      9693
      9690      9688      9691      9697      9691      9688      9686      9694
      9691      9697      9694      9696      9693      9691      9697      9694
      9693      9691      9697      9699      9696      9694      9697      9699
      9701      9706      9708      9710      9701      9706      9708      9711
      9701      9706      9714      9716      9701      9706      9714      9717
      9703      9701      9706      9708      9703      9701      9706      9714
      9704      9701      9706      9708      9704      9701      9706      9714
      9705      9701      9706      9708      9705      9701      9706      9714
      9706      9708      9711      9713      9706      9708      9711      9717
      9706      9714      9717      9711      9706      9714      9717      9719
      9708      9706      9714      9716      9708      9706      9714      9717
      9708      9711      9717      9714      9708      9711      9717      9719
      9710      9708      9706      9714      9710      9708      9711      9713
      9710      9708      9711      9717      9711      9708      9706      9714
      9711      9717      9714      9716      9713      9711      9717      9714
      9713      9711      9717      9719      9716      9714      9717      9719
      9721      9726      9728      9730      9721      9726      9728      9731
      9721      9726      9734      9736      9721      9726      9734      9737
      9723      9721      9726      9728      9723      9721      9726      9734
      9724      9721      9726      9728      9724      9721      9726      9734
      9725      9721      9726      9728      9725      9721      9726      9734
      9726      9728      9731      9733      9726      9728      9731      9737
      9726      9734      9737      9731      9726      9734      9737      9739
      9728      9726      9734      9736      9728      9726      9734      9737
      9728      9731      9737      9734      9728      9731      9737      9739
      9730      9728      9726      9734      9730      9728      9731      9733
      9730      9728      9731      9737      9731      9728      9726      9734
      9731      9737      9734      9736      9733      9731      9737      9734
      9733      9731      9737      9739      9736      9734      9737      9739
      9741      9746      9748      9750      9741      9746      9748      9751
      9741      9746      9754      9756      9741      9746      9754      9757
      9743      9741      9746      9748      9743      9741      9746      9754
      9744      9741      9746      9748      9744      9741      9746      9754
      9745      9741      9746      9748      9745      9741      9746      9754
      9746      9748      9751      9753      9746      9748      9751      9757
      9746      9754      9757      9751      9746      9754      9757      9759
      9748      9746      9754      9756      9748      9746      9754      9757
      9748      9751      9757      9754      9748      9751      9757      9759
      9750      9748      9746      9754      9750      9748      9751      9753
      9750      9748      9751      9757      9751      9748      9746      9754
      9751      9757      9754      9756      9753      9751      9757      9754
      9753      9751      9757      9759      9756      9754      9757      9759
      9761      9766      9768      9770      9761      9766      9768      9771
      9761      9766      9774      9776      9761      9766      9774      9777
      9763      9761      9766      9768      9763      9761      9766      9774
      9764      9761      9766      9768      9764      9761      9766      9774
      9765      9761      9766      9768      9765      9761      9766      9774
      9766      9768      9771      9773      9766      9768      9771      9777
      9766      9774      9777      9771      9766      9774      9777      9779
      9768      9766      9774      9776      9768      9766      9774      9777
      9768      9771      9777      9774      9768      9771      9777      9779
      9770      9768      9766      9774      9770      9768      9771      9773
      9770      9768      9771      9777      9771      9768      9766      9774
      9771      9777      9774      9776      9773      9771      9777      9774
      9773      9771      9777      9779      9776      9774      9777      9779
      9781      9786      9788      9790      9781      9786      9788      9791
      9781      9786      9794      9796      9781      9786      9794      9797
      9783      9781      9786      9788      9783      9781      9786      9794
      9784      9781      9786      9788      9784      9781      9786      9794
      9785      9781      9786      9788      9785      9781      9786      9794
      9786      9788      9791      9793      9786      9788      9791      9797
      9786      9794      9797      9791      9786      9794      9797      9799
      9788      9786      9794      9796      9788      9786      9794      9797
      9788      9791      9797      9794      9788      9791      9797      9799
      9790      9788      9786      9794      9790      9788      9791      9793
      9790      9788      9791      9797      9791      9788      9786      9794
      9791      9797      9794      9796      9793      9791      9797      9794
      9793      9791      9797      9799      9796      9794      9797      9799
      9801      9806      9808      9810      9801      9806      9808      9811
      9801      9806      9814      9816      9801      9806      9814      9817
      9803      9801      9806      9808      9803      9801      9806      9814
      9804      9801      9806      9808      9804      9801      9806      9814
      9805      9801      9806      9808      9805      9801      9806      9814
      9806      9808      9811      9813      9806      9808      9811      9817
      9806      9814      9817      9811      9806      9814      9817      9819
      9808      9806      9814      9816      9808      9806      9814      9817
      9808      9811      9817      9814      9808      9811      9817      9819
      9810      9808      9806      9814      9810      9808      9811      9813
      9810      9808      9811      9817      9811      9808      9806      9814
      9811      9817      9814      9816      9813      9811      9817      9814
      9813      9811      9817      9819      9816      9814      9817      9819
      9821      9826      9828      9830      9821      9826      9828      9831
      9821      9826      9834      9836      9821      9826      9834      9837
      9823      9821      9826      9828      9823      9821      9826      9834
      9824      9821      9826      9828      9824      9821      9826      9834
      9825      9821      9826      9828      9825      9821      9826      9834
      9826      9828      9831      9833      9826      9828      9831      9837
      9826      9834      9837      9831      9826      9834      9837      9839
      9828      9826      9834      9836      9828      9826      9834      9837
      9828      9831      9837      9834      9828      9831      9837      9839
      9830      9828      9826      9834      9830      9828      9831      9833
      9830      9828      9831      9837      9831      9828      9826      9834
      9831      9837      9834      9836      9833      9831      9837      9834
      9833      9831      9837      9839      9836      9834      9837      9839
      9841      9846      9848      9850      9841      9846      9848      9851
      9841      9846      9854      9856      9841      9846      9854      9857
      9843      9841      9846      9848      9843      9841      9846      9854
      9844      9841      9846      9848      9844      9841      9846      9854
      9845      9841      9846      9848      9845      9841      9846      9854
      9846      9848      9851      9853      9846      9848      9851      9857
      9846      9854      9857      9851      9846      9854      9857      9859
      9848      9846      9854      9856      9848      9846      9854      9857
      9848      9851      9857      9854      9848      9851      9857      9859
      9850      9848      9846      9854      9850      9848      9851      9853
      9850      9848      9851      9857      9851      9848      9846      9854
      9851      9857      9854      9856      9853      9851      9857      9854
      9853      9851      9857      9859      9856      9854      9857      9859
      9861      9866      9868      9870      9861      9866      9868      9871
      9861      9866      9874      9876      9861      9866      9874      9877
      9863      9861      9866      9868      9863      9861      9866      9874
      9864      9861      9866      9868      9864      9861      9866      9874
      9865      9861      9866      9868      9865      9861      9866      9874
      9866      9868      9871      9873      9866      9868      9871      9877
      9866      9874      9877      9871      9866      9874      9877      9879
      9868      9866      9874      9876      9868      9866      9874      9877
      9868      9871      9877      9874      9868      9871      9877      9879
      9870      9868      9866      9874      9870      9868      9871      9873
      9870      9868      9871      9877      9871      9868      9866      9874
      9871      9877      9874      9876      9873      9871      9877      9874
      9873      9871      9877      9879      9876      9874      9877      9879
      9881      9886      9888      9890      9881      9886      9888      9891
      9881      9886      9894      9896      9881      9886      9894      9897
      9883      9881      9886      9888      9883      9881      9886      9894
      9884      9881      9886      9888      9884      9881      9886      9894
      9885      9881      9886      9888      9885      9881      9886      9894
      9886      9888      9891      9893      9886      9888      9891      9897
      9886      9894      9897      9891      9886      9894      9897      9899
      9888      9886      9894      9896      9888      9886      9894      9897
      9888      9891      9897      9894      9888      9891      9897      9899
      9890      9888      9886      9894      9890      9888      9891      9893
      9890      9888      9891      9897      9891      9888      9886      9894
      9891      9897      9894      9896      9893      9891      9897      9894
      9893      9891      9897      9899      9896      9894      9897      9899
      9901      9906      9908      9910      9901      9906      9908      9911
      9901      9906      9914      9916      9901      9906      9914      9917
      9903      9901      9906      9908      9903      9901      9906      9914
      9904      9901      9906      9908      9904      9901      9906      9914
      9905      9901      9906      9908      9905      9901      9906      9914
      9906      9908      9911      9913      9906      9908      9911      9917
      9906      9914      9917      9911      9906      9914      9917      9919
      9908      9906      9914      9916      9908      9906      9914      9917
      9908      9911      9917      9914      9908      9911      9917      9919
      9910      9908      9906      9914      9910      9908      9911      9913
      9910      9908      9911      9917      9911      9908      9906      9914
      9911      9917      9914      9916      9913      9911      9917      9914
      9913      9911      9917      9919      9916      9914      9917      9919
      9921      9926      9928      9930      9921      9926      9928      9931
      9921      9926      9934      9936      9921      9926      9934      9937
      9923      9921      9926      9928      9923      9921      9926      9934
      9924      9921      9926      9928      9924      9921      9926      9934
      9925      9921      9926      9928      9925      9921      9926      9934
      9926      9928      9931      9933      9926      9928      9931      9937
      9926      9934      9937      9931      9926      9934      9937      9939
      9928      9926      9934      9936      9928      9926      9934      9937
      9928      9931      9937      9934      9928      9931      9937      9939
      9930      9928      9926      9934      9930      9928      9931      9933
      9930      9928      9931      9937      9931      9928      9926      9934
      9931      9937      9934      9936      9933      9931      9937      9934
      9933      9931      9937      9939      9936      9934      9937      9939
      9941      9946      9948      9950      9941      9946      9948      9951
      9941      9946      9954      9956      9941      9946      9954      9957
      9943      9941      9946      9948      9943      9941      9946      9954
      9944      9941      9946      9948      9944      9941      9946      9954
      9945      9941      9946      9948      9945      9941      9946      9954
      9946      9948      9951      9953      9946      9948      9951      9957
      9946      9954      9957      9951      9946      9954      9957      9959
      9948      9946      9954      9956      9948      9946      9954      9957
      9948      9951      9957      9954      9948      9951      9957      9959
      9950      9948      9946      9954      9950      9948      9951      9953
      9950      9948      9951      9957      9951      9948      9946      9954
      9951      9957      9954      9956      9953      9951      9957      9954
      9953      9951      9957      9959      9956      9954      9957      9959
      9961      9966      9968      9970      9961      9966      9968      9971
      9961      9966      9974      9976      9961      9966      9974      9977
      9963      9961      9966      9968      9963      9961      9966      9974
      9964      9961      9966      9968      9964      9961      9966      9974
      9965      9961      9966      9968      9965      9961      9966      9974
      9966      9968      9971      9973      9966      9968      9971      9977
      9966      9974      9977      9971      9966      9974      9977      9979
      9968      9966      9974      9976      9968      9966      9974      9977
      9968      9971      9977      9974      9968      9971      9977      9979
      9970      9968      9966      9974      9970      9968      9971      9973
      9970      9968      9971      9977      9971      9968      9966      9974
      9971      9977      9974      9976      9973      9971      9977      9974
      9973      9971      9977      9979      9976      9974      9977      9979
      9981      9986      9988      9990      9981      9986      9988      9991
      9981      9986      9994      9996      9981      9986      9994      9997
      9983      9981      9986      9988      9983      9981      9986      9994
      9984      9981      9986      9988      9984      9981      9986      9994
      9985      9981      9986      9988      9985      9981      9986      9994
      9986      9988      9991      9993      9986      9988      9991      9997
      9986      9994      9997      9991      9986      9994      9997      9999
      9988      9986      9994      9996      9988      9986      9994      9997
      9988      9991      9997      9994      9988      9991      9997      9999
      9990      9988      9986      9994      9990      9988      9991      9993
      9990      9988      9991      9997      9991      9988      9986      9994
      9991      9997      9994      9996      9993      9991      9997      9994
      9993      9991      9997      9999      9996      9994      9997      9999
     10003     10001     10006     10008     10004     10001     10006     10008
     10015     10013     10018     10020     10016     10013     10018     10020
     10027     10025     10030     10032     10028     10025     10030     10032
     10039     10037     10042     10044     10040     10037     10042     10044
     10051     10049     10054     10056     10052     10049     10054     10056
     10063     10061     10066     10068     10064     10061     10066     10068
     10075     10073     10078     10080     10076     10073     10078     10080
     10087     10085     10090     10092     10088     10085     10090     10092
     10099     10097     10102     10104     10100     10097     10102     10104
     10111     10109     10114     10116     10112     10109     10114     10116
     10123     10121     10126     10128     10124     10121     10126     10128
     10135     10133     10138     10140     10136     10133     10138     10140
     10147     10145     10150     10152     10148     10145     10150     10152
     10159     10157     10162     10164     10160     10157     10162     10164
     10171     10169     10174     10176     10172     10169     10174     10176
     10183     10181     10186     10188     10184     10181     10186     10188
     10195     10193     10198     10200     10196     10193     10198     10200
     10207     10205     10210     10212     10208     10205     10210     10212
     10219     10217     10222     10224     10220     10217     10222     10224
     10231     10229     10234     10236     10232     10229     10234     10236
     10243     10241     10246     10248     10244     10241     10246     10248
     10255     10253     10258     10260     10256     10253     10258     10260
     10267     10265     10270     10272     10268     10265     10270     10272
     10279     10277     10282     10284     10280     10277     10282     10284
     10291     10289     10294     10296     10292     10289     10294     10296
     10303     10301     10306     10308     10304     10301     10306     10308
     10315     10313     10318     10320     10316     10313     10318     10320
     10327     10325     10330     10332     10328     10325     10330     10332
     10339     10337     10342     10344     10340     10337     10342     10344
     10351     10349     10354     10356     10352     10349     10354     10356
     10363     10361     10366     10368     10364     10361     10366     10368
     10375     10373     10378     10380     10376     10373     10378     10380
     10387     10385     10390     10392     10388     10385     10390     10392
     10399     10397     10402     10404     10400     10397     10402     10404
     10411     10409     10414     10416     10412     10409     10414     10416
     10423     10421     10426     10428     10424     10421     10426     10428
     10435     10433     10438     10440     10436     10433     10438     10440
     10447     10445     10450     10452     10448     10445     10450     10452
     10459     10457     10462     10464     10460     10457     10462     10464
     10471     10469     10474     10476     10472     10469     10474     10476
     10483     10481     10486     10488     10484     10481     10486     10488
     10495     10493     10498     10500     10496     10493     10498     10500
     10507     10505     10510     10512     10508     10505     10510     10512
     10519     10517     10522     10524     10520     10517     10522     10524
     10531     10529     10534     10536     10532     10529     10534     10536
     10543     10541     10546     10548     10544     10541     10546     10548
     10555     10553     10558     10560     10556     10553     10558     10560
     10567     10565     10570     10572     10568     10565     10570     10572
     10579     10577     10582     10584     10580     10577     10582     10584
     10591     10589     10594     10596     10592     10589     10594     10596
     10603     10601     10606     10608     10604     10601     10606     10608
     10615     10613     10618     10620     10616     10613     10618     10620
     10627     10625     10630     10632     10628     10625     10630     10632
     10639     10637     10642     10644     10640     10637     10642     10644
     10651     10649     10654     10656     10652     10649     10654     10656
     10663     10661     10666     10668     10664     10661     10666     10668
     10675     10673     10678     10680     10676     10673     10678     10680
     10687     10685     10690     10692     10688     10685     10690     10692
     10699     10697     10702     10704     10700     10697     10702     10704
     10711     10709     10714     10716     10712     10709     10714     10716
     10723     10721     10726     10728     10724     10721     10726     10728
     10735     10733     10738     10740     10736     10733     10738     10740
     10747     10745     10750     10752     10748     10745     10750     10752
     10759     10757     10762     10764     10760     10757     10762     10764
     10771     10769     10774     10776     10772     10769     10774     10776
     10783     10781     10786     10788     10784     10781     10786     10788
     10795     10793     10798     10800     10796     10793     10798     10800
     10807     10805     10810     10812     10808     10805     10810     10812
     10819     10817     10822     10824     10820     10817     10822     10824
     10831     10829     10834     10836     10832     10829     10834     10836
     10843     10841     10846     10848     10844     10841     10846     10848
     10855     10853     10858     10860     10856     10853     10858     10860
     10867     10865     10870     10872     10868     10865     10870     10872
     10879     10877     10882     10884     10880     10877     10882     10884
     10891     10889     10894     10896     10892     10889     10894     10896
     10903     10901     10906     10908     10904     10901     10906     10908
     10915     10913     10918     10920     10916     10913     10918     10920
     10927     10925     10930     10932     10928     10925     10930     10932
     10939     10937     10942     10944     10940     10937     10942     10944
     10951     10949     10954     10956     10952     10949     10954     10956
     10963     10961     10966     10968     10964     10961     10966     10968
     10975     10973     10978     10980     10976     10973     10978     10980
     10987     10985     10990     10992     10988     10985     10990     10992
     10999     10997     11002     11004     11000     10997     11002     11004
     11011     11009     11014     11016     11012     11009     11014     11016
     11023     11021     11026     11028     11024     11021     11026     11028
     11035     11033     11038     11040     11036     11033     11038     11040
     11047     11045     11050     11052     11048     11045     11050     11052
     11059     11057     11062     11064     11060     11057     11062     11064
     11071     11069     11074     11076     11072     11069     11074     11076
     11083     11081     11086     11088     11084     11081     11086     11088
     11095     11093     11098     11100     11096     11093     11098     11100
     11107     11105     11110     11112     11108     11105     11110     11112
     11119     11117     11122     11124     11120     11117     11122     11124
     11131     11129     11134     11136     11132     11129     11134     11136
     11143     11141     11146     11148     11144     11141     11146     11148
     11155     11153     11158     11160     11156     11153     11158     11160
     11167     11165     11170     11172     11168     11165     11170     11172
     11179     11177     11182     11184     11180     11177     11182     11184
     11191     11189     11194     11196     11192     11189     11194     11196
     11203     11201     11206     11208     11204     11201     11206     11208
     11215     11213     11218     11220     11216     11213     11218     11220
     11227     11225     11230     11232     11228     11225     11230     11232
     11239     11237     11242     11244     11240     11237     11242     11244
     11251     11249     11254     11256     11252     11249     11254     11256
     11263     11261     11266     11268     11264     11261     11266     11268
     11275     11273     11278     11280     11276     11273     11278     11280
     11287     11285     11290     11292     11288     11285     11290     11292
     11299     11297     11302     11304     11300     11297     11302     11304
     11311     11309     11314     11316     11312     11309     11314     11316
     11323     11321     11326     11328     11324     11321     11326     11328
     11335     11333     11338     11340     11336     11333     11338     11340
     11347     11345     11350     11352     11348     11345     11350     11352
     11359     11357     11362     11364     11360     11357     11362     11364
     11371     11369     11374     11376     11372     11369     11374     11376
     11383     11381     11386     11388     11384     11381     11386     11388
     11395     11393     11398     11400     11396     11393     11398     11400
     11407     11405     11410     11412     11408     11405     11410     11412
     11419     11417     11422     11424     11420     11417     11422     11424
     11431     11429     11434     11436     11432     11429     11434     11436
     11443     11441     11446     11448     11444     11441     11446     11448
     11455     11453     11458     11460     11456     11453     11458     11460
     11467     11465     11470     11472     11468     11465     11470     11472
     11479     11477     11482     11484     11480     11477     11482     11484
     11491     11489     11494     11496     11492     11489     11494     11496
     11503     11501     11506     11508     11504     11501     11506     11508
     11515     11513     11518     11520     11516     11513     11518     11520
     11527     11525     11530     11532     11528     11525     11530     11532
     11539     11537     11542     11544     11540     11537     11542     11544
     11551     11549     11554     11556     11552     11549     11554     11556
     11563     11561     11566     11568     11564     11561     11566     11568
     11575     11573     11578     11580     11576     11573     11578     11580
     11587     11585     11590     11592     11588     11585     11590     11592
     11599     11597     11602     11604     11600     11597     11602     11604
     11611     11609     11614     11616     11612     11609     11614     11616
     11623     11621     11626     11628     11624     11621     11626     11628
     11635     11633     11638     11640     11636     11633     11638     11640
     11647     11645     11650     11652     11648     11645     11650     11652
     11659     11657     11662     11664     11660     11657     11662     11664
     11671     11669     11674     11676     11672     11669     11674     11676
     11683     11681     11686     11688     11684     11681     11686     11688
     11695     11693     11698     11700     11696     11693     11698     11700
     11707     11705     11710     11712     11708     11705     11710     11712
     11719     11717     11722     11724     11720     11717     11722     11724
     11731     11729     11734     11736     11732     11729     11734     11736
     11743     11741     11746     11748     11744     11741     11746     11748
     11755     11753     11758     11760     11756     11753     11758     11760
     11767     11765     11770     11772     11768     11765     11770     11772
     11779     11777     11782     11784     11780     11777     11782     11784
     11791     11789     11794     11796     11792     11789     11794     11796
     11803     11801     11806     11808     11804     11801     11806     11808
     11815     11813     11818     11820     11816     11813     11818     11820
     11827     11825     11830     11832     11828     11825     11830     11832
     11839     11837     11842     11844     11840     11837     11842     11844
     11851     11849     11854     11856     11852     11849     11854     11856
     11863     11861     11866     11868     11864     11861     11866     11868
     11875     11873     11878     11880     11876     11873     11878     11880
     11887     11885     11890     11892     11888     11885     11890     11892
     11899     11897     11902     11904     11900     11897     11902     11904
     11911     11909     11914     11916     11912     11909     11914     11916
     11923     11921     11926     11928     11924     11921     11926     11928
     11935     11933     11938     11940     11936     11933     11938     11940
     11947     11945     11950     11952     11948     11945     11950     11952
     11959     11957     11962     11964     11960     11957     11962     11964
     11971     11969     11974     11976     11972     11969     11974     11976
     11983     11981     11986     11988     11984     11981     11986     11988
     11995     11993     11998     12000     11996     11993     11998     12000
     12007     12005     12010     12012     12008     12005     12010     12012
     12019     12017     12022     12024     12020     12017     12022     12024
     12031     12029     12034     12036     12032     12029     12034     12036
     12043     12041     12046     12048     12044     12041     12046     12048
     12055     12053     12058     12060     12056     12053     12058     12060
     12067     12065     12070     12072     12068     12065     12070     12072
     12079     12077     12082     12084     12080     12077     12082     12084
     12091     12089     12094     12096     12092     12089     12094     12096
     12103     12101     12106     12108     12104     12101     12106     12108
     12115     12113     12118     12120     12116     12113     12118     12120
     12127     12125     12130     12132     12128     12125     12130     12132
     12139     12137     12142     12144     12140     12137     12142     12144
     12151     12149     12154     12156     12152     12149     12154     12156
     12163     12161     12166     12168     12164     12161     12166     12168
     12175     12173     12178     12180     12176     12173     12178     12180
     12187     12185     12190     12192     12188     12185     12190     12192
     12199     12197     12202     12204     12200     12197     12202     12204
     12211     12209     12214     12216     12212     12209     12214     12216
     12223     12221     12226     12228     12224     12221     12226     12228
     12235     12233     12238     12240     12236     12233     12238     12240
     12247     12245     12250     12252     12248     12245     12250     12252
     12259     12257     12262     12264     12260     12257     12262     12264
     12271     12269     12274     12276     12272     12269     12274     12276
     12283     12281     12286     12288     12284     12281     12286     12288
     12295     12293     12298     12300     12296     12293     12298     12300
     12307     12305     12310     12312     12308     12305     12310     12312
     12319     12317     12322     12324     12320     12317     12322     12324
     12331     12329     12334     12336     12332     12329     12334     12336
     12343     12341     12346     12348     12344     12341     12346     12348
     12355     12353     12358     12360     12356     12353     12358     12360
     12367     12365     12370     12372     12368     12365     12370     12372
     12379     12377     12382     12384     12380     12377     12382     12384
     12391     12389     12394     12396     12392     12389     12394     12396
     12403     12401     12406     12408     12404     12401     12406     12408
     12415     12413     12418     12420     12416     12413     12418     12420
     12427     12425     12430     12432     12428     12425     12430     12432
     12439     12437     12442     12444     12440     12437     12442     12444
     12451     12449     12454     12456     12452     12449     12454     12456
     12463     12461     12466     12468     12464     12461     12466     12468
     12475     12473     12478     12480     12476     12473     12478     12480
     12487     12485     12490     12492     12488     12485     12490     12492
     12499     12497     12502     12504     12500     12497     12502     12504
     12511     12509     12514     12516     12512     12509     12514     12516
     12523     12521     12526     12528     12524     12521     12526     12528
     12535     12533     12538     12540     12536     12533     12538     12540
     12547     12545     12550     12552     12548     12545     12550     12552
     12559     12557     12562     12564     12560     12557     12562     12564
     12571     12569     12574     12576     12572     12569     12574     12576
     12583     12581     12586     12588     12584     12581     12586     12588
     12595     12593     12598     12600     12596     12593     12598     12600
     12607     12605     12610     12612     12608     12605     12610     12612
     12619     12617     12622     12624     12620     12617     12622     12624
     12631     12629     12634     12636     12632     12629     12634     12636
     12643     12641     12646     12648     12644     12641     12646     12648
     12655     12653     12658     12660     12656     12653     12658     12660
     12667     12665     12670     12672     12668     12665     12670     12672
     12679     12677     12682     12684     12680     12677     12682     12684
     12691     12689     12694     12696     12692     12689     12694     12696
     12703     12701     12706     12708     12704     12701     12706     12708
     12715     12713     12718     12720     12716     12713     12718     12720
     12727     12725     12730     12732     12728     12725     12730     12732
     12739     12737     12742     12744     12740     12737     12742     12744
     12751     12749     12754     12756     12752     12749     12754     12756
     12763     12761     12766     12768     12764     12761     12766     12768
     12775     12773     12778     12780     12776     12773     12778     12780
     12787     12785     12790     12792     12788     12785     12790     12792
     12799     12797     12802     12804     12800     12797     12802     12804
     12811     12809     12814     12816     12812     12809     12814     12816
     12823     12821     12826     12828     12824     12821     12826     12828
     12835     12833     12838     12840     12836     12833     12838     12840
     12847     12845     12850     12852     12848     12845     12850     12852
     12859     12857     12862     12864     12860     12857     12862     12864
     12871     12869     12874     12876     12872     12869     12874     12876
     12883     12881     12886     12888     12884     12881     12886     12888
     12895     12893     12898     12900     12896     12893     12898     12900
     12907     12905     12910     12912     12908     12905     12910     12912
     12919     12917     12922     12924     12920     12917     12922     12924
     12931     12929     12934     12936     12932     12929     12934     12936
     12943     12941     12946     12948     12944     12941     12946     12948
     12955     12953     12958     12960     12956     12953     12958     12960
     12967     12965     12970     12972     12968     12965     12970     12972
     12979     12977     12982     12984     12980     12977     12982     12984
     12991     12989     12994     12996     12992     12989     12994     12996
     13003     13001     13006     13008     13004     13001     13006     13008
     13015     13013     13018     13020     13016     13013     13018     13020
     13027     13025     13030     13032     13028     13025     13030     13032
     13039     13037     13042     13044     13040     13037     13042     13044
     13051     13049     13054     13056     13052     13049     13054     13056
     13063     13061     13066     13068     13064     13061     13066     13068
     13075     13073     13078     13080     13076     13073     13078     13080
     13087     13085     13090     13092     13088     13085     13090     13092
     13099     13097     13102     13104     13100     13097     13102     13104
     13111     13109     13114     13116     13112     13109     13114     13116
     13123     13121     13126     13128     13124     13121     13126     13128
     13135     13133     13138     13140     13136     13133     13138     13140
     13147     13145     13150     13152     13148     13145     13150     13152
     13159     13157     13162     13164     13160     13157     13162     13164
     13171     13169     13174     13176     13172     13169     13174     13176
     13183     13181     13186     13188     13184     13181     13186     13188
     13195     13193     13198     13200     13196     13193     13198     13200
     13207     13205     13210     13212     13208     13205     13210     13212
     13219     13217     13222     13224     13220     13217     13222     13224
     13231     13229     13234     13236     13232     13229     13234     13236
     13243     13241     13246     13248     13244     13241     13246     13248
     13255     13253     13258     13260     13256     13253     13258     13260
     13267     13265     13270     13272     13268     13265     13270     13272
     13279     13277     13282     13284     13280     13277     13282     13284
     13291     13289     13294     13296     13292     13289     13294     13296
     13303     13301     13306     13308     13304     13301     13306     13308
     13315     13313     13318     13320     13316     13313     13318     13320
     13327     13325     13330     13332     13328     13325     13330     13332
     13339     13337     13342     13344     13340     13337     13342     13344
     13351     13349     13354     13356     13352     13349     13354     13356
     13363     13361     13366     13368     13364     13361     13366     13368
     13375     13373     13378     13380     13376     13373     13378     13380
     13387     13385     13390     13392     13388     13385     13390     13392
     13399     13397     13402     13404     13400     13397     13402     13404
     13411     13409     13414     13416     13412     13409     13414     13416
     13423     13421     13426     13428     13424     13421     13426     13428
     13435     13433     13438     13440     13436     13433     13438     13440
     13447     13445     13450     13452     13448     13445     13450     13452
     13459     13457     13462     13464     13460     13457     13462     13464
     13471     13469     13474     13476     13472     13469     13474     13476
     13483     13481     13486     13488     13484     13481     13486     13488
     13495     13493     13498     13500     13496     13493     13498     13500
     13507     13505     13510     13512     13508     13505     13510     13512
     13519     13517     13522     13524     13520     13517     13522     13524
     13531     13529     13534     13536     13532     13529     13534     13536
     13543     13541     13546     13548     13544     13541     13546     13548
     13555     13553     13558     13560     13556     13553     13558     13560
     13567     13565     13570     13572     13568     13565     13570     13572
     13579     13577     13582     13584     13580     13577     13582     13584
     13591     13589     13594     13596     13592     13589     13594     13596
     13603     13601     13606     13608     13604     13601     13606     13608
     13615     13613     13618     13620     13616     13613     13618     13620
     13627     13625     13630     13632     13628     13625     13630     13632
     13639     13637     13642     13644     13640     13637     13642     13644
     13651     13649     13654     13656     13652     13649     13654     13656
     13663     13661     13666     13668     13664     13661     13666     13668
     13675     13673     13678     13680     13676     13673     13678     13680
     13687     13685     13690     13692     13688     13685     13690     13692
     13699     13697     13702     13704     13700     13697     13702     13704
     13711     13709     13714     13716     13712     13709     13714     13716
     13723     13721     13726     13728     13724     13721     13726     13728
     13735     13733     13738     13740     13736     13733     13738     13740
     13747     13745     13750     13752     13748     13745     13750     13752
     13759     13757     13762     13764     13760     13757     13762     13764
     13771     13769     13774     13776     13772     13769     13774     13776
     13783     13781     13786     13788     13784     13781     13786     13788
     13795     13793     13798     13800     13796     13793     13798     13800
     13807     13805     13810     13812     13808     13805     13810     13812
     13819     13817     13822     13824     13820     13817     13822     13824
     13831     13829     13834     13836     13832     13829     13834     13836
     13843     13841     13846     13848     13844     13841     13846     13848
     13855     13853     13858     13860     13856     13853     13858     13860
     13867     13865     13870     13872     13868     13865     13870     13872
     13879     13877     13882     13884     13880     13877     13882     13884
     13891     13889     13894     13896     13892     13889     13894     13896
     13903     13901     13906     13908     13904     13901     13906     13908
     13915     13913     13918     13920     13916     13913     13918     13920
     13927     13925     13930     13932     13928     13925     13930     13932
     13939     13937     13942     13944     13940     13937     13942     13944
     13951     13949     13954     13956     13952     13949     13954     13956
     13963     13961     13966     13968     13964     13961     13966     13968
     13975     13973     13978     13980     13976     13973     13978     13980
     13987     13985     13990     13992     13988     13985     13990     13992
     13999     13997     14002     14004     14000     13997     14002     14004
     14011     14009     14014     14016     14012     14009     14014     14016
     14023     14021     14026     14028     14024     14021     14026     14028
     14035     14033     14038     14040     14036     14033     14038     14040
     14047     14045     14050     14052     14048     14045     14050     14052
     14059     14057     14062     14064     14060     14057     14062     14064
     14071     14069     14074     14076     14072     14069     14074     14076
     14083     14081     14086     14088     14084     14081     14086     14088
     14095     14093     14098     14100     14096     14093     14098     14100
     14107     14105     14110     14112     14108     14105     14110     14112
     14119     14117     14122     14124     14120     14117     14122     14124
     14131     14129     14134     14136     14132     14129     14134     14136
     14143     14141     14146     14148     14144     14141     14146     14148
     14155     14153     14158     14160     14156     14153     14158     14160
     14167     14165     14170     14172     14168     14165     14170     14172
     14179     14177     14182     14184     14180     14177     14182     14184
     14191     14189     14194     14196     14192     14189     14194     14196
     14203     14201     14206     14208     14204     14201     14206     14208
     14215     14213     14218     14220     14216     14213     14218     14220
     14227     14225     14230     14232     14228     14225     14230     14232
     14239     14237     14242     14244     14240     14237     14242     14244
     14251     14249     14254     14256     14252     14249     14254     14256
     14263     14261     14266     14268     14264     14261     14266     14268
     14275     14273     14278     14280     14276     14273     14278     14280
     14287     14285     14290     14292     14288     14285     14290     14292
     14299     14297     14302     14304     14300     14297     14302     14304
     14311     14309     14314     14316     14312     14309     14314     14316
     14323     14321     14326     14328     14324     14321     14326     14328
     14335     14333     14338     14340     14336     14333     14338     14340
     14347     14345     14350     14352     14348     14345     14350     14352
     14359     14357     14362     14364     14360     14357     14362     14364
     14371     14369     14374     14376     14372     14369     14374     14376
     14383     14381     14386     14388     14384     14381     14386     14388
     14395     14393     14398     14400     14396     14393     14398     14400
     14407     14405     14410     14412     14408     14405     14410     14412
     14419     14417     14422     14424     14420     14417     14422     14424
     14431     14429     14434     14436     14432     14429     14434     14436
     14443     14441     14446     14448     14444     14441     14446     14448
     14455     14453     14458     14460     14456     14453     14458     14460
     14467     14465     14470     14472     14468     14465     14470     14472
     14479     14477     14482     14484     14480     14477     14482     14484
     14491     14489     14494     14496     14492     14489     14494     14496
     14503     14501     14506     14508     14504     14501     14506     14508
     14515     14513     14518     14520     14516     14513     14518     14520
     14527     14525     14530     14532     14528     14525     14530     14532
     14539     14537     14542     14544     14540     14537     14542     14544
     14551     14549     14554     14556     14552     14549     14554     14556
     14563     14561     14566     14568     14564     14561     14566     14568
     14575     14573     14578     14580     14576     14573     14578     14580
     14587     14585     14590     14592     14588     14585     14590     14592
     14599     14597     14602     14604     14600     14597     14602     14604
     14611     14609     14614     14616     14612     14609     14614     14616
     14623     14621     14626     14628     14624     14621     14626     14628
     14635     14633     14638     14640     14636     14633     14638     14640
     14647     14645     14650     14652     14648     14645     14650     14652
     14659     14657     14662     14664     14660     14657     14662     14664
     14671     14669     14674     14676     14672     14669     14674     14676
     14683     14681     14686     14688     14684     14681     14686     14688
     14695     14693     14698     14700     14696     14693     14698     14700
     14707     14705     14710     14712     14708     14705     14710     14712
     14719     14717     14722     14724     14720     14717     14722     14724
     14731     14729     14734     14736     14732     14729     14734     14736
     14743     14741     14746     14748     14744     14741     14746     14748
     14755     14753     14758     14760     14756     14753     14758     14760
     14767     14765     14770     14772     14768     14765     14770     14772
     14779     14777     14782     14784     14780     14777     14782     14784
     14791     14789     14794     14796     14792     14789     14794     14796
     14803     14801     14806     14808     14804     14801     14806     14808
     14815     14813     14818     14820     14816     14813     14818     14820
     14827     14825     14830     14832     14828     14825     14830     14832
     14839     14837     14842     14844     14840     14837     14842     14844
     14851     14849     14854     14856     14852     14849     14854     14856
     14863     14861     14866     14868     14864     14861     14866     14868
     14875     14873     14878     14880     14876     14873     14878     14880
     14887     14885     14890     14892     14888     14885     14890     14892
     14899     14897     14902     14904     14900     14897     14902     14904
     14911     14909     14914     14916     14912     14909     14914     14916
     14923     14921     14926     14928     14924     14921     14926     14928
     14935     14933     14938     14940     14936     14933     14938     14940
     14947     14945     14950     14952     14948     14945     14950     14952
     14959     14957     14962     14964     14960     14957     14962     14964
     14971     14969     14974     14976     14972     14969     14974     14976
     14983     14981     14986     14988     14984     14981     14986     14988
     14995     14993     14998     15000     14996     14993     14998     15000
     15007     15005     15010     15012     15008     15005     15010     15012
     15019     15017     15022     15024     15020     15017     15022     15024
     15031     15029     15034     15036     15032     15029     15034     15036
     15043     15041     15046     15048     15044     15041     15046     15048
     15055     15053     15058     15060     15056     15053     15058     15060
     15067     15065     15070     15072     15068     15065     15070     15072
     15079     15077     15082     15084     15080     15077     15082     15084
     15091     15089     15094     15096     15092     15089     15094     15096
     15103     15101     15106     15108     15104     15101     15106     15108
     15115     15113     15118     15120     15116     15113     15118     15120
     15127     15125     15130     15132     15128     15125     15130     15132
     15139     15137     15142     15144     15140     15137     15142     15144
     15151     15149     15154     15156     15152     15149     15154     15156
     15163     15161     15166     15168     15164     15161     15166     15168
     15175     15173     15178     15180     15176     15173     15178     15180
     15187     15185     15190     15192     15188     15185     15190     15192
     15199     15197     15202     15204     15200     15197     15202     15204
     15211     15209     15214     15216     15212     15209     15214     15216
     15223     15221     15226     15228     15224     15221     15226     15228
     15235     15233     15238     15240     15236     15233     15238     15240
     15247     15245     15250     15252     15248     15245     15250     15252
     15259     15257     15262     15264     15260     15257     15262     15264
     15271     15269     15274     15276     15272     15269     15274     15276
     15283     15281     15286     15288     15284     15281     15286     15288
     15295     15293     15298     15300     15296     15293     15298     15300
     15307     15305     15310     15312     15308     15305     15310     15312
     15319     15317     15322     15324     15320     15317     15322     15324
     15331     15329     15334     15336     15332     15329     15334     15336
     15343     15341     15346     15348     15344     15341     15346     15348
     15355     15353     15358     15360     15356     15353     15358     15360
     15367     15365     15370     15372     15368     15365     15370     15372
     15379     15377     15382     15384     15380     15377     15382     15384
     15391     15389     15394     15396     15392     15389     15394     15396
     15403     15401     15406     15408     15404     15401     15406     15408
     15415     15413     15418     15420     15416     15413     15418     15420
     15427     15425     15430     15432     15428     15425     15430     15432
     15439     15437     15442     15444     15440     15437     15442     15444
     15451     15449     15454     15456     15452     15449     15454     15456
     15463     15461     15466     15468     15464     15461     15466     15468
     15475     15473     15478     15480     15476     15473     15478     15480
     15487     15485     15490     15492     15488     15485     15490     15492
     15499     15497     15502     15504     15500     15497     15502     15504
     15511     15509     15514     15516     15512     15509     15514     15516
     15523     15521     15526     15528     15524     15521     15526     15528
     15535     15533     15538     15540     15536     15533     15538     15540
     15547     15545     15550     15552     15548     15545     15550     15552
     15559     15557     15562     15564     15560     15557     15562     15564
     15571     15569     15574     15576     15572     15569     15574     15576
     15583     15581     15586     15588     15584     15581     15586     15588
     15595     15593     15598     15600     15596     15593     15598     15600
     15607     15605     15610     15612     15608     15605     15610     15612
     15619     15617     15622     15624     15620     15617     15622     15624
     15631     15629     15634     15636     15632     15629     15634     15636
     15643     15641     15646     15648     15644     15641     15646     15648
     15655     15653     15658     15660     15656     15653     15658     15660
     15667     15665     15670     15672     15668     15665     15670     15672
     15679     15677     15682     15684     15680     15677     15682     15684
     15691     15689     15694     15696     15692     15689     15694     15696
     15703     15701     15706     15708     15704     15701     15706     15708
     15715     15713     15718     15720     15716     15713     15718     15720
     15727     15725     15730     15732     15728     15725     15730     15732
     15739     15737     15742     15744     15740     15737     15742     15744
     15751     15749     15754     15756     15752     15749     15754     15756
     15763     15761     15766     15768     15764     15761     15766     15768
     15775     15773     15778     15780     15776     15773     15778     15780
     15787     15785     15790     15792     15788     15785     15790     15792
     15799     15797     15802     15804     15800     15797     15802     15804
     15811     15809     15814     15816     15812     15809     15814     15816
     15823     15821     15826     15828     15824     15821     15826     15828
     15835     15833     15838     15840     15836     15833     15838     15840
     15847     15845     15850     15852     15848     15845     15850     15852
     15859     15857     15862     15864     15860     15857     15862     15864
     15871     15869     15874     15876     15872     15869     15874     15876
     15883     15881     15886     15888     15884     15881     15886     15888
     15895     15893     15898     15900     15896     15893     15898     15900
     15907     15905     15910     15912     15908     15905     15910     15912
     15919     15917     15922     15924     15920     15917     15922     15924
     15931     15929     15934     15936     15932     15929     15934     15936
     15943     15941     15946     15948     15944     15941     15946     15948
     15955     15953     15958     15960     15956     15953     15958     15960
     15967     15965     15970     15972     15968     15965     15970     15972
     15979     15977     15982     15984     15980     15977     15982     15984
     15991     15989     15994     15996     15992     15989     15994     15996
     16001     16006     16008     16010     16001     16006     16008     16011
     16001     16006     16014     16016     16001     16006     16014     16017
     16003     16001     16006     16008     16003     16001     16006     16014
     16004     16001     16006     16008     16004     16001     16006     16014
     16005     16001     16006     16008     16005     16001     16006     16014
     16006     16008     16011     16013     16006     16008     16011     16017
     16006     16014     16017     16011     16006     16014     16017     16019
     16008     16006     16014     16016     16008     16006     16014     16017
     16008     16011     16017     16014     16008     16011     16017     16019
     16010     16008     16006     16014     16010     16008     16011     16013
     16010     16008     16011     16017     16011     16008     16006     16014
     16011     16017     16014     16016     16013     16011     16017     16014
     16013     16011     16017     16019     16016     16014     16017     16019
     16021     16026     16028     16030     16021     16026     16028     16031
     16021     16026     16034     16036     16021     16026     16034     16037
     16023     16021     16026     16028     16023     16021     16026     16034
     16024     16021     16026     16028     16024     16021     16026     16034
     16025     16021     16026     16028     16025     16021     16026     16034
     16026     16028     16031     16033     16026     16028     16031     16037
     16026     16034     16037     16031     16026     16034     16037     16039
     16028     16026     16034     16036     16028     16026     16034     16037
     16028     16031     16037     16034     16028     16031     16037     16039
     16030     16028     16026     16034     16030     16028     16031     16033
     16030     16028     16031     16037     16031     16028     16026     16034
     16031     16037     16034     16036     16033     16031     16037     16034
     16033     16031     16037     16039     16036     16034     16037     16039
     16041     16046     16048     16050     16041     16046     16048     16051
     16041     16046     16054     16056     16041     16046     16054     16057
     16043     16041     16046     16048     16043     16041     16046     16054
     16044     16041     16046     16048     16044     16041     16046     16054
     16045     16041     16046     16048     16045     16041     16046     16054
     16046     16048     16051     16053     16046     16048     16051     16057
     16046     16054     16057     16051     16046     16054     16057     16059
     16048     16046     16054     16056     16048     16046     16054     16057
     16048     16051     16057     16054     16048     16051     16057     16059
     16050     16048     16046     16054     16050     16048     16051     16053
     16050     16048     16051     16057     16051     16048     16046     16054
     16051     16057     16054     16056     16053     16051     16057     16054
     16053     16051     16057     16059     16056     16054     16057     16059
     16061     16066     16068     16070     16061     16066     16068     16071
     16061     16066     16074     16076     16061     16066     16074     16077
     16063     16061     16066     16068     16063     16061     16066     16074
     16064     16061     16066     16068     16064     16061     16066     16074
     16065     16061     16066     16068     16065     16061     16066     16074
     16066     16068     16071     16073     16066     16068     16071     16077
     16066     16074     16077     16071     16066     16074     16077     16079
     16068     16066     16074     16076     16068     16066     16074     16077
     16068     16071     16077     16074     16068     16071     16077     16079
     16070     16068     16066     16074     16070     16068     16071     16073
     16070     16068     16071     16077     16071     16068     16066     16074
     16071     16077     16074     16076     16073     16071     16077     16074
     16073     16071     16077     16079     16076     16074     16077     16079
     16081     16086     16088     16090     16081     16086     16088     16091
     16081     16086     16094     16096     16081     16086     16094     16097
     16083     16081     16086     16088     16083     16081     16086     16094
     16084     16081     16086     16088     16084     16081     16086     16094
     16085     16081     16086     16088     16085     16081     16086     16094
     16086     16088     16091     16093     16086     16088     16091     16097
     16086     16094     16097     16091     16086     16094     16097     16099
     16088     16086     16094     16096     16088     16086     16094     16097
     16088     16091     16097     16094     16088     16091     16097     16099
     16090     16088     16086     16094     16090     16088     16091     16093
     16090     16088     16091     16097     16091     16088     16086     16094
     16091     16097     16094     16096     16093     16091     16097     16094
     16093     16091     16097     16099     16096     16094     16097     16099
     16101     16106     16108     16110     16101     16106     16108     16111
     16101     16106     16114     16116     16101     16106     16114     16117
     16103     16101     16106     16108     16103     16101     16106     16114
     16104     16101     16106     16108     16104     16101     16106     16114
     16105     16101     16106     16108     16105     16101     16106     16114
     16106     16108     16111     16113     16106     16108     16111     16117
     16106     16114     16117     16111     16106     16114     16117     16119
     16108     16106     16114     16116     16108     16106     16114     16117
     16108     16111     16117     16114     16108     16111     16117     16119
     16110     16108     16106     16114     16110     16108     16111     16113
     16110     16108     16111     16117     16111     16108     16106     16114
     16111     16117     16114     16116     16113     16111     16117     16114
     16113     16111     16117     16119     16116     16114     16117     16119
     16121     16126     16128     16130     16121     16126     16128     16131
     16121     16126     16134     16136     16121     16126     16134     16137
     16123     16121     16126     16128     16123     16121     16126     16134
     16124     16121     16126     16128     16124     16121     16126     16134
     16125     16121     16126     16128     16125     16121     16126     16134
     16126     16128     16131     16133     16126     16128     16131     16137
     16126     16134     16137     16131     16126     16134     16137     16139
     16128     16126     16134     16136     16128     16126     16134     16137
     16128     16131     16137     16134     16128     16131     16137     16139
     16130     16128     16126     16134     16130     16128     16131     16133
     16130     16128     16131     16137     16131     16128     16126     16134
     16131     16137     16134     16136     16133     16131     16137     16134
     16133     16131     16137     16139     16136     16134     16137     16139
     16141     16146     16148     16150     16141     16146     16148     16151
     16141     16146     16154     16156     16141     16146     16154     16157
     16143     16141     16146     16148     16143     16141     16146     16154
     16144     16141     16146     16148     16144     16141     16146     16154
     16145     16141     16146     16148     16145     16141     16146     16154
     16146     16148     16151     16153     16146     16148     16151     16157
     16146     16154     16157     16151     16146     16154     16157     16159
     16148     16146     16154     16156     16148     16146     16154     16157
     16148     16151     16157     16154     16148     16151     16157     16159
     16150     16148     16146     16154     16150     16148     16151     16153
     16150     16148     16151     16157     16151     16148     16146     16154
     16151     16157     16154     16156     16153     16151     16157     16154
     16153     16151     16157     16159     16156     16154     16157     16159
     16161     16166     16168     16170     16161     16166     16168     16171
     16161     16166     16174     16176     16161     16166     16174     16177
     16163     16161     16166     16168     16163     16161     16166     16174
     16164     16161     16166     16168     16164     16161     16166     16174
     16165     16161     16166     16168     16165     16161     16166     16174
     16166     16168     16171     16173     16166     16168     16171     16177
     16166     16174     16177     16171     16166     16174     16177     16179
     16168     16166     16174     16176     16168     16166     16174     16177
     16168     16171     16177     16174     16168     16171     16177     16179
     16170     16168     16166     16174     16170     16168     16171     16173
     16170     16168     16171     16177     16171     16168     16166     16174
     16171     16177     16174     16176     16173     16171     16177     16174
     16173     16171     16177     16179     16176     16174     16177     16179
     16181     16186     16188     16190     16181     16186     16188     16191
     16181     16186     16194     16196     16181     16186     16194     16197
     16183     16181     16186     16188     16183     16181     16186     16194
     16184     16181     16186     16188     16184     16181     16186     16194
     16185     16181     16186     16188     16185     16181     16186     16194
     16186     16188     16191     16193     16186     16188     16191     16197
     16186     16194     16197     16191     16186     16194     16197     16199
     16188     16186     16194     16196     16188     16186     16194     16197
     16188     16191     16197     16194     16188     16191     16197     16199
     16190     16188     16186     16194     16190     16188     16191     16193
     16190     16188     16191     16197     16191     16188     16186     16194
     16191     16197     16194     16196     16193     16191     16197     16194
     16193     16191     16197     16199     16196     16194     16197     16199
     16201     16206     16208     16210     16201     16206     16208     16211
     16201     16206     16214     16216     16201     16206     16214     16217
     16203     16201     16206     16208     16203     16201     16206     16214
     16204     16201     16206     16208     16204     16201     16206     16214
     16205     16201     16206     16208     16205     16201     16206     16214
     16206     16208     16211     16213     16206     16208     16211     16217
     16206     16214     16217     16211     16206     16214     16217     16219
     16208     16206     16214     16216     16208     16206     16214     16217
     16208     16211     16217     16214     16208     16211     16217     16219
     16210     16208     16206     16214     16210     16208     16211     16213
     16210     16208     16211     16217     16211     16208     16206     16214
     16211     16217     16214     16216     16213     16211     16217     16214
     16213     16211     16217     16219     16216     16214     16217     16219
     16221     16226     16228     16230     16221     16226     16228     16231
     16221     16226     16234     16236     16221     16226     16234     16237
     16223     16221     16226     16228     16223     16221     16226     16234
     16224     16221     16226     16228     16224     16221     16226     16234
     16225     16221     16226     16228     16225     16221     16226     16234
     16226     16228     16231     16233     16226     16228     16231     16237
     16226     16234     16237     16231     16226     16234     16237     16239
     16228     16226     16234     16236     16228     16226     16234     16237
     16228     16231     16237     16234     16228     16231     16237     16239
     16230     16228     16226     16234     16230     16228     16231     16233
     16230     16228     16231     16237     16231     16228     16226     16234
     16231     16237     16234     16236     16233     16231     16237     16234
     16233     16231     16237     16239     16236     16234     16237     16239
     16241     16246     16248     16250     16241     16246     16248     16251
     16241     16246     16254     16256     16241     16246     16254     16257
     16243     16241     16246     16248     16243     16241     16246     16254
     16244     16241     16246     16248     16244     16241     16246     16254
     16245     16241     16246     16248     16245     16241     16246     16254
     16246     16248     16251     16253     16246     16248     16251     16257
     16246     16254     16257     16251     16246     16254     16257     16259
     16248     16246     16254     16256     16248     16246     16254     16257
     16248     16251     16257     16254     16248     16251     16257     16259
     16250     16248     16246     16254     16250     16248     16251     16253
     16250     16248     16251     16257     16251     16248     16246     16254
     16251     16257     16254     16256     16253     16251     16257     16254
     16253     16251     16257     16259     16256     16254     16257     16259
     16261     16266     16268     16270     16261     16266     16268     16271
     16261     16266     16274     16276     16261     16266     16274     16277
     16263     16261     16266     16268     16263     16261     16266     16274
     16264     16261     16266     16268     16264     16261     16266     16274
     16265     16261     16266     16268     16265     16261     16266     16274
     16266     16268     16271     16273     16266     16268     16271     16277
     16266     16274     16277     16271     16266     16274     16277     16279
     16268     16266     16274     16276     16268     16266     16274     16277
     16268     16271     16277     16274     16268     16271     16277     16279
     16270     16268     16266     16274     16270     16268     16271     16273
     16270     16268     16271     16277     16271     16268     16266     16274
     16271     16277     16274     16276     16273     16271     16277     16274
     16273     16271     16277     16279     16276     16274     16277     16279
     16281     16286     16288     16290     16281     16286     16288     16291
     16281     16286     16294     16296     16281     16286     16294     16297
     16283     16281     16286     16288     16283     16281     16286     16294
     16284     16281     16286     16288     16284     16281     16286     16294
     16285     16281     16286     16288     16285     16281     16286     16294
     16286     16288     16291     16293     16286     16288     16291     16297
     16286     16294     16297     16291     16286     16294     16297     16299
     16288     16286     16294     16296     16288     16286     16294     16297
     16288     16291     16297     16294     16288     16291     16297     16299
     16290     16288     16286     16294     16290     16288     16291     16293
     16290     16288     16291     16297     16291     16288     16286     16294
     16291     16297     16294     16296     16293     16291     16297     16294
     16293     16291     16297     16299     16296     16294     16297     16299
     16301     16306     16308     16310     16301     16306     16308     16311
     16301     16306     16314     16316     16301     16306     16314     16317
     16303     16301     16306     16308     16303     16301     16306     16314
     16304     16301     16306     16308     16304     16301     16306     16314
     16305     16301     16306     16308     16305     16301     16306     16314
     16306     16308     16311     16313     16306     16308     16311     16317
     16306     16314     16317     16311     16306     16314     16317     16319
     16308     16306     16314     16316     16308     16306     16314     16317
     16308     16311     16317     16314     16308     16311     16317     16319
     16310     16308     16306     16314     16310     16308     16311     16313
     16310     16308     16311     16317     16311     16308     16306     16314
     16311     16317     16314     16316     16313     16311     16317     16314
     16313     16311     16317     16319     16316     16314     16317     16319
     16321     16326     16328     16330     16321     16326     16328     16331
     16321     16326     16334     16336     16321     16326     16334     16337
     16323     16321     16326     16328     16323     16321     16326     16334
     16324     16321     16326     16328     16324     16321     16326     16334
     16325     16321     16326     16328     16325     16321     16326     16334
     16326     16328     16331     16333     16326     16328     16331     16337
     16326     16334     16337     16331     16326     16334     16337     16339
     16328     16326     16334     16336     16328     16326     16334     16337
     16328     16331     16337     16334     16328     16331     16337     16339
     16330     16328     16326     16334     16330     16328     16331     16333
     16330     16328     16331     16337     16331     16328     16326     16334
     16331     16337     16334     16336     16333     16331     16337     16334
     16333     16331     16337     16339     16336     16334     16337     16339
     16341     16346     16348     16350     16341     16346     16348     16351
     16341     16346     16354     16356     16341     16346     16354     16357
     16343     16341     16346     16348     16343     16341     16346     16354
     16344     16341     16346     16348     16344     16341     16346     16354
     16345     16341     16346     16348     16345     16341     16346     16354
     16346     16348     16351     16353     16346     16348     16351     16357
     16346     16354     16357     16351     16346     16354     16357     16359
     16348     16346     16354     16356     16348     16346     16354     16357
     16348     16351     16357     16354     16348     16351     16357     16359
     16350     16348     16346     16354     16350     16348     16351     16353
     16350     16348     16351     16357     16351     16348     16346     16354
     16351     16357     16354     16356     16353     16351     16357     16354
     16353     16351     16357     16359     16356     16354     16357     16359
     16361     16366     16368     16370     16361     16366     16368     16371
     16361     16366     16374     16376     16361     16366     16374     16377
     16363     16361     16366     16368     16363     16361     16366     16374
     16364     16361     16366     16368     16364     16361     16366     16374
     16365     16361     16366     16368     16365     16361     16366     16374
     16366     16368     16371     16373     16366     16368     16371     16377
     16366     16374     16377     16371     16366     16374     16377     16379
     16368     16366     16374     16376     16368     16366     16374     16377
     16368     16371     16377     16374     16368     16371     16377     16379
     16370     16368     16366     16374     16370     16368     16371     16373
     16370     16368     16371     16377     16371     16368     16366     16374
     16371     16377     16374     16376     16373     16371     16377     16374
     16373     16371     16377     16379     16376     16374     16377     16379
     16381     16386     16388     16390     16381     16386     16388     16391
     16381     16386     16394     16396     16381     16386     16394     16397
     16383     16381     16386     16388     16383     16381     16386     16394
     16384     16381     16386     16388     16384     16381     16386     16394
     16385     16381     16386     16388     16385     16381     16386     16394
     16386     16388     16391     16393     16386     16388     16391     16397
     16386     16394     16397     16391     16386     16394     16397     16399
     16388     16386     16394     16396     16388     16386     16394     16397
     16388     16391     16397     16394     16388     16391     16397     16399
     16390     16388     16386     16394     16390     16388     16391     16393
     16390     16388     16391     16397     16391     16388     16386     16394
     16391     16397     16394     16396     16393     16391     16397     16394
     16393     16391     16397     16399     16396     16394     16397     16399
     16401     16406     16408     16410     16401     16406     16408     16411
     16401     16406     16414     16416     16401     16406     16414     16417
     16403     16401     16406     16408     16403     16401     16406     16414
     16404     16401     16406     16408     16404     16401     16406     16414
     16405     16401     16406     16408     16405     16401     16406     16414
     16406     16408     16411     16413     16406     16408     16411     16417
     16406     16414     16417     16411     16406     16414     16417     16419
     16408     16406     16414     16416     16408     16406     16414     16417
     16408     16411     16417     16414     16408     16411     16417     16419
     16410     16408     16406     16414     16410     16408     16411     16413
     16410     16408     16411     16417     16411     16408     16406     16414
     16411     16417     16414     16416     16413     16411     16417     16414
     16413     16411     16417     16419     16416     16414     16417     16419
     16421     16426     16428     16430     16421     16426     16428     16431
     16421     16426     16434     16436     16421     16426     16434     16437
     16423     16421     16426     16428     16423     16421     16426     16434
     16424     16421     16426     16428     16424     16421     16426     16434
     16425     16421     16426     16428     16425     16421     16426     16434
     16426     16428     16431     16433     16426     16428     16431     16437
     16426     16434     16437     16431     16426     16434     16437     16439
     16428     16426     16434     16436     16428     16426     16434     16437
     16428     16431     16437     16434     16428     16431     16437     16439
     16430     16428     16426     16434     16430     16428     16431     16433
     16430     16428     16431     16437     16431     16428     16426     16434
     16431     16437     16434     16436     16433     16431     16437     16434
     16433     16431     16437     16439     16436     16434     16437     16439
     16441     16446     16448     16450     16441     16446     16448     16451
     16441     16446     16454     16456     16441     16446     16454     16457
     16443     16441     16446     16448     16443     16441     16446     16454
     16444     16441     16446     16448     16444     16441     16446     16454
     16445     16441     16446     16448     16445     16441     16446     16454
     16446     16448     16451     16453     16446     16448     16451     16457
     16446     16454     16457     16451     16446     16454     16457     16459
     16448     16446     16454     16456     16448     16446     16454     16457
     16448     16451     16457     16454     16448     16451     16457     16459
     16450     16448     16446     16454     16450     16448     16451     16453
     16450     16448     16451     16457     16451     16448     16446     16454
     16451     16457     16454     16456     16453     16451     16457     16454
     16453     16451     16457     16459     16456     16454     16457     16459
     16461     16466     16468     16470     16461     16466     16468     16471
     16461     16466     16474     16476     16461     16466     16474     16477
     16463     16461     16466     16468     16463     16461     16466     16474
     16464     16461     16466     16468     16464     16461     16466     16474
     16465     16461     16466     16468     16465     16461     16466     16474
     16466     16468     16471     16473     16466     16468     16471     16477
     16466     16474     16477     16471     16466     16474     16477     16479
     16468     16466     16474     16476     16468     16466     16474     16477
     16468     16471     16477     16474     16468     16471     16477     16479
     16470     16468     16466     16474     16470     16468     16471     16473
     16470     16468     16471     16477     16471     16468     16466     16474
     16471     16477     16474     16476     16473     16471     16477     16474
     16473     16471     16477     16479     16476     16474     16477     16479
     16481     16486     16488     16490     16481     16486     16488     16491
     16481     16486     16494     16496     16481     16486     16494     16497
     16483     16481     16486     16488     16483     16481     16486     16494
     16484     16481     16486     16488     16484     16481     16486     16494
     16485     16481     16486     16488     16485     16481     16486     16494
     16486     16488     16491     16493     16486     16488     16491     16497
     16486     16494     16497     16491     16486     16494     16497     16499
     16488     16486     16494     16496     16488     16486     16494     16497
     16488     16491     16497     16494     16488     16491     16497     16499
     16490     16488     16486     16494     16490     16488     16491     16493
     16490     16488     16491     16497     16491     16488     16486     16494
     16491     16497     16494     16496     16493     16491     16497     16494
     16493     16491     16497     16499     16496     16494     16497     16499
     16501     16506     16508     16510     16501     16506     16508     16511
     16501     16506     16514     16516     16501     16506     16514     16517
     16503     16501     16506     16508     16503     16501     16506     16514
     16504     16501     16506     16508     16504     16501     16506     16514
     16505     16501     16506     16508     16505     16501     16506     16514
     16506     16508     16511     16513     16506     16508     16511     16517
     16506     16514     16517     16511     16506     16514     16517     16519
     16508     16506     16514     16516     16508     16506     16514     16517
     16508     16511     16517     16514     16508     16511     16517     16519
     16510     16508     16506     16514     16510     16508     16511     16513
     16510     16508     16511     16517     16511     16508     16506     16514
     16511     16517     16514     16516     16513     16511     16517     16514
     16513     16511     16517     16519     16516     16514     16517     16519
     16521     16526     16528     16530     16521     16526     16528     16531
     16521     16526     16534     16536     16521     16526     16534     16537
     16523     16521     16526     16528     16523     16521     16526     16534
     16524     16521     16526     16528     16524     16521     16526     16534
     16525     16521     16526     16528     16525     16521     16526     16534
     16526     16528     16531     16533     16526     16528     16531     16537
     16526     16534     16537     16531     16526     16534     16537     16539
     16528     16526     16534     16536     16528     16526     16534     16537
     16528     16531     16537     16534     16528     16531     16537     16539
     16530     16528     16526     16534     16530     16528     16531     16533
     16530     16528     16531     16537     16531     16528     16526     16534
     16531     16537     16534     16536     16533     16531     16537     16534
     16533     16531     16537     16539     16536     16534     16537     16539
     16541     16546     16548     16550     16541     16546     16548     16551
     16541     16546     16554     16556     16541     16546     16554     16557
     16543     16541     16546     16548     16543     16541     16546     16554
     16544     16541     16546     16548     16544     16541     16546     16554
     16545     16541     16546     16548     16545     16541     16546     16554
     16546     16548     16551     16553     16546     16548     16551     16557
     16546     16554     16557     16551     16546     16554     16557     16559
     16548     16546     16554     16556     16548     16546     16554     16557
     16548     16551     16557     16554     16548     16551     16557     16559
     16550     16548     16546     16554     16550     16548     16551     16553
     16550     16548     16551     16557     16551     16548     16546     16554
     16551     16557     16554     16556     16553     16551     16557     16554
     16553     16551     16557     16559     16556     16554     16557     16559
     16561     16566     16568     16570     16561     16566     16568     16571
     16561     16566     16574     16576     16561     16566     16574     16577
     16563     16561     16566     16568     16563     16561     16566     16574
     16564     16561     16566     16568     16564     16561     16566     16574
     16565     16561     16566     16568     16565     16561     16566     16574
     16566     16568     16571     16573     16566     16568     16571     16577
     16566     16574     16577     16571     16566     16574     16577     16579
     16568     16566     16574     16576     16568     16566     16574     16577
     16568     16571     16577     16574     16568     16571     16577     16579
     16570     16568     16566     16574     16570     16568     16571     16573
     16570     16568     16571     16577     16571     16568     16566     16574
     16571     16577     16574     16576     16573     16571     16577     16574
     16573     16571     16577     16579     16576     16574     16577     16579
     16581     16586     16588     16590     16581     16586     16588     16591
     16581     16586     16594     16596     16581     16586     16594     16597
     16583     16581     16586     16588     16583     16581     16586     16594
     16584     16581     16586     16588     16584     16581     16586     16594
     16585     16581     16586     16588     16585     16581     16586     16594
     16586     16588     16591     16593     16586     16588     16591     16597
     16586     16594     16597     16591     16586     16594     16597     16599
     16588     16586     16594     16596     16588     16586     16594     16597
     16588     16591     16597     16594     16588     16591     16597     16599
     16590     16588     16586     16594     16590     16588     16591     16593
     16590     16588     16591     16597     16591     16588     16586     16594
     16591     16597     16594     16596     16593     16591     16597     16594
     16593     16591     16597     16599     16596     16594     16597     16599
     16601     16606     16608     16610     16601     16606     16608     16611
     16601     16606     16614     16616     16601     16606     16614     16617
     16603     16601     16606     16608     16603     16601     16606     16614
     16604     16601     16606     16608     16604     16601     16606     16614
     16605     16601     16606     16608     16605     16601     16606     16614
     16606     16608     16611     16613     16606     16608     16611     16617
     16606     16614     16617     16611     16606     16614     16617     16619
     16608     16606     16614     16616     16608     16606     16614     16617
     16608     16611     16617     16614     16608     16611     16617     16619
     16610     16608     16606     16614     16610     16608     16611     16613
     16610     16608     16611     16617     16611     16608     16606     16614
     16611     16617     16614     16616     16613     16611     16617     16614
     16613     16611     16617     16619     16616     16614     16617     16619
     16621     16626     16628     16630     16621     16626     16628     16631
     16621     16626     16634     16636     16621     16626     16634     16637
     16623     16621     16626     16628     16623     16621     16626     16634
     16624     16621     16626     16628     16624     16621     16626     16634
     16625     16621     16626     16628     16625     16621     16626     16634
     16626     16628     16631     16633     16626     16628     16631     16637
     16626     16634     16637     16631     16626     16634     16637     16639
     16628     16626     16634     16636     16628     16626     16634     16637
     16628     16631     16637     16634     16628     16631     16637     16639
     16630     16628     16626     16634     16630     16628     16631     16633
     16630     16628     16631     16637     16631     16628     16626     16634
     16631     16637     16634     16636     16633     16631     16637     16634
     16633     16631     16637     16639     16636     16634     16637     16639
     16641     16646     16648     16650     16641     16646     16648     16651
     16641     16646     16654     16656     16641     16646     16654     16657
     16643     16641     16646     16648     16643     16641     16646     16654
     16644     16641     16646     16648     16644     16641     16646     16654
     16645     16641     16646     16648     16645     16641     16646     16654
     16646     16648     16651     16653     16646     16648     16651     16657
     16646     16654     16657     16651     16646     16654     16657     16659
     16648     16646     16654     16656     16648     16646     16654     16657
     16648     16651     16657     16654     16648     16651     16657     16659
     16650     16648     16646     16654     16650     16648     16651     16653
     16650     16648     16651     16657     16651     16648     16646     16654
     16651     16657     16654     16656     16653     16651     16657     16654
     16653     16651     16657     16659     16656     16654     16657     16659
     16661     16666     16668     16670     16661     16666     16668     16671
     16661     16666     16674     16676     16661     16666     16674     16677
     16663     16661     16666     16668     16663     16661     16666     16674
     16664     16661     16666     16668     16664     16661     16666     16674
     16665     16661     16666     16668     16665     16661     16666     16674
     16666     16668     16671     16673     16666     16668     16671     16677
     16666     16674     16677     16671     16666     16674     16677     16679
     16668     16666     16674     16676     16668     16666     16674     16677
     16668     16671     16677     16674     16668     16671     16677     16679
     16670     16668     16666     16674     16670     16668     16671     16673
     16670     16668     16671     16677     16671     16668     16666     16674
     16671     16677     16674     16676     16673     16671     16677     16674
     16673     16671     16677     16679     16676     16674     16677     16679
     16681     16686     16688     16690     16681     16686     16688     16691
     16681     16686     16694     16696     16681     16686     16694     16697
     16683     16681     16686     16688     16683     16681     16686     16694
     16684     16681     16686     16688     16684     16681     16686     16694
     16685     16681     16686     16688     16685     16681     16686     16694
     16686     16688     16691     16693     16686     16688     16691     16697
     16686     16694     16697     16691     16686     16694     16697     16699
     16688     16686     16694     16696     16688     16686     16694     16697
     16688     16691     16697     16694     16688     16691     16697     16699
     16690     16688     16686     16694     16690     16688     16691     16693
     16690     16688     16691     16697     16691     16688     16686     16694
     16691     16697     16694     16696     16693     16691     16697     16694
     16693     16691     16697     16699     16696     16694     16697     16699
     16701     16706     16708     16710     16701     16706     16708     16711
     16701     16706     16714     16716     16701     16706     16714     16717
     16703     16701     16706     16708     16703     16701     16706     16714
     16704     16701     16706     16708     16704     16701     16706     16714
     16705     16701     16706     16708     16705     16701     16706     16714
     16706     16708     16711     16713     16706     16708     16711     16717
     16706     16714     16717     16711     16706     16714     16717     16719
     16708     16706     16714     16716     16708     16706     16714     16717
     16708     16711     16717     16714     16708     16711     16717     16719
     16710     16708     16706     16714     16710     16708     16711     16713
     16710     16708     16711     16717     16711     16708     16706     16714
     16711     16717     16714     16716     16713     16711     16717     16714
     16713     16711     16717     16719     16716     16714     16717     16719
     16721     16726     16728     16730     16721     16726     16728     16731
     16721     16726     16734     16736     16721     16726     16734     16737
     16723     16721     16726     16728     16723     16721     16726     16734
     16724     16721     16726     16728     16724     16721     16726     16734
     16725     16721     16726     16728     16725     16721     16726     16734
     16726     16728     16731     16733     16726     16728     16731     16737
     16726     16734     16737     16731     16726     16734     16737     16739
     16728     16726     16734     16736     16728     16726     16734     16737
     16728     16731     16737     16734     16728     16731     16737     16739
     16730     16728     16726     16734     16730     16728     16731     16733
     16730     16728     16731     16737     16731     16728     16726     16734
     16731     16737     16734     16736     16733     16731     16737     16734
     16733     16731     16737     16739     16736     16734     16737     16739
     16741     16746     16748     16750     16741     16746     16748     16751
     16741     16746     16754     16756     16741     16746     16754     16757
     16743     16741     16746     16748     16743     16741     16746     16754
     16744     16741     16746     16748     16744     16741     16746     16754
     16745     16741     16746     16748     16745     16741     16746     16754
     16746     16748     16751     16753     16746     16748     16751     16757
     16746     16754     16757     16751     16746     16754     16757     16759
     16748     16746     16754     16756     16748     16746     16754     16757
     16748     16751     16757     16754     16748     16751     16757     16759
     16750     16748     16746     16754     16750     16748     16751     16753
     16750     16748     16751     16757     16751     16748     16746     16754
     16751     16757     16754     16756     16753     16751     16757     16754
     16753     16751     16757     16759     16756     16754     16757     16759
     16761     16766     16768     16770     16761     16766     16768     16771
     16761     16766     16774     16776     16761     16766     16774     16777
     16763     16761     16766     16768     16763     16761     16766     16774
     16764     16761     16766     16768     16764     16761     16766     16774
     16765     16761     16766     16768     16765     16761     16766     16774
     16766     16768     16771     16773     16766     16768     16771     16777
     16766     16774     16777     16771     16766     16774     16777     16779
     16768     16766     16774     16776     16768     16766     16774     16777
     16768     16771     16777     16774     16768     16771     16777     16779
     16770     16768     16766     16774     16770     16768     16771     16773
     16770     16768     16771     16777     16771     16768     16766     16774
     16771     16777     16774     16776     16773     16771     16777     16774
     16773     16771     16777     16779     16776     16774     16777     16779
     16781     16786     16788     16790     16781     16786     16788     16791
     16781     16786     16794     16796     16781     16786     16794     16797
     16783     16781     16786     16788     16783     16781     16786     16794
     16784     16781     16786     16788     16784     16781     16786     16794
     16785     16781     16786     16788     16785     16781     16786     16794
     16786     16788     16791     16793     16786     16788     16791     16797
     16786     16794     16797     16791     16786     16794     16797     16799
     16788     16786     16794     16796     16788     16786     16794     16797
     16788     16791     16797     16794     16788     16791     16797     16799
     16790     16788     16786     16794     16790     16788     16791     16793
     16790     16788     16791     16797     16791     16788     16786     16794
     16791     16797     16794     16796     16793     16791     16797     16794
     16793     16791     16797     16799     16796     16794     16797     16799
     16801     16806     16808     16810     16801     16806     16808     16811
     16801     16806     16814     16816     16801     16806     16814     16817
     16803     16801     16806     16808     16803     16801     16806     16814
     16804     16801     16806     16808     16804     16801     16806     16814
     16805     16801     16806     16808     16805     16801     16806     16814
     16806     16808     16811     16813     16806     16808     16811     16817
     16806     16814     16817     16811     16806     16814     16817     16819
     16808     16806     16814     16816     16808     16806     16814     16817
     16808     16811     16817     16814     16808     16811     16817     16819
     16810     16808     16806     16814     16810     16808     16811     16813
     16810     16808     16811     16817     16811     16808     16806     16814
     16811     16817     16814     16816     16813     16811     16817     16814
     16813     16811     16817     16819     16816     16814     16817     16819
     16821     16826     16828     16830     16821     16826     16828     16831
     16821     16826     16834     16836     16821     16826     16834     16837
     16823     16821     16826     16828     16823     16821     16826     16834
     16824     16821     16826     16828     16824     16821     16826     16834
     16825     16821     16826     16828     16825     16821     16826     16834
     16826     16828     16831     16833     16826     16828     16831     16837
     16826     16834     16837     16831     16826     16834     16837     16839
     16828     16826     16834     16836     16828     16826     16834     16837
     16828     16831     16837     16834     16828     16831     16837     16839
     16830     16828     16826     16834     16830     16828     16831     16833
     16830     16828     16831     16837     16831     16828     16826     16834
     16831     16837     16834     16836     16833     16831     16837     16834
     16833     16831     16837     16839     16836     16834     16837     16839
     16841     16846     16848     16850     16841     16846     16848     16851
     16841     16846     16854     16856     16841     16846     16854     16857
     16843     16841     16846     16848     16843     16841     16846     16854
     16844     16841     16846     16848     16844     16841     16846     16854
     16845     16841     16846     16848     16845     16841     16846     16854
     16846     16848     16851     16853     16846     16848     16851     16857
     16846     16854     16857     16851     16846     16854     16857     16859
     16848     16846     16854     16856     16848     16846     16854     16857
     16848     16851     16857     16854     16848     16851     16857     16859
     16850     16848     16846     16854     16850     16848     16851     16853
     16850     16848     16851     16857     16851     16848     16846     16854
     16851     16857     16854     16856     16853     16851     16857     16854
     16853     16851     16857     16859     16856     16854     16857     16859
     16861     16866     16868     16870     16861     16866     16868     16871
     16861     16866     16874     16876     16861     16866     16874     16877
     16863     16861     16866     16868     16863     16861     16866     16874
     16864     16861     16866     16868     16864     16861     16866     16874
     16865     16861     16866     16868     16865     16861     16866     16874
     16866     16868     16871     16873     16866     16868     16871     16877
     16866     16874     16877     16871     16866     16874     16877     16879
     16868     16866     16874     16876     16868     16866     16874     16877
     16868     16871     16877     16874     16868     16871     16877     16879
     16870     16868     16866     16874     16870     16868     16871     16873
     16870     16868     16871     16877     16871     16868     16866     16874
     16871     16877     16874     16876     16873     16871     16877     16874
     16873     16871     16877     16879     16876     16874     16877     16879
     16881     16886     16888     16890     16881     16886     16888     16891
     16881     16886     16894     16896     16881     16886     16894     16897
     16883     16881     16886     16888     16883     16881     16886     16894
     16884     16881     16886     16888     16884     16881     16886     16894
     16885     16881     16886     16888     16885     16881     16886     16894
     16886     16888     16891     16893     16886     16888     16891     16897
     16886     16894     16897     16891     16886     16894     16897     16899
     16888     16886     16894     16896     16888     16886     16894     16897
     16888     16891     16897     16894     16888     16891     16897     16899
     16890     16888     16886     16894     16890     16888     16891     16893
     16890     16888     16891     16897     16891     16888     16886     16894
     16891     16897     16894     16896     16893     16891     16897     16894
     16893     16891     16897     16899     16896     16894     16897     16899
     16901     16906     16908     16910     16901     16906     16908     16911
     16901     16906     16914     16916     16901     16906     16914     16917
     16903     16901     16906     16908     16903     16901     16906     16914
     16904     16901     16906     16908     16904     16901     16906     16914
     16905     16901     16906     16908     16905     16901     16906     16914
     16906     16908     16911     16913     16906     16908     16911     16917
     16906     16914     16917     16911     16906     16914     16917     16919
     16908     16906     16914     16916     16908     16906     16914     16917
     16908     16911     16917     16914     16908     16911     16917     16919
     16910     16908     16906     16914     16910     16908     16911     16913
     16910     16908     16911     16917     16911     16908     16906     16914
     16911     16917     16914     16916     16913     16911     16917     16914
     16913     16911     16917     16919     16916     16914     16917     16919
     16921     16926     16928     16930     16921     16926     16928     16931
     16921     16926     16934     16936     16921     16926     16934     16937
     16923     16921     16926     16928     16923     16921     16926     16934
     16924     16921     16926     16928     16924     16921     16926     16934
     16925     16921     16926     16928     16925     16921     16926     16934
     16926     16928     16931     16933     16926     16928     16931     16937
     16926     16934     16937     16931     16926     16934     16937     16939
     16928     16926     16934     16936     16928     16926     16934     16937
     16928     16931     16937     16934     16928     16931     16937     16939
     16930     16928     16926     16934     16930     16928     16931     16933
     16930     16928     16931     16937     16931     16928     16926     16934
     16931     16937     16934     16936     16933     16931     16937     16934
     16933     16931     16937     16939     16936     16934     16937     16939
     16941     16946     16948     16950     16941     16946     16948     16951
     16941     16946     16954     16956     16941     16946     16954     16957
     16943     16941     16946     16948     16943     16941     16946     16954
     16944     16941     16946     16948     16944     16941     16946     16954
     16945     16941     16946     16948     16945     16941     16946     16954
     16946     16948     16951     16953     16946     16948     16951     16957
     16946     16954     16957     16951     16946     16954     16957     16959
     16948     16946     16954     16956     16948     16946     16954     16957
     16948     16951     16957     16954     16948     16951     16957     16959
     16950     16948     16946     16954     16950     16948     16951     16953
     16950     16948     16951     16957     16951     16948     16946     16954
     16951     16957     16954     16956     16953     16951     16957     16954
     16953     16951     16957     16959     16956     16954     16957     16959
     16961     16966     16968     16970     16961     16966     16968     16971
     16961     16966     16974     16976     16961     16966     16974     16977
     16963     16961     16966     16968     16963     16961     16966     16974
     16964     16961     16966     16968     16964     16961     16966     16974
     16965     16961     16966     16968     16965     16961     16966     16974
     16966     16968     16971     16973     16966     16968     16971     16977
     16966     16974     16977     16971     16966     16974     16977     16979
     16968     16966     16974     16976     16968     16966     16974     16977
     16968     16971     16977     16974     16968     16971     16977     16979
     16970     16968     16966     16974     16970     16968     16971     16973
     16970     16968     16971     16977     16971     16968     16966     16974
     16971     16977     16974     16976     16973     16971     16977     16974
     16973     16971     16977     16979     16976     16974     16977     16979
     16981     16986     16988     16990     16981     16986     16988     16991
     16981     16986     16994     16996     16981     16986     16994     16997
     16983     16981     16986     16988     16983     16981     16986     16994
     16984     16981     16986     16988     16984     16981     16986     16994
     16985     16981     16986     16988     16985     16981     16986     16994
     16986     16988     16991     16993     16986     16988     16991     16997
     16986     16994     16997     16991     16986     16994     16997     16999
     16988     16986     16994     16996     16988     16986     16994     16997
     16988     16991     16997     16994     16988     16991     16997     16999
     16990     16988     16986     16994     16990     16988     16991     16993
     16990     16988     16991     16997     16991     16988     16986     16994
     16991     16997     16994     16996     16993     16991     16997     16994
     16993     16991     16997     16999     16996     16994     16997     16999
     17003     17001     17006     17008     17004     17001     17006     17008
     17015     17013     17018     17020     17016     17013     17018     17020
     17027     17025     17030     17032     17028     17025     17030     17032
     17039     17037     17042     17044     17040     17037     17042     17044
     17051     17049     17054     17056     17052     17049     17054     17056
     17063     17061     17066     17068     17064     17061     17066     17068
     17075     17073     17078     17080     17076     17073     17078     17080
     17087     17085     17090     17092     17088     17085     17090     17092
     17099     17097     17102     17104     17100     17097     17102     17104
     17111     17109     17114     17116     17112     17109     17114     17116
     17123     17121     17126     17128     17124     17121     17126     17128
     17135     17133     17138     17140     17136     17133     17138     17140
     17147     17145     17150     17152     17148     17145     17150     17152
     17159     17157     17162     17164     17160     17157     17162     17164
     17171     17169     17174     17176     17172     17169     17174     17176
     17183     17181     17186     17188     17184     17181     17186     17188
     17195     17193     17198     17200     17196     17193     17198     17200
     17207     17205     17210     17212     17208     17205     17210     17212
     17219     17217     17222     17224     17220     17217     17222     17224
     17231     17229     17234     17236     17232     17229     17234     17236
     17243     17241     17246     17248     17244     17241     17246     17248
     17255     17253     17258     17260     17256     17253     17258     17260
     17267     17265     17270     17272     17268     17265     17270     17272
     17279     17277     17282     17284     17280     17277     17282     17284
     17291     17289     17294     17296     17292     17289     17294     17296
     17303     17301     17306     17308     17304     17301     17306     17308
     17315     17313     17318     17320     17316     17313     17318     17320
     17327     17325     17330     17332     17328     17325     17330     17332
     17339     17337     17342     17344     17340     17337     17342     17344
     17351     17349     17354     17356     17352     17349     17354     17356
     17363     17361     17366     17368     17364     17361     17366     17368
     17375     17373     17378     17380     17376     17373     17378     17380
     17387     17385     17390     17392     17388     17385     17390     17392
     17399     17397     17402     17404     17400     17397     17402     17404
     17411     17409     17414     17416     17412     17409     17414     17416
     17423     17421     17426     17428     17424     17421     17426     17428
     17435     17433     17438     17440     17436     17433     17438     17440
     17447     17445     17450     17452     17448     17445     17450     17452
     17459     17457     17462     17464     17460     17457     17462     17464
     17471     17469     17474     17476     17472     17469     17474     17476
     17483     17481     17486     17488     17484     17481     17486     17488
     17495     17493     17498     17500     17496     17493     17498     17500
     17507     17505     17510     17512     17508     17505     17510     17512
     17519     17517     17522     17524     17520     17517     17522     17524
     17531     17529     17534     17536     17532     17529     17534     17536
     17543     17541     17546     17548     17544     17541     17546     17548
     17555     17553     17558     17560     17556     17553     17558     17560
     17567     17565     17570     17572     17568     17565     17570     17572
     17579     17577     17582     17584     17580     17577     17582     17584
     17591     17589     17594     17596     17592     17589     17594     17596

      2750 !NIMPHI: impropers
         8        11         6        10        11         8        17        13
        14         6        17        16        17        14        11        19
         6        14         8         1        28        31        26        30
        31        28        37        33        34        26        37        36
        37        34        31        39        26        34        28        21
        48        51        46        50        51        48        57        53
        54        46        57        56        57        54        51        59
        46        54        48        41        68        71        66        70
        71        68        77        73        74        66        77        76
        77        74        71        79        66        74        68        61
        88        91        86        90        91        88        97        93
        94        86        97        96        97        94        91        99
        86        94        88        81       108       111       106       110
       111       108       117       113       114       106       117       116
       117       114       111       119       106       114       108       101
       128       131       126       130       131       128       137       133
       134       126       137       136       137       134       131       139
       126       134       128       121       148       151       146       150
       151       148       157       153       154       146       157       156
       157       154       151       159       146       154       148       141
       168       171       166       170       171       168       177       173
       174       166       177       176       177       174       171       179
       166       174       168       161       188       191       186       190
       191       188       197       193       194       186       197       196
       197       194       191       199       186       194       188       181
       208       211       206       210       211       208       217       213
       214       206       217       216       217       214       211       219
       206       214       208       201       228       231       226       230
       231       228       237       233       234       226       237       236
       237       234       231       239       226       234       228       221
       248       251       246       250       251       248       257       253
       254       246       257       256       257       254       251       259
       246       254       248       241       268       271       266       270
       271       268       277       273       274       266       277       276
       277       274       271       279       266       274       268       261
       288       291       286       290       291       288       297       293
       294       286       297       296       297       294       291       299
       286       294       288       281       308       311       306       310
       311       308       317       313       314       306       317       316
       317       314       311       319       306       314       308       301
       328       331       326       330       331       328       337       333
       334       326       337       336       337       334       331       339
       326       334       328       321       348       351       346       350
       351       348       357       353       354       346       357       356
       357       354       351       359       346       354       348       341
       368       371       366       370       371       368       377       373
       374       366       377       376       377       374       371       379
       366       374       368       361       388       391       386       390
       391       388       397       393       394       386       397       396
       397       394       391       399       386       394       388       381
       408       411       406       410       411       408       417       413
       414       406       417       416       417       414       411       419
       406       414       408       401       428       431       426       430
       431       428       437       433       434       426       437       436
       437       434       431       439       426       434       428       421
       448       451       446       450       451       448       457       453
       454       446       457       456       457       454       451       459
       446       454       448       441       468       471       466       470
       471       468       477       473       474       466       477       476
       477       474       471       479       466       474       468       461
       488       491       486       490       491       488       497       493
       494       486       497       496       497       494       491       499
       486       494       488       481       508       511       506       510
       511       508       517       513       514       506       517       516
       517       514       511       519       506       514       508       501
       528       531       526       530       531       528       537       533
       534       526       537       536       537       534       531       539
       526       534       528       521       548       551       546       550
       551       548       557       553       554       546       557       556
       557       554       551       559       546       554       548       541
       568       571       566       570       571       568       577       573
       574       566       577       576       577       574       571       579
       566       574       568       561       588       591       586       590
       591       588       597       593       594       586       597       596
       597       594       591       599       586       594       588       581
       608       611       606       610       611       608       617       613
       614       606       617       616       617       614       611       619
       606       614       608       601       628       631       626       630
       631       628       637       633       634       626       637       636
       637       634       631       639       626       634       628       621
       648       651       646       650       651       648       657       653
       654       646       657       656       657       654       651       659
       646       654       648       641       668       671       666       670
       671       668       677       673       674       666       677       676
       677       674       671       679       666       674       668       661
       688       691       686       690       691       688       697       693
       694       686       697       696       697       694       691       699
       686       694       688       681       708       711       706       710
       711       708       717       713       714       706       717       716
       717       714       711       719       706       714       708       701
       728       731       726       730       731       728       737       733
       734       726       737       736       737       734       731       739
       726       734       728       721       748       751       746       750
       751       748       757       753       754       746       757       756
       757       754       751       759       746       754       748       741
       768       771       766       770       771       768       777       773
       774       766       777       776       777       774       771       779
       766       774       768       761       788       791       786       790
       791       788       797       793       794       786       797       796
       797       794       791       799       786       794       788       781
       808       811       806       810       811       808       817       813
       814       806       817       816       817       814       811       819
       806       814       808       801       828       831       826       830
       831       828       837       833       834       826       837       836
       837       834       831       839       826       834       828       821
       848       851       846       850       851       848       857       853
       854       846       857       856       857       854       851       859
       846       854       848       841       868       871       866       870
       871       868       877       873       874       866       877       876
       877       874       871       879       866       874       868       861
       888       891       886       890       891       888       897       893
       894       886       897       896       897       894       891       899
       886       894       888       881       908       911       906       910
       911       908       917       913       914       906       917       916
       917       914       911       919       906       914       908       901
       928       931       926       930       931       928       937       933
       934       926       937       936       937       934       931       939
       926       934       928       921       948       951       946       950
       951       948       957       953       954       946       957       956
       957       954       951       959       946       954       948       941
       968       971       966       970       971       968       977       973
       974       966       977       976       977       974       971       979
       966       974       968       961       988       991       986       990
       991       988       997       993       994       986       997       996
       997       994       991       999       986       994       988       981
      1008      1011      1006      1010      1011      1008      1017      1013
      1014      1006      1017      1016      1017      1014      1011      1019
      1006      1014      1008      1001      1028      1031      1026      1030
      1031      1028      1037      1033      1034      1026      1037      1036
      1037      1034      1031      1039      1026      1034      1028      1021
      1048      1051      1046      1050      1051      1048      1057      1053
      1054      1046      1057      1056      1057      1054      1051      1059
      1046      1054      1048      1041      1068      1071      1066      1070
      1071      1068      1077      1073      1074      1066      1077      1076
      1077      1074      1071      1079      1066      1074      1068      1061
      1088      1091      1086      1090      1091      1088      1097      1093
      1094      1086      1097      1096      1097      1094      1091      1099
      1086      1094      1088      1081      1108      1111      1106      1110
      1111      1108      1117      1113      1114      1106      1117      1116
      1117      1114      1111      1119      1106      1114      1108      1101
      1128      1131      1126      1130      1131      1128      1137      1133
      1134      1126      1137      1136      1137      1134      1131      1139
      1126      1134      1128      1121      1148      1151      1146      1150
      1151      1148      1157      1153      1154      1146      1157      1156
      1157      1154      1151      1159      1146      1154      1148      1141
      1168      1171      1166      1170      1171      1168      1177      1173
      1174      1166      1177      1176      1177      1174      1171      1179
      1166      1174      1168      1161      1188      1191      1186      1190
      1191      1188      1197      1193      1194      1186      1197      1196
      1197      1194      1191      1199      1186      1194      1188      1181
      1208      1211      1206      1210      1211      1208      1217      1213
      1214      1206      1217      1216      1217      1214      1211      1219
      1206      1214      1208      1201      1228      1231      1226      1230
      1231      1228      1237      1233      1234      1226      1237      1236
      1237      1234      1231      1239      1226      1234      1228      1221
      1248      1251      1246      1250      1251      1248      1257      1253
      1254      1246      1257      1256      1257      1254      1251      1259
      1246      1254      1248      1241      1268      1271      1266      1270
      1271      1268      1277      1273      1274      1266      1277      1276
      1277      1274      1271      1279      1266      1274      1268      1261
      1288      1291      1286      1290      1291      1288      1297      1293
      1294      1286      1297      1296      1297      1294      1291      1299
      1286      1294      1288      1281      1308      1311      1306      1310
      1311      1308      1317      1313      1314      1306      1317      1316
      1317      1314      1311      1319      1306      1314      1308      1301
      1328      1331      1326      1330      1331      1328      1337      1333
      1334      1326      1337      1336      1337      1334      1331      1339
      1326      1334      1328      1321      1348      1351      1346      1350
      1351      1348      1357      1353      1354      1346      1357      1356
      1357      1354      1351      1359      1346      1354      1348      1341
      1368      1371      1366      1370      1371      1368      1377      1373
      1374      1366      1377      1376      1377      1374      1371      1379
      1366      1374      1368      1361      1388      1391      1386      1390
      1391      1388      1397      1393      1394      1386      1397      1396
      1397      1394      1391      1399      1386      1394      1388      1381
      1408      1411      1406      1410      1411      1408      1417      1413
      1414      1406      1417      1416      1417      1414      1411      1419
      1406      1414      1408      1401      1428      1431      1426      1430
      1431      1428      1437      1433      1434      1426      1437      1436
      1437      1434      1431      1439      1426      1434      1428      1421
      1448      1451      1446      1450      1451      1448      1457      1453
      1454      1446      1457      1456      1457      1454      1451      1459
      1446      1454      1448      1441      1468      1471      1466      1470
      1471      1468      1477      1473      1474      1466      1477      1476
      1477      1474      1471      1479      1466      1474      1468      1461
      1488      1491      1486      1490      1491      1488      1497      1493
      1494      1486      1497      1496      1497      1494      1491      1499
      1486      1494      1488      1481      1508      1511      1506      1510
      1511      1508      1517      1513      1514      1506      1517      1516
      1517      1514      1511      1519      1506      1514      1508      1501
      1528      1531      1526      1530      1531      1528      1537      1533
      1534      1526      1537      1536      1537      1534      1531      1539
      1526      1534      1528      1521      1548      1551      1546      1550
      1551      1548      1557      1553      1554      1546      1557      1556
      1557      1554      1551      1559      1546      1554      1548      1541
      1568      1571      1566      1570      1571      1568      1577      1573
      1574      1566      1577      1576      1577      1574      1571      1579
      1566      1574      1568      1561      1588      1591      1586      1590
      1591      1588      1597      1593      1594      1586      1597      1596
      1597      1594      1591      1599      1586      1594      1588      1581
      1608      1611      1606      1610      1611      1608      1617      1613
      1614      1606      1617      1616      1617      1614      1611      1619
      1606      1614      1608      1601      1628      1631      1626      1630
      1631      1628      1637      1633      1634      1626      1637      1636
      1637      1634      1631      1639      1626      1634      1628      1621
      1648      1651      1646      1650      1651      1648      1657      1653
      1654      1646      1657      1656      1657      1654      1651      1659
      1646      1654      1648      1641      1668      1671      1666      1670
      1671      1668      1677      1673      1674      1666      1677      1676
      1677      1674      1671      1679      1666      1674      1668      1661
      1688      1691      1686      1690      1691      1688      1697      1693
      1694      1686      1697      1696      1697      1694      1691      1699
      1686      1694      1688      1681      1708      1711      1706      1710
      1711      1708      1717      1713      1714      1706      1717      1716
      1717      1714      1711      1719      1706      1714      1708      1701
      1728      1731      1726      1730      1731      1728      1737      1733
      1734      1726      1737      1736      1737      1734      1731      1739
      1726      1734      1728      1721      1748      1751      1746      1750
      1751      1748      1757      1753      1754      1746      1757      1756
      1757      1754      1751      1759      1746      1754      1748      1741
      1768      1771      1766      1770      1771      1768      1777      1773
      1774      1766      1777      1776      1777      1774      1771      1779
      1766      1774      1768      1761      1788      1791      1786      1790
      1791      1788      1797      1793      1794      1786      1797      1796
      1797      1794      1791      1799      1786      1794      1788      1781
      1808      1811      1806      1810      1811      1808      1817      1813
      1814      1806      1817      1816      1817      1814      1811      1819
      1806      1814      1808      1801      1828      1831      1826      1830
      1831      1828      1837      1833      1834      1826      1837      1836
      1837      1834      1831      1839      1826      1834      1828      1821
      1848      1851      1846      1850      1851      1848      1857      1853
      1854      1846      1857      1856      1857      1854      1851      1859
      1846      1854      1848      1841      1868      1871      1866      1870
      1871      1868      1877      1873      1874      1866      1877      1876
      1877      1874      1871      1879      1866      1874      1868      1861
      1888      1891      1886      1890      1891      1888      1897      1893
      1894      1886      1897      1896      1897      1894      1891      1899
      1886      1894      1888      1881      1908      1911      1906      1910
      1911      1908      1917      1913      1914      1906      1917      1916
      1917      1914      1911      1919      1906      1914      1908      1901
      1928      1931      1926      1930      1931      1928      1937      1933
      1934      1926      1937      1936      1937      1934      1931      1939
      1926      1934      1928      1921      1948      1951      1946      1950
      1951      1948      1957      1953      1954      1946      1957      1956
      1957      1954      1951      1959      1946      1954      1948      1941
      1968      1971      1966      1970      1971      1968      1977      1973
      1974      1966      1977      1976      1977      1974      1971      1979
      1966      1974      1968      1961      1988      1991      1986      1990
      1991      1988      1997      1993      1994      1986      1997      1996
      1997      1994      1991      1999      1986      1994      1988      1981
      2008      2011      2006      2010      2011      2008      2017      2013
      2014      2006      2017      2016      2017      2014      2011      2019
      2006      2014      2008      2001      2028      2031      2026      2030
      2031      2028      2037      2033      2034      2026      2037      2036
      2037      2034      2031      2039      2026      2034      2028      2021
      2048      2051      2046      2050      2051      2048      2057      2053
      2054      2046      2057      2056      2057      2054      2051      2059
      2046      2054      2048      2041      2068      2071      2066      2070
      2071      2068      2077      2073      2074      2066      2077      2076
      2077      2074      2071      2079      2066      2074      2068      2061
      2088      2091      2086      2090      2091      2088      2097      2093
      2094      2086      2097      2096      2097      2094      2091      2099
      2086      2094      2088      2081      2108      2111      2106      2110
      2111      2108      2117      2113      2114      2106      2117      2116
      2117      2114      2111      2119      2106      2114      2108      2101
      2128      2131      2126      2130      2131      2128      2137      2133
      2134      2126      2137      2136      2137      2134      2131      2139
      2126      2134      2128      2121      2148      2151      2146      2150
      2151      2148      2157      2153      2154      2146      2157      2156
      2157      2154      2151      2159      2146      2154      2148      2141
      2168      2171      2166      2170      2171      2168      2177      2173
      2174      2166      2177      2176      2177      2174      2171      2179
      2166      2174      2168      2161      2188      2191      2186      2190
      2191      2188      2197      2193      2194      2186      2197      2196
      2197      2194      2191      2199      2186      2194      2188      2181
      2208      2211      2206      2210      2211      2208      2217      2213
      2214      2206      2217      2216      2217      2214      2211      2219
      2206      2214      2208      2201      2228      2231      2226      2230
      2231      2228      2237      2233      2234      2226      2237      2236
      2237      2234      2231      2239      2226      2234      2228      2221
      2248      2251      2246      2250      2251      2248      2257      2253
      2254      2246      2257      2256      2257      2254      2251      2259
      2246      2254      2248      2241      2268      2271      2266      2270
      2271      2268      2277      2273      2274      2266      2277      2276
      2277      2274      2271      2279      2266      2274      2268      2261
      2288      2291      2286      2290      2291      2288      2297      2293
      2294      2286      2297      2296      2297      2294      2291      2299
      2286      2294      2288      2281      2308      2311      2306      2310
      2311      2308      2317      2313      2314      2306      2317      2316
      2317      2314      2311      2319      2306      2314      2308      2301
      2328      2331      2326      2330      2331      2328      2337      2333
      2334      2326      2337      2336      2337      2334      2331      2339
      2326      2334      2328      2321      2348      2351      2346      2350
      2351      2348      2357      2353      2354      2346      2357      2356
      2357      2354      2351      2359      2346      2354      2348      2341
      2368      2371      2366      2370      2371      2368      2377      2373
      2374      2366      2377      2376      2377      2374      2371      2379
      2366      2374      2368      2361      2388      2391      2386      2390
      2391      2388      2397      2393      2394      2386      2397      2396
      2397      2394      2391      2399      2386      2394      2388      2381
      2408      2411      2406      2410      2411      2408      2417      2413
      2414      2406      2417      2416      2417      2414      2411      2419
      2406      2414      2408      2401      2428      2431      2426      2430
      2431      2428      2437      2433      2434      2426      2437      2436
      2437      2434      2431      2439      2426      2434      2428      2421
      2448      2451      2446      2450      2451      2448      2457      2453
      2454      2446      2457      2456      2457      2454      2451      2459
      2446      2454      2448      2441      2468      2471      2466      2470
      2471      2468      2477      2473      2474      2466      2477      2476
      2477      2474      2471      2479      2466      2474      2468      2461
      2488      2491      2486      2490      2491      2488      2497      2493
      2494      2486      2497      2496      2497      2494      2491      2499
      2486      2494      2488      2481      2508      2511      2506      2510
      2511      2508      2517      2513      2514      2506      2517      2516
      2517      2514      2511      2519      2506      2514      2508      2501
      2528      2531      2526      2530      2531      2528      2537      2533
      2534      2526      2537      2536      2537      2534      2531      2539
      2526      2534      2528      2521      2548      2551      2546      2550
      2551      2548      2557      2553      2554      2546      2557      2556
      2557      2554      2551      2559      2546      2554      2548      2541
      2568      2571      2566      2570      2571      2568      2577      2573
      2574      2566      2577      2576      2577      2574      2571      2579
      2566      2574      2568      2561      2588      2591      2586      2590
      2591      2588      2597      2593      2594      2586      2597      2596
      2597      2594      2591      2599      2586      2594      2588      2581
      2608      2611      2606      2610      2611      2608      2617      2613
      2614      2606      2617      2616      2617      2614      2611      2619
      2606      2614      2608      2601      2628      2631      2626      2630
      2631      2628      2637      2633      2634      2626      2637      2636
      2637      2634      2631      2639      2626      2634      2628      2621
      2648      2651      2646      2650      2651      2648      2657      2653
      2654      2646      2657      2656      2657      2654      2651      2659
      2646      2654      2648      2641      2668      2671      2666      2670
      2671      2668      2677      2673      2674      2666      2677      2676
      2677      2674      2671      2679      2666      2674      2668      2661
      2688      2691      2686      2690      2691      2688      2697      2693
      2694      2686      2697      2696      2697      2694      2691      2699
      2686      2694      2688      2681      2708      2711      2706      2710
      2711      2708      2717      2713      2714      2706      2717      2716
      2717      2714      2711      2719      2706      2714      2708      2701
      2728      2731      2726      2730      2731      2728      2737      2733
      2734      2726      2737      2736      2737      2734      2731      2739
      2726      2734      2728      2721      2748      2751      2746      2750
      2751      2748      2757      2753      2754      2746      2757      2756
      2757      2754      2751      2759      2746      2754      2748      2741
      2768      2771      2766      2770      2771      2768      2777      2773
      2774      2766      2777      2776      2777      2774      2771      2779
      2766      2774      2768      2761      2788      2791      2786      2790
      2791      2788      2797      2793      2794      2786      2797      2796
      2797      2794      2791      2799      2786      2794      2788      2781
      2808      2811      2806      2810      2811      2808      2817      2813
      2814      2806      2817      2816      2817      2814      2811      2819
      2806      2814      2808      2801      2828      2831      2826      2830
      2831      2828      2837      2833      2834      2826      2837      2836
      2837      2834      2831      2839      2826      2834      2828      2821
      2848      2851      2846      2850      2851      2848      2857      2853
      2854      2846      2857      2856      2857      2854      2851      2859
      2846      2854      2848      2841      2868      2871      2866      2870
      2871      2868      2877      2873      2874      2866      2877      2876
      2877      2874      2871      2879      2866      2874      2868      2861
      2888      2891      2886      2890      2891      2888      2897      2893
      2894      2886      2897      2896      2897      2894      2891      2899
      2886      2894      2888      2881      2908      2911      2906      2910
      2911      2908      2917      2913      2914      2906      2917      2916
      2917      2914      2911      2919      2906      2914      2908      2901
      2928      2931      2926      2930      2931      2928      2937      2933
      2934      2926      2937      2936      2937      2934      2931      2939
      2926      2934      2928      2921      2948      2951      2946      2950
      2951      2948      2957      2953      2954      2946      2957      2956
      2957      2954      2951      2959      2946      2954      2948      2941
      2968      2971      2966      2970      2971      2968      2977      2973
      2974      2966      2977      2976      2977      2974      2971      2979
      2966      2974      2968      2961      2988      2991      2986      2990
      2991      2988      2997      2993      2994      2986      2997      2996
      2997      2994      2991      2999      2986      2994      2988      2981
      3008      3011      3006      3010      3011      3008      3017      3013
      3014      3006      3017      3016      3017      3014      3011      3019
      3006      3014      3008      3001      3028      3031      3026      3030
      3031      3028      3037      3033      3034      3026      3037      3036
      3037      3034      3031      3039      3026      3034      3028      3021
      3048      3051      3046      3050      3051      3048      3057      3053
      3054      3046      3057      3056      3057      3054      3051      3059
      3046      3054      3048      3041      3068      3071      3066      3070
      3071      3068      3077      3073      3074      3066      3077      3076
      3077      3074      3071      3079      3066      3074      3068      3061
      3088      3091      3086      3090      3091      3088      3097      3093
      3094      3086      3097      3096      3097      3094      3091      3099
      3086      3094      3088      3081      3108      3111      3106      3110
      3111      3108      3117      3113      3114      3106      3117      3116
      3117      3114      3111      3119      3106      3114      3108      3101
      3128      3131      3126      3130      3131      3128      3137      3133
      3134      3126      3137      3136      3137      3134      3131      3139
      3126      3134      3128      3121      3148      3151      3146      3150
      3151      3148      3157      3153      3154      3146      3157      3156
      3157      3154      3151      3159      3146      3154      3148      3141
      3168      3171      3166      3170      3171      3168      3177      3173
      3174      3166      3177      3176      3177      3174      3171      3179
      3166      3174      3168      3161      3188      3191      3186      3190
      3191      3188      3197      3193      3194      3186      3197      3196
      3197      3194      3191      3199      3186      3194      3188      3181
      3208      3211      3206      3210      3211      3208      3217      3213
      3214      3206      3217      3216      3217      3214      3211      3219
      3206      3214      3208      3201      3228      3231      3226      3230
      3231      3228      3237      3233      3234      3226      3237      3236
      3237      3234      3231      3239      3226      3234      3228      3221
      3248      3251      3246      3250      3251      3248      3257      3253
      3254      3246      3257      3256      3257      3254      3251      3259
      3246      3254      3248      3241      3268      3271      3266      3270
      3271      3268      3277      3273      3274      3266      3277      3276
      3277      3274      3271      3279      3266      3274      3268      3261
      3288      3291      3286      3290      3291      3288      3297      3293
      3294      3286      3297      3296      3297      3294      3291      3299
      3286      3294      3288      3281      3308      3311      3306      3310
      3311      3308      3317      3313      3314      3306      3317      3316
      3317      3314      3311      3319      3306      3314      3308      3301
      3328      3331      3326      3330      3331      3328      3337      3333
      3334      3326      3337      3336      3337      3334      3331      3339
      3326      3334      3328      3321      3348      3351      3346      3350
      3351      3348      3357      3353      3354      3346      3357      3356
      3357      3354      3351      3359      3346      3354      3348      3341
      3368      3371      3366      3370      3371      3368      3377      3373
      3374      3366      3377      3376      3377      3374      3371      3379
      3366      3374      3368      3361      3388      3391      3386      3390
      3391      3388      3397      3393      3394      3386      3397      3396
      3397      3394      3391      3399      3386      3394      3388      3381
      3408      3411      3406      3410      3411      3408      3417      3413
      3414      3406      3417      3416      3417      3414      3411      3419
      3406      3414      3408      3401      3428      3431      3426      3430
      3431      3428      3437      3433      3434      3426      3437      3436
      3437      3434      3431      3439      3426      3434      3428      3421
      3448      3451      3446      3450      3451      3448      3457      3453
      3454      3446      3457      3456      3457      3454      3451      3459
      3446      3454      3448      3441      3468      3471      3466      3470
      3471      3468      3477      3473      3474      3466      3477      3476
      3477      3474      3471      3479      3466      3474      3468      3461
      3488      3491      3486      3490      3491      3488      3497      3493
      3494      3486      3497      3496      3497      3494      3491      3499
      3486      3494      3488      3481      3508      3511      3506      3510
      3511      3508      3517      3513      3514      3506      3517      3516
      3517      3514      3511      3519      3506      3514      3508      3501
      3528      3531      3526      3530      3531      3528      3537      3533
      3534      3526      3537      3536      3537      3534      3531      3539
      3526      3534      3528      3521      3548      3551      3546      3550
      3551      3548      3557      3553      3554      3546      3557      3556
      3557      3554      3551      3559      3546      3554      3548      3541
      3568      3571      3566      3570      3571      3568      3577      3573
      3574      3566      3577      3576      3577      3574      3571      3579
      3566      3574      3568      3561      3588      3591      3586      3590
      3591      3588      3597      3593      3594      3586      3597      3596
      3597      3594      3591      3599      3586      3594      3588      3581
      3608      3611      3606      3610      3611      3608      3617      3613
      3614      3606      3617      3616      3617      3614      3611      3619
      3606      3614      3608      3601      3628      3631      3626      3630
      3631      3628      3637      3633      3634      3626      3637      3636
      3637      3634      3631      3639      3626      3634      3628      3621
      3648      3651      3646      3650      3651      3648      3657      3653
      3654      3646      3657      3656      3657      3654      3651      3659
      3646      3654      3648      3641      3668      3671      3666      3670
      3671      3668      3677      3673      3674      3666      3677      3676
      3677      3674      3671      3679      3666      3674      3668      3661
      3688      3691      3686      3690      3691      3688      3697      3693
      3694      3686      3697      3696      3697      3694      3691      3699
      3686      3694      3688      3681      3708      3711      3706      3710
      3711      3708      3717      3713      3714      3706      3717      3716
      3717      3714      3711      3719      3706      3714      3708      3701
      3728      3731      3726      3730      3731      3728      3737      3733
      3734      3726      3737      3736      3737      3734      3731      3739
      3726      3734      3728      3721      3748      3751      3746      3750
      3751      3748      3757      3753      3754      3746      3757      3756
      3757      3754      3751      3759      3746      3754      3748      3741
      3768      3771      3766      3770      3771      3768      3777      3773
      3774      3766      3777      3776      3777      3774      3771      3779
      3766      3774      3768      3761      3788      3791      3786      3790
      3791      3788      3797      3793      3794      3786      3797      3796
      3797      3794      3791      3799      3786      3794      3788      3781
      3808      3811      3806      3810      3811      3808      3817      3813
      3814      3806      3817      3816      3817      3814      3811      3819
      3806      3814      3808      3801      3828      3831      3826      3830
      3831      3828      3837      3833      3834      3826      3837      3836
      3837      3834      3831      3839      3826      3834      3828      3821
      3848      3851      3846      3850      3851      3848      3857      3853
      3854      3846      3857      3856      3857      3854      3851      3859
      3846      3854      3848      3841      3868      3871      3866      3870
      3871      3868      3877      3873      3874      3866      3877      3876
      3877      3874      3871      3879      3866      3874      3868      3861
      3888      3891      3886      3890      3891      3888      3897      3893
      3894      3886      3897      3896      3897      3894      3891      3899
      3886      3894      3888      3881      3908      3911      3906      3910
      3911      3908      3917      3913      3914      3906      3917      3916
      3917      3914      3911      3919      3906      3914      3908      3901
      3928      3931      3926      3930      3931      3928      3937      3933
      3934      3926      3937      3936      3937      3934      3931      3939
      3926      3934      3928      3921      3948      3951      3946      3950
      3951      3948      3957      3953      3954      3946      3957      3956
      3957      3954      3951      3959      3946      3954      3948      3941
      3968      3971      3966      3970      3971      3968      3977      3973
      3974      3966      3977      3976      3977      3974      3971      3979
      3966      3974      3968      3961      3988      3991      3986      3990
      3991      3988      3997      3993      3994      3986      3997      3996
      3997      3994      3991      3999      3986      3994      3988      3981
      4008      4011      4006      4010      4011      4008      4017      4013
      4014      4006      4017      4016      4017      4014      4011      4019
      4006      4014      4008      4001      4028      4031      4026      4030
      4031      4028      4037      4033      4034      4026      4037      4036
      4037      4034      4031      4039      4026      4034      4028      4021
      4048      4051      4046      4050      4051      4048      4057      4053
      4054      4046      4057      4056      4057      4054      4051      4059
      4046      4054      4048      4041      4068      4071      4066      4070
      4071      4068      4077      4073      4074      4066      4077      4076
      4077      4074      4071      4079      4066      4074      4068      4061
      4088      4091      4086      4090      4091      4088      4097      4093
      4094      4086      4097      4096      4097      4094      4091      4099
      4086      4094      4088      4081      4108      4111      4106      4110
      4111      4108      4117      4113      4114      4106      4117      4116
      4117      4114      4111      4119      4106      4114      4108      4101
      4128      4131      4126      4130      4131      4128      4137      4133
      4134      4126      4137      4136      4137      4134      4131      4139
      4126      4134      4128      4121      4148      4151      4146      4150
      4151      4148      4157      4153      4154      4146      4157      4156
      4157      4154      4151      4159      4146      4154      4148      4141
      4168      4171      4166      4170      4171      4168      4177      4173
      4174      4166      4177      4176      4177      4174      4171      4179
      4166      4174      4168      4161      4188      4191      4186      4190
      4191      4188      4197      4193      4194      4186      4197      4196
      4197      4194      4191      4199      4186      4194      4188      4181
      4208      4211      4206      4210      4211      4208      4217      4213
      4214      4206      4217      4216      4217      4214      4211      4219
      4206      4214      4208      4201      4228      4231      4226      4230
      4231      4228      4237      4233      4234      4226      4237      4236
      4237      4234      4231      4239      4226      4234      4228      4221
      4248      4251      4246      4250      4251      4248      4257      4253
      4254      4246      4257      4256      4257      4254      4251      4259
      4246      4254      4248      4241      4268      4271      4266      4270
      4271      4268      4277      4273      4274      4266      4277      4276
      4277      4274      4271      4279      4266      4274      4268      4261
      4288      4291      4286      4290      4291      4288      4297      4293
      4294      4286      4297      4296      4297      4294      4291      4299
      4286      4294      4288      4281      4308      4311      4306      4310
      4311      4308      4317      4313      4314      4306      4317      4316
      4317      4314      4311      4319      4306      4314      4308      4301
      4328      4331      4326      4330      4331      4328      4337      4333
      4334      4326      4337      4336      4337      4334      4331      4339
      4326      4334      4328      4321      4348      4351      4346      4350
      4351      4348      4357      4353      4354      4346      4357      4356
      4357      4354      4351      4359      4346      4354      4348      4341
      4368      4371      4366      4370      4371      4368      4377      4373
      4374      4366      4377      4376      4377      4374      4371      4379
      4366      4374      4368      4361      4388      4391      4386      4390
      4391      4388      4397      4393      4394      4386      4397      4396
      4397      4394      4391      4399      4386      4394      4388      4381
      4408      4411      4406      4410      4411      4408      4417      4413
      4414      4406      4417      4416      4417      4414      4411      4419
      4406      4414      4408      4401      4428      4431      4426      4430
      4431      4428      4437      4433      4434      4426      4437      4436
      4437      4434      4431      4439      4426      4434      4428      4421
      4448      4451      4446      4450      4451      4448      4457      4453
      4454      4446      4457      4456      4457      4454      4451      4459
      4446      4454      4448      4441      4468      4471      4466      4470
      4471      4468      4477      4473      4474      4466      4477      4476
      4477      4474      4471      4479      4466      4474      4468      4461
      4488      4491      4486      4490      4491      4488      4497      4493
      4494      4486      4497      4496      4497      4494      4491      4499
      4486      4494      4488      4481      4508      4511      4506      4510
      4511      4508      4517      4513      4514      4506      4517      4516
      4517      4514      4511      4519      4506      4514      4508      4501
      4528      4531      4526      4530      4531      4528      4537      4533
      4534      4526      4537      4536      4537      4534      4531      4539
      4526      4534      4528      4521      4548      4551      4546      4550
      4551      4548      4557      4553      4554      4546      4557      4556
      4557      4554      4551      4559      4546      4554      4548      4541
      4568      4571      4566      4570      4571      4568      4577      4573
      4574      4566      4577      4576      4577      4574      4571      4579
      4566      4574      4568      4561      4588      4591      4586      4590
      4591      4588      4597      4593      4594      4586      4597      4596
      4597      4594      4591      4599      4586      4594      4588      4581
      4608      4611      4606      4610      4611      4608      4617      4613
      4614      4606      4617      4616      4617      4614      4611      4619
      4606      4614      4608      4601      4628      4631      4626      4630
      4631      4628      4637      4633      4634      4626      4637      4636
      4637      4634      4631      4639      4626      4634      4628      4621
      4648      4651      4646      4650      4651      4648      4657      4653
      4654      4646      4657      4656      4657      4654      4651      4659
      4646      4654      4648      4641      4668      4671      4666      4670
      4671      4668      4677      4673      4674      4666      4677      4676
      4677      4674      4671      4679      4666      4674      4668      4661
      4688      4691      4686      4690      4691      4688      4697      4693
      4694      4686      4697      4696      4697      4694      4691      4699
      4686      4694      4688      4681      4708      4711      4706      4710
      4711      4708      4717      4713      4714      4706      4717      4716
      4717      4714      4711      4719      4706      4714      4708      4701
      4728      4731      4726      4730      4731      4728      4737      4733
      4734      4726      4737      4736      4737      4734      4731      4739
      4726      4734      4728      4721      4748      4751      4746      4750
      4751      4748      4757      4753      4754      4746      4757      4756
      4757      4754      4751      4759      4746      4754      4748      4741
      4768      4771      4766      4770      4771      4768      4777      4773
      4774      4766      4777      4776      4777      4774      4771      4779
      4766      4774      4768      4761      4788      4791      4786      4790
      4791      4788      4797      4793      4794      4786      4797      4796
      4797      4794      4791      4799      4786      4794      4788      4781
      4808      4811      4806      4810      4811      4808      4817      4813
      4814      4806      4817      4816      4817      4814      4811      4819
      4806      4814      4808      4801      4828      4831      4826      4830
      4831      4828      4837      4833      4834      4826      4837      4836
      4837      4834      4831      4839      4826      4834      4828      4821
      4848      4851      4846      4850      4851      4848      4857      4853
      4854      4846      4857      4856      4857      4854      4851      4859
      4846      4854      4848      4841      4868      4871      4866      4870
      4871      4868      4877      4873      4874      4866      4877      4876
      4877      4874      4871      4879      4866      4874      4868      4861
      4888      4891      4886      4890      4891      4888      4897      4893
      4894      4886      4897      4896      4897      4894      4891      4899
      4886      4894      4888      4881      4908      4911      4906      4910
      4911      4908      4917      4913      4914      4906      4917      4916
      4917      4914      4911      4919      4906      4914      4908      4901
      4928      4931      4926      4930      4931      4928      4937      4933
      4934      4926      4937      4936      4937      4934      4931      4939
      4926      4934      4928      4921      4948      4951      4946      4950
      4951      4948      4957      4953      4954      4946      4957      4956
      4957      4954      4951      4959      4946      4954      4948      4941
      4968      4971      4966      4970      4971      4968      4977      4973
      4974      4966      4977      4976      4977      4974      4971      4979
      4966      4974      4968      4961      4988      4991      4986      4990
      4991      4988      4997      4993      4994      4986      4997      4996
      4997      4994      4991      4999      4986      4994      4988      4981
      5008      5011      5006      5010      5011      5008      5017      5013
      5014      5006      5017      5016      5017      5014      5011      5019
      5006      5014      5008      5001      5028      5031      5026      5030
      5031      5028      5037      5033      5034      5026      5037      5036
      5037      5034      5031      5039      5026      5034      5028      5021
      5048      5051      5046      5050      5051      5048      5057      5053
      5054      5046      5057      5056      5057      5054      5051      5059
      5046      5054      5048      5041      5068      5071      5066      5070
      5071      5068      5077      5073      5074      5066      5077      5076
      5077      5074      5071      5079      5066      5074      5068      5061
      5088      5091      5086      5090      5091      5088      5097      5093
      5094      5086      5097      5096      5097      5094      5091      5099
      5086      5094      5088      5081      5108      5111      5106      5110
      5111      5108      5117      5113      5114      5106      5117      5116
      5117      5114      5111      5119      5106      5114      5108      5101
      5128      5131      5126      5130      5131      5128      5137      5133
      5134      5126      5137      5136      5137      5134      5131      5139
      5126      5134      5128      5121      5148      5151      5146      5150
      5151      5148      5157      5153      5154      5146      5157      5156
      5157      5154      5151      5159      5146      5154      5148      5141
      5168      5171      5166      5170      5171      5168      5177      5173
      5174      5166      5177      5176      5177      5174      5171      5179
      5166      5174      5168      5161      5188      5191      5186      5190
      5191      5188      5197      5193      5194      5186      5197      5196
      5197      5194      5191      5199      5186      5194      5188      5181
      5208      5211      5206      5210      5211      5208      5217      5213
      5214      5206      5217      5216      5217      5214      5211      5219
      5206      5214      5208      5201      5228      5231      5226      5230
      5231      5228      5237      5233      5234      5226      5237      5236
      5237      5234      5231      5239      5226      5234      5228      5221
      5248      5251      5246      5250      5251      5248      5257      5253
      5254      5246      5257      5256      5257      5254      5251      5259
      5246      5254      5248      5241      5268      5271      5266      5270
      5271      5268      5277      5273      5274      5266      5277      5276
      5277      5274      5271      5279      5266      5274      5268      5261
      5288      5291      5286      5290      5291      5288      5297      5293
      5294      5286      5297      5296      5297      5294      5291      5299
      5286      5294      5288      5281      5308      5311      5306      5310
      5311      5308      5317      5313      5314      5306      5317      5316
      5317      5314      5311      5319      5306      5314      5308      5301
      5328      5331      5326      5330      5331      5328      5337      5333
      5334      5326      5337      5336      5337      5334      5331      5339
      5326      5334      5328      5321      5348      5351      5346      5350
      5351      5348      5357      5353      5354      5346      5357      5356
      5357      5354      5351      5359      5346      5354      5348      5341
      5368      5371      5366      5370      5371      5368      5377      5373
      5374      5366      5377      5376      5377      5374      5371      5379
      5366      5374      5368      5361      5388      5391      5386      5390
      5391      5388      5397      5393      5394      5386      5397      5396
      5397      5394      5391      5399      5386      5394      5388      5381
      5408      5411      5406      5410      5411      5408      5417      5413
      5414      5406      5417      5416      5417      5414      5411      5419
      5406      5414      5408      5401      5428      5431      5426      5430
      5431      5428      5437      5433      5434      5426      5437      5436
      5437      5434      5431      5439      5426      5434      5428      5421
      5448      5451      5446      5450      5451      5448      5457      5453
      5454      5446      5457      5456      5457      5454      5451      5459
      5446      5454      5448      5441      5468      5471      5466      5470
      5471      5468      5477      5473      5474      5466      5477      5476
      5477      5474      5471      5479      5466      5474      5468      5461
      5488      5491      5486      5490      5491      5488      5497      5493
      5494      5486      5497      5496      5497      5494      5491      5499
      5486      5494      5488      5481      5508      5511      5506      5510
      5511      5508      5517      5513      5514      5506      5517      5516
      5517      5514      5511      5519      5506      5514      5508      5501
      5528      5531      5526      5530      5531      5528      5537      5533
      5534      5526      5537      5536      5537      5534      5531      5539
      5526      5534      5528      5521      5548      5551      5546      5550
      5551      5548      5557      5553      5554      5546      5557      5556
      5557      5554      5551      5559      5546      5554      5548      5541
      5568      5571      5566      5570      5571      5568      5577      5573
      5574      5566      5577      5576      5577      5574      5571      5579
      5566      5574      5568      5561      5588      5591      5586      5590
      5591      5588      5597      5593      5594      5586      5597      5596
      5597      5594      5591      5599      5586      5594      5588      5581
      5608      5611      5606      5610      5611      5608      5617      5613
      5614      5606      5617      5616      5617      5614      5611      5619
      5606      5614      5608      5601      5628      5631      5626      5630
      5631      5628      5637      5633      5634      5626      5637      5636
      5637      5634      5631      5639      5626      5634      5628      5621
      5648      5651      5646      5650      5651      5648      5657      5653
      5654      5646      5657      5656      5657      5654      5651      5659
      5646      5654      5648      5641      5668      5671      5666      5670
      5671      5668      5677      5673      5674      5666      5677      5676
      5677      5674      5671      5679      5666      5674      5668      5661
      5688      5691      5686      5690      5691      5688      5697      5693
      5694      5686      5697      5696      5697      5694      5691      5699
      5686      5694      5688      5681      5708      5711      5706      5710
      5711      5708      5717      5713      5714      5706      5717      5716
      5717      5714      5711      5719      5706      5714      5708      5701
      5728      5731      5726      5730      5731      5728      5737      5733
      5734      5726      5737      5736      5737      5734      5731      5739
      5726      5734      5728      5721      5748      5751      5746      5750
      5751      5748      5757      5753      5754      5746      5757      5756
      5757      5754      5751      5759      5746      5754      5748      5741
      5768      5771      5766      5770      5771      5768      5777      5773
      5774      5766      5777      5776      5777      5774      5771      5779
      5766      5774      5768      5761      5788      5791      5786      5790
      5791      5788      5797      5793      5794      5786      5797      5796
      5797      5794      5791      5799      5786      5794      5788      5781
      5808      5811      5806      5810      5811      5808      5817      5813
      5814      5806      5817      5816      5817      5814      5811      5819
      5806      5814      5808      5801      5828      5831      5826      5830
      5831      5828      5837      5833      5834      5826      5837      5836
      5837      5834      5831      5839      5826      5834      5828      5821
      5848      5851      5846      5850      5851      5848      5857      5853
      5854      5846      5857      5856      5857      5854      5851      5859
      5846      5854      5848      5841      5868      5871      5866      5870
      5871      5868      5877      5873      5874      5866      5877      5876
      5877      5874      5871      5879      5866      5874      5868      5861
      5888      5891      5886      5890      5891      5888      5897      5893
      5894      5886      5897      5896      5897      5894      5891      5899
      5886      5894      5888      5881      5908      5911      5906      5910
      5911      5908      5917      5913      5914      5906      5917      5916
      5917      5914      5911      5919      5906      5914      5908      5901
      5928      5931      5926      5930      5931      5928      5937      5933
      5934      5926      5937      5936      5937      5934      5931      5939
      5926      5934      5928      5921      5948      5951      5946      5950
      5951      5948      5957      5953      5954      5946      5957      5956
      5957      5954      5951      5959      5946      5954      5948      5941
      5968      5971      5966      5970      5971      5968      5977      5973
      5974      5966      5977      5976      5977      5974      5971      5979
      5966      5974      5968      5961      5988      5991      5986      5990
      5991      5988      5997      5993      5994      5986      5997      5996
      5997      5994      5991      5999      5986      5994      5988      5981
      6008      6011      6006      6010      6011      6008      6017      6013
      6014      6006      6017      6016      6017      6014      6011      6019
      6006      6014      6008      6001      6028      6031      6026      6030
      6031      6028      6037      6033      6034      6026      6037      6036
      6037      6034      6031      6039      6026      6034      6028      6021
      6048      6051      6046      6050      6051      6048      6057      6053
      6054      6046      6057      6056      6057      6054      6051      6059
      6046      6054      6048      6041      6068      6071      6066      6070
      6071      6068      6077      6073      6074      6066      6077      6076
      6077      6074      6071      6079      6066      6074      6068      6061
      6088      6091      6086      6090      6091      6088      6097      6093
      6094      6086      6097      6096      6097      6094      6091      6099
      6086      6094      6088      6081      6108      6111      6106      6110
      6111      6108      6117      6113      6114      6106      6117      6116
      6117      6114      6111      6119      6106      6114      6108      6101
      6128      6131      6126      6130      6131      6128      6137      6133
      6134      6126      6137      6136      6137      6134      6131      6139
      6126      6134      6128      6121      6148      6151      6146      6150
      6151      6148      6157      6153      6154      6146      6157      6156
      6157      6154      6151      6159      6146      6154      6148      6141
      6168      6171      6166      6170      6171      6168      6177      6173
      6174      6166      6177      6176      6177      6174      6171      6179
      6166      6174      6168      6161      6188      6191      6186      6190
      6191      6188      6197      6193      6194      6186      6197      6196
      6197      6194      6191      6199      6186      6194      6188      6181
      6208      6211      6206      6210      6211      6208      6217      6213
      6214      6206      6217      6216      6217      6214      6211      6219
      6206      6214      6208      6201      6228      6231      6226      6230
      6231      6228      6237      6233      6234      6226      6237      6236
      6237      6234      6231      6239      6226      6234      6228      6221
      6248      6251      6246      6250      6251      6248      6257      6253
      6254      6246      6257      6256      6257      6254      6251      6259
      6246      6254      6248      6241      6268      6271      6266      6270
      6271      6268      6277      6273      6274      6266      6277      6276
      6277      6274      6271      6279      6266      6274      6268      6261
      6288      6291      6286      6290      6291      6288      6297      6293
      6294      6286      6297      6296      6297      6294      6291      6299
      6286      6294      6288      6281      6308      6311      6306      6310
      6311      6308      6317      6313      6314      6306      6317      6316
      6317      6314      6311      6319      6306      6314      6308      6301
      6328      6331      6326      6330      6331      6328      6337      6333
      6334      6326      6337      6336      6337      6334      6331      6339
      6326      6334      6328      6321      6348      6351      6346      6350
      6351      6348      6357      6353      6354      6346      6357      6356
      6357      6354      6351      6359      6346      6354      6348      6341
      6368      6371      6366      6370      6371      6368      6377      6373
      6374      6366      6377      6376      6377      6374      6371      6379
      6366      6374      6368      6361      6388      6391      6386      6390
      6391      6388      6397      6393      6394      6386      6397      6396
      6397      6394      6391      6399      6386      6394      6388      6381
      6408      6411      6406      6410      6411      6408      6417      6413
      6414      6406      6417      6416      6417      6414      6411      6419
      6406      6414      6408      6401      6428      6431      6426      6430
      6431      6428      6437      6433      6434      6426      6437      6436
      6437      6434      6431      6439      6426      6434      6428      6421
      6448      6451      6446      6450      6451      6448      6457      6453
      6454      6446      6457      6456      6457      6454      6451      6459
      6446      6454      6448      6441      6468      6471      6466      6470
      6471      6468      6477      6473      6474      6466      6477      6476
      6477      6474      6471      6479      6466      6474      6468      6461
      6488      6491      6486      6490      6491      6488      6497      6493
      6494      6486      6497      6496      6497      6494      6491      6499
      6486      6494      6488      6481      6508      6511      6506      6510
      6511      6508      6517      6513      6514      6506      6517      6516
      6517      6514      6511      6519      6506      6514      6508      6501
      6528      6531      6526      6530      6531      6528      6537      6533
      6534      6526      6537      6536      6537      6534      6531      6539
      6526      6534      6528      6521      6548      6551      6546      6550
      6551      6548      6557      6553      6554      6546      6557      6556
      6557      6554      6551      6559      6546      6554      6548      6541
      6568      6571      6566      6570      6571      6568      6577      6573
      6574      6566      6577      6576      6577      6574      6571      6579
      6566      6574      6568      6561      6588      6591      6586      6590
      6591      6588      6597      6593      6594      6586      6597      6596
      6597      6594      6591      6599      6586      6594      6588      6581
      6608      6611      6606      6610      6611      6608      6617      6613
      6614      6606      6617      6616      6617      6614      6611      6619
      6606      6614      6608      6601      6628      6631      6626      6630
      6631      6628      6637      6633      6634      6626      6637      6636
      6637      6634      6631      6639      6626      6634      6628      6621
      6648      6651      6646      6650      6651      6648      6657      6653
      6654      6646      6657      6656      6657      6654      6651      6659
      6646      6654      6648      6641      6668      6671      6666      6670
      6671      6668      6677      6673      6674      6666      6677      6676
      6677      6674      6671      6679      6666      6674      6668      6661
      6688      6691      6686      6690      6691      6688      6697      6693
      6694      6686      6697      6696      6697      6694      6691      6699
      6686      6694      6688      6681      6708      6711      6706      6710
      6711      6708      6717      6713      6714      6706      6717      6716
      6717      6714      6711      6719      6706      6714      6708      6701
      6728      6731      6726      6730      6731      6728      6737      6733
      6734      6726      6737      6736      6737      6734      6731      6739
      6726      6734      6728      6721      6748      6751      6746      6750
      6751      6748      6757      6753      6754      6746      6757      6756
      6757      6754      6751      6759      6746      6754      6748      6741
      6768      6771      6766      6770      6771      6768      6777      6773
      6774      6766      6777      6776      6777      6774      6771      6779
      6766      6774      6768      6761      6788      6791      6786      6790
      6791      6788      6797      6793      6794      6786      6797      6796
      6797      6794      6791      6799      6786      6794      6788      6781
      6808      6811      6806      6810      6811      6808      6817      6813
      6814      6806      6817      6816      6817      6814      6811      6819
      6806      6814      6808      6801      6828      6831      6826      6830
      6831      6828      6837      6833      6834      6826      6837      6836
      6837      6834      6831      6839      6826      6834      6828      6821
      6848      6851      6846      6850      6851      6848      6857      6853
      6854      6846      6857      6856      6857      6854      6851      6859
      6846      6854      6848      6841      6868      6871      6866      6870
      6871      6868      6877      6873      6874      6866      6877      6876
      6877      6874      6871      6879      6866      6874      6868      6861
      6888      6891      6886      6890      6891      6888      6897      6893
      6894      6886      6897      6896      6897      6894      6891      6899
      6886      6894      6888      6881      6908      6911      6906      6910
      6911      6908      6917      6913      6914      6906      6917      6916
      6917      6914      6911      6919      6906      6914      6908      6901
      6928      6931      6926      6930      6931      6928      6937      6933
      6934      6926      6937      6936      6937      6934      6931      6939
      6926      6934      6928      6921      6948      6951      6946      6950
      6951      6948      6957      6953      6954      6946      6957      6956
      6957      6954      6951      6959      6946      6954      6948      6941
      6968      6971      6966      6970      6971      6968      6977      6973
      6974      6966      6977      6976      6977      6974      6971      6979
      6966      6974      6968      6961      6988      6991      6986      6990
      6991      6988      6997      6993      6994      6986      6997      6996
      6997      6994      6991      6999      6986      6994      6988      6981
      7008      7011      7006      7010      7011      7008      7017      7013
      7014      7006      7017      7016      7017      7014      7011      7019
      7006      7014      7008      7001      7028      7031      7026      7030
      7031      7028      7037      7033      7034      7026      7037      7036
      7037      7034      7031      7039      7026      7034      7028      7021
      7048      7051      7046      7050      7051      7048      7057      7053
      7054      7046      7057      7056      7057      7054      7051      7059
      7046      7054      7048      7041      7068      7071      7066      7070
      7071      7068      7077      7073      7074      7066      7077      7076
      7077      7074      7071      7079      7066      7074      7068      7061
      7088      7091      7086      7090      7091      7088      7097      7093
      7094      7086      7097      7096      7097      7094      7091      7099
      7086      7094      7088      7081      7108      7111      7106      7110
      7111      7108      7117      7113      7114      7106      7117      7116
      7117      7114      7111      7119      7106      7114      7108      7101
      7128      7131      7126      7130      7131      7128      7137      7133
      7134      7126      7137      7136      7137      7134      7131      7139
      7126      7134      7128      7121      7148      7151      7146      7150
      7151      7148      7157      7153      7154      7146      7157      7156
      7157      7154      7151      7159      7146      7154      7148      7141
      7168      7171      7166      7170      7171      7168      7177      7173
      7174      7166      7177      7176      7177      7174      7171      7179
      7166      7174      7168      7161      7188      7191      7186      7190
      7191      7188      7197      7193      7194      7186      7197      7196
      7197      7194      7191      7199      7186      7194      7188      7181
      7208      7211      7206      7210      7211      7208      7217      7213
      7214      7206      7217      7216      7217      7214      7211      7219
      7206      7214      7208      7201      7228      7231      7226      7230
      7231      7228      7237      7233      7234      7226      7237      7236
      7237      7234      7231      7239      7226      7234      7228      7221
      7248      7251      7246      7250      7251      7248      7257      7253
      7254      7246      7257      7256      7257      7254      7251      7259
      7246      7254      7248      7241      7268      7271      7266      7270
      7271      7268      7277      7273      7274      7266      7277      7276
      7277      7274      7271      7279      7266      7274      7268      7261
      7288      7291      7286      7290      7291      7288      7297      7293
      7294      7286      7297      7296      7297      7294      7291      7299
      7286      7294      7288      7281      7308      7311      7306      7310
      7311      7308      7317      7313      7314      7306      7317      7316
      7317      7314      7311      7319      7306      7314      7308      7301
      7328      7331      7326      7330      7331      7328      7337      7333
      7334      7326      7337      7336      7337      7334      7331      7339
      7326      7334      7328      7321      7348      7351      7346      7350
      7351      7348      7357      7353      7354      7346      7357      7356
      7357      7354      7351      7359      7346      7354      7348      7341
      7368      7371      7366      7370      7371      7368      7377      7373
      7374      7366      7377      7376      7377      7374      7371      7379
      7366      7374      7368      7361      7388      7391      7386      7390
      7391      7388      7397      7393      7394      7386      7397      7396
      7397      7394      7391      7399      7386      7394      7388      7381
      7408      7411      7406      7410      7411      7408      7417      7413
      7414      7406      7417      7416      7417      7414      7411      7419
      7406      7414      7408      7401      7428      7431      7426      7430
      7431      7428      7437      7433      7434      7426      7437      7436
      7437      7434      7431      7439      7426      7434      7428      7421
      7448      7451      7446      7450      7451      7448      7457      7453
      7454      7446      7457      7456      7457      7454      7451      7459
      7446      7454      7448      7441      7468      7471      7466      7470
      7471      7468      7477      7473      7474      7466      7477      7476
      7477      7474      7471      7479      7466      7474      7468      7461
      7488      7491      7486      7490      7491      7488      7497      7493
      7494      7486      7497      7496      7497      7494      7491      7499
      7486      7494      7488      7481      7508      7511      7506      7510
      7511      7508      7517      7513      7514      7506      7517      7516
      7517      7514      7511      7519      7506      7514      7508      7501
      7528      7531      7526      7530      7531      7528      7537      7533
      7534      7526      7537      7536      7537      7534      7531      7539
      7526      7534      7528      7521      7548      7551      7546      7550
      7551      7548      7557      7553      7554      7546      7557      7556
      7557      7554      7551      7559      7546      7554      7548      7541
      7568      7571      7566      7570      7571      7568      7577      7573
      7574      7566      7577      7576      7577      7574      7571      7579
      7566      7574      7568      7561      7588      7591      7586      7590
      7591      7588      7597      7593      7594      7586      7597      7596
      7597      7594      7591      7599      7586      7594      7588      7581
      7608      7611      7606      7610      7611      7608      7617      7613
      7614      7606      7617      7616      7617      7614      7611      7619
      7606      7614      7608      7601      7628      7631      7626      7630
      7631      7628      7637      7633      7634      7626      7637      7636
      7637      7634      7631      7639      7626      7634      7628      7621
      7648      7651      7646      7650      7651      7648      7657      7653
      7654      7646      7657      7656      7657      7654      7651      7659
      7646      7654      7648      7641      7668      7671      7666      7670
      7671      7668      7677      7673      7674      7666      7677      7676
      7677      7674      7671      7679      7666      7674      7668      7661
      7688      7691      7686      7690      7691      7688      7697      7693
      7694      7686      7697      7696      7697      7694      7691      7699
      7686      7694      7688      7681      7708      7711      7706      7710
      7711      7708      7717      7713      7714      7706      7717      7716
      7717      7714      7711      7719      7706      7714      7708      7701
      7728      7731      7726      7730      7731      7728      7737      7733
      7734      7726      7737      7736      7737      7734      7731      7739
      7726      7734      7728      7721      7748      7751      7746      7750
      7751      7748      7757      7753      7754      7746      7757      7756
      7757      7754      7751      7759      7746      7754      7748      7741
      7768      7771      7766      7770      7771      7768      7777      7773
      7774      7766      7777      7776      7777      7774      7771      7779
      7766      7774      7768      7761      7788      7791      7786      7790
      7791      7788      7797      7793      7794      7786      7797      7796
      7797      7794      7791      7799      7786      7794      7788      7781
      7808      7811      7806      7810      7811      7808      7817      7813
      7814      7806      7817      7816      7817      7814      7811      7819
      7806      7814      7808      7801      7828      7831      7826      7830
      7831      7828      7837      7833      7834      7826      7837      7836
      7837      7834      7831      7839      7826      7834      7828      7821
      7848      7851      7846      7850      7851      7848      7857      7853
      7854      7846      7857      7856      7857      7854      7851      7859
      7846      7854      7848      7841      7868      7871      7866      7870
      7871      7868      7877      7873      7874      7866      7877      7876
      7877      7874      7871      7879      7866      7874      7868      7861
      7888      7891      7886      7890      7891      7888      7897      7893
      7894      7886      7897      7896      7897      7894      7891      7899
      7886      7894      7888      7881      7908      7911      7906      7910
      7911      7908      7917      7913      7914      7906      7917      7916
      7917      7914      7911      7919      7906      7914      7908      7901
      7928      7931      7926      7930      7931      7928      7937      7933
      7934      7926      7937      7936      7937      7934      7931      7939
      7926      7934      7928      7921      7948      7951      7946      7950
      7951      7948      7957      7953      7954      7946      7957      7956
      7957      7954      7951      7959      7946      7954      7948      7941
      7968      7971      7966      7970      7971      7968      7977      7973
      7974      7966      7977      7976      7977      7974      7971      7979
      7966      7974      7968      7961      7988      7991      7986      7990
      7991      7988      7997      7993      7994      7986      7997      7996
      7997      7994      7991      7999      7986      7994      7988      7981
      8008      8011      8006      8010      8011      8008      8017      8013
      8014      8006      8017      8016      8017      8014      8011      8019
      8006      8014      8008      8001      8028      8031      8026      8030
      8031      8028      8037      8033      8034      8026      8037      8036
      8037      8034      8031      8039      8026      8034      8028      8021
      8048      8051      8046      8050      8051      8048      8057      8053
      8054      8046      8057      8056      8057      8054      8051      8059
      8046      8054      8048      8041      8068      8071      8066      8070
      8071      8068      8077      8073      8074      8066      8077      8076
      8077      8074      8071      8079      8066      8074      8068      8061
      8088      8091      8086      8090      8091      8088      8097      8093
      8094      8086      8097      8096      8097      8094      8091      8099
      8086      8094      8088      8081      8108      8111      8106      8110
      8111      8108      8117      8113      8114      8106      8117      8116
      8117      8114      8111      8119      8106      8114      8108      8101
      8128      8131      8126      8130      8131      8128      8137      8133
      8134      8126      8137      8136      8137      8134      8131      8139
      8126      8134      8128      8121      8148      8151      8146      8150
      8151      8148      8157      8153      8154      8146      8157      8156
      8157      8154      8151      8159      8146      8154      8148      8141
      8168      8171      8166      8170      8171      8168      8177      8173
      8174      8166      8177      8176      8177      8174      8171      8179
      8166      8174      8168      8161      8188      8191      8186      8190
      8191      8188      8197      8193      8194      8186      8197      8196
      8197      8194      8191      8199      8186      8194      8188      8181
      8208      8211      8206      8210      8211      8208      8217      8213
      8214      8206      8217      8216      8217      8214      8211      8219
      8206      8214      8208      8201      8228      8231      8226      8230
      8231      8228      8237      8233      8234      8226      8237      8236
      8237      8234      8231      8239      8226      8234      8228      8221
      8248      8251      8246      8250      8251      8248      8257      8253
      8254      8246      8257      8256      8257      8254      8251      8259
      8246      8254      8248      8241      8268      8271      8266      8270
      8271      8268      8277      8273      8274      8266      8277      8276
      8277      8274      8271      8279      8266      8274      8268      8261
      8288      8291      8286      8290      8291      8288      8297      8293
      8294      8286      8297      8296      8297      8294      8291      8299
      8286      8294      8288      8281      8308      8311      8306      8310
      8311      8308      8317      8313      8314      8306      8317      8316
      8317      8314      8311      8319      8306      8314      8308      8301
      8328      8331      8326      8330      8331      8328      8337      8333
      8334      8326      8337      8336      8337      8334      8331      8339
      8326      8334      8328      8321      8348      8351      8346      8350
      8351      8348      8357      8353      8354      8346      8357      8356
      8357      8354      8351      8359      8346      8354      8348      8341
      8368      8371      8366      8370      8371      8368      8377      8373
      8374      8366      8377      8376      8377      8374      8371      8379
      8366      8374      8368      8361      8388      8391      8386      8390
      8391      8388      8397      8393      8394      8386      8397      8396
      8397      8394      8391      8399      8386      8394      8388      8381
      8408      8411      8406      8410      8411      8408      8417      8413
      8414      8406      8417      8416      8417      8414      8411      8419
      8406      8414      8408      8401      8428      8431      8426      8430
      8431      8428      8437      8433      8434      8426      8437      8436
      8437      8434      8431      8439      8426      8434      8428      8421
      8448      8451      8446      8450      8451      8448      8457      8453
      8454      8446      8457      8456      8457      8454      8451      8459
      8446      8454      8448      8441      8468      8471      8466      8470
      8471      8468      8477      8473      8474      8466      8477      8476
      8477      8474      8471      8479      8466      8474      8468      8461
      8488      8491      8486      8490      8491      8488      8497      8493
      8494      8486      8497      8496      8497      8494      8491      8499
      8486      8494      8488      8481      8508      8511      8506      8510
      8511      8508      8517      8513      8514      8506      8517      8516
      8517      8514      8511      8519      8506      8514      8508      8501
      8528      8531      8526      8530      8531      8528      8537      8533
      8534      8526      8537      8536      8537      8534      8531      8539
      8526      8534      8528      8521      8548      8551      8546      8550
      8551      8548      8557      8553      8554      8546      8557      8556
      8557      8554      8551      8559      8546      8554      8548      8541
      8568      8571      8566      8570      8571      8568      8577      8573
      8574      8566      8577      8576      8577      8574      8571      8579
      8566      8574      8568      8561      8588      8591      8586      8590
      8591      8588      8597      8593      8594      8586      8597      8596
      8597      8594      8591      8599      8586      8594      8588      8581
      8608      8611      8606      8610      8611      8608      8617      8613
      8614      8606      8617      8616      8617      8614      8611      8619
      8606      8614      8608      8601      8628      8631      8626      8630
      8631      8628      8637      8633      8634      8626      8637      8636
      8637      8634      8631      8639      8626      8634      8628      8621
      8648      8651      8646      8650      8651      8648      8657      8653
      8654      8646      8657      8656      8657      8654      8651      8659
      8646      8654      8648      8641      8668      8671      8666      8670
      8671      8668      8677      8673      8674      8666      8677      8676
      8677      8674      8671      8679      8666      8674      8668      8661
      8688      8691      8686      8690      8691      8688      8697      8693
      8694      8686      8697      8696      8697      8694      8691      8699
      8686      8694      8688      8681      8708      8711      8706      8710
      8711      8708      8717      8713      8714      8706      8717      8716
      8717      8714      8711      8719      8706      8714      8708      8701
      8728      8731      8726      8730      8731      8728      8737      8733
      8734      8726      8737      8736      8737      8734      8731      8739
      8726      8734      8728      8721      8748      8751      8746      8750
      8751      8748      8757      8753      8754      8746      8757      8756
      8757      8754      8751      8759      8746      8754      8748      8741
      8768      8771      8766      8770      8771      8768      8777      8773
      8774      8766      8777      8776      8777      8774      8771      8779
      8766      8774      8768      8761      8788      8791      8786      8790
      8791      8788      8797      8793      8794      8786      8797      8796
      8797      8794      8791      8799      8786      8794      8788      8781
      8808      8811      8806      8810      8811      8808      8817      8813
      8814      8806      8817      8816      8817      8814      8811      8819
      8806      8814      8808      8801      8828      8831      8826      8830
      8831      8828      8837      8833      8834      8826      8837      8836
      8837      8834      8831      8839      8826      8834      8828      8821
      8848      8851      8846      8850      8851      8848      8857      8853
      8854      8846      8857      8856      8857      8854      8851      8859
      8846      8854      8848      8841      8868      8871      8866      8870
      8871      8868      8877      8873      8874      8866      8877      8876
      8877      8874      8871      8879      8866      8874      8868      8861
      8888      8891      8886      8890      8891      8888      8897      8893
      8894      8886      8897      8896      8897      8894      8891      8899
      8886      8894      8888      8881      8908      8911      8906      8910
      8911      8908      8917      8913      8914      8906      8917      8916
      8917      8914      8911      8919      8906      8914      8908      8901
      8928      8931      8926      8930      8931      8928      8937      8933
      8934      8926      8937      8936      8937      8934      8931      8939
      8926      8934      8928      8921      8948      8951      8946      8950
      8951      8948      8957      8953      8954      8946      8957      8956
      8957      8954      8951      8959      8946      8954      8948      8941
      8968      8971      8966      8970      8971      8968      8977      8973
      8974      8966      8977      8976      8977      8974      8971      8979
      8966      8974      8968      8961      8988      8991      8986      8990
      8991      8988      8997      8993      8994      8986      8997      8996
      8997      8994      8991      8999      8986      8994      8988      8981
      9008      9011      9006      9010      9011      9008      9017      9013
      9014      9006      9017      9016      9017      9014      9011      9019
      9006      9014      9008      9001      9028      9031      9026      9030
      9031      9028      9037      9033      9034      9026      9037      9036
      9037      9034      9031      9039      9026      9034      9028      9021
      9048      9051      9046      9050      9051      9048      9057      9053
      9054      9046      9057      9056      9057      9054      9051      9059
      9046      9054      9048      9041      9068      9071      9066      9070
      9071      9068      9077      9073      9074      9066      9077      9076
      9077      9074      9071      9079      9066      9074      9068      9061
      9088      9091      9086      9090      9091      9088      9097      9093
      9094      9086      9097      9096      9097      9094      9091      9099
      9086      9094      9088      9081      9108      9111      9106      9110
      9111      9108      9117      9113      9114      9106      9117      9116
      9117      9114      9111      9119      9106      9114      9108      9101
      9128      9131      9126      9130      9131      9128      9137      9133
      9134      9126      9137      9136      9137      9134      9131      9139
      9126      9134      9128      9121      9148      9151      9146      9150
      9151      9148      9157      9153      9154      9146      9157      9156
      9157      9154      9151      9159      9146      9154      9148      9141
      9168      9171      9166      9170      9171      9168      9177      9173
      9174      9166      9177      9176      9177      9174      9171      9179
      9166      9174      9168      9161      9188      9191      9186      9190
      9191      9188      9197      9193      9194      9186      9197      9196
      9197      9194      9191      9199      9186      9194      9188      9181
      9208      9211      9206      9210      9211      9208      9217      9213
      9214      9206      9217      9216      9217      9214      9211      9219
      9206      9214      9208      9201      9228      9231      9226      9230
      9231      9228      9237      9233      9234      9226      9237      9236
      9237      9234      9231      9239      9226      9234      9228      9221
      9248      9251      9246      9250      9251      9248      9257      9253
      9254      9246      9257      9256      9257      9254      9251      9259
      9246      9254      9248      9241      9268      9271      9266      9270
      9271      9268      9277      9273      9274      9266      9277      9276
      9277      9274      9271      9279      9266      9274      9268      9261
      9288      9291      9286      9290      9291      9288      9297      9293
      9294      9286      9297      9296      9297      9294      9291      9299
      9286      9294      9288      9281      9308      9311      9306      9310
      9311      9308      9317      9313      9314      9306      9317      9316
      9317      9314      9311      9319      9306      9314      9308      9301
      9328      9331      9326      9330      9331      9328      9337      9333
      9334      9326      9337      9336      9337      9334      9331      9339
      9326      9334      9328      9321      9348      9351      9346      9350
      9351      9348      9357      9353      9354      9346      9357      9356
      9357      9354      9351      9359      9346      9354      9348      9341
      9368      9371      9366      9370      9371      9368      9377      9373
      9374      9366      9377      9376      9377      9374      9371      9379
      9366      9374      9368      9361      9388      9391      9386      9390
      9391      9388      9397      9393      9394      9386      9397      9396
      9397      9394      9391      9399      9386      9394      9388      9381
      9408      9411      9406      9410      9411      9408      9417      9413
      9414      9406      9417      9416      9417      9414      9411      9419
      9406      9414      9408      9401      9428      9431      9426      9430
      9431      9428      9437      9433      9434      9426      9437      9436
      9437      9434      9431      9439      9426      9434      9428      9421
      9448      9451      9446      9450      9451      9448      9457      9453
      9454      9446      9457      9456      9457      9454      9451      9459
      9446      9454      9448      9441      9468      9471      9466      9470
      9471      9468      9477      9473      9474      9466      9477      9476
      9477      9474      9471      9479      9466      9474      9468      9461
      9488      9491      9486      9490      9491      9488      9497      9493
      9494      9486      9497      9496      9497      9494      9491      9499
      9486      9494      9488      9481      9508      9511      9506      9510
      9511      9508      9517      9513      9514      9506      9517      9516
      9517      9514      9511      9519      9506      9514      9508      9501
      9528      9531      9526      9530      9531      9528      9537      9533
      9534      9526      9537      9536      9537      9534      9531      9539
      9526      9534      9528      9521      9548      9551      9546      9550
      9551      9548      9557      9553      9554      9546      9557      9556
      9557      9554      9551      9559      9546      9554      9548      9541
      9568      9571      9566      9570      9571      9568      9577      9573
      9574      9566      9577      9576      9577      9574      9571      9579
      9566      9574      9568      9561      9588      9591      9586      9590
      9591      9588      9597      9593      9594      9586      9597      9596
      9597      9594      9591      9599      9586      9594      9588      9581
      9608      9611      9606      9610      9611      9608      9617      9613
      9614      9606      9617      9616      9617      9614      9611      9619
      9606      9614      9608      9601      9628      9631      9626      9630
      9631      9628      9637      9633      9634      9626      9637      9636
      9637      9634      9631      9639      9626      9634      9628      9621
      9648      9651      9646      9650      9651      9648      9657      9653
      9654      9646      9657      9656      9657      9654      9651      9659
      9646      9654      9648      9641      9668      9671      9666      9670
      9671      9668      9677      9673      9674      9666      9677      9676
      9677      9674      9671      9679      9666      9674      9668      9661
      9688      9691      9686      9690      9691      9688      9697      9693
      9694      9686      9697      9696      9697      9694      9691      9699
      9686      9694      9688      9681      9708      9711      9706      9710
      9711      9708      9717      9713      9714      9706      9717      9716
      9717      9714      9711      9719      9706      9714      9708      9701
      9728      9731      9726      9730      9731      9728      9737      9733
      9734      9726      9737      9736      9737      9734      9731      9739
      9726      9734      9728      9721      9748      9751      9746      9750
      9751      9748      9757      9753      9754      9746      9757      9756
      9757      9754      9751      9759      9746      9754      9748      9741
      9768      9771      9766      9770      9771      9768      9777      9773
      9774      9766      9777      9776      9777      9774      9771      9779
      9766      9774      9768      9761      9788      9791      9786      9790
      9791      9788      9797      9793      9794      9786      9797      9796
      9797      9794      9791      9799      9786      9794      9788      9781
      9808      9811      9806      9810      9811      9808      9817      9813
      9814      9806      9817      9816      9817      9814      9811      9819
      9806      9814      9808      9801      9828      9831      9826      9830
      9831      9828      9837      9833      9834      9826      9837      9836
      9837      9834      9831      9839      9826      9834      9828      9821
      9848      9851      9846      9850      9851      9848      9857      9853
      9854      9846      9857      9856      9857      9854      9851      9859
      9846      9854      9848      9841      9868      9871      9866      9870
      9871      9868      9877      9873      9874      9866      9877      9876
      9877      9874      9871      9879      9866      9874      9868      9861
      9888      9891      9886      9890      9891      9888      9897      9893
      9894      9886      9897      9896      9897      9894      9891      9899
      9886      9894      9888      9881      9908      9911      9906      9910
      9911      9908      9917      9913      9914      9906      9917      9916
      9917      9914      9911      9919      9906      9914      9908      9901
      9928      9931      9926      9930      9931      9928      9937      9933
      9934      9926      9937      9936      9937      9934      9931      9939
      9926      9934      9928      9921      9948      9951      9946      9950
      9951      9948      9957      9953      9954      9946      9957      9956
      9957      9954      9951      9959      9946      9954      9948      9941
      9968      9971      9966      9970      9971      9968      9977      9973
      9974      9966      9977      9976      9977      9974      9971      9979
      9966      9974      9968      9961      9988      9991      9986      9990
      9991      9988      9997      9993      9994      9986      9997      9996
      9997      9994      9991      9999      9986      9994      9988      9981
     16008     16011     16006     16010     16011     16008     16017     16013
     16014     16006     16017     16016     16017     16014     16011     16019
     16006     16014     16008     16001     16028     16031     16026     16030
     16031     16028     16037     16033     16034     16026     16037     16036
     16037     16034     16031     16039     16026     16034     16028     16021
     16048     16051     16046     16050     16051     16048     16057     16053
     16054     16046     16057     16056     16057     16054     16051     16059
     16046     16054     16048     16041     16068     16071     16066     16070
     16071     16068     16077     16073     16074     16066     16077     16076
     16077     16074     16071     16079     16066     16074     16068     16061
     16088     16091     16086     16090     16091     16088     16097     16093
     16094     16086     16097     16096     16097     16094     16091     16099
     16086     16094     16088     16081     16108     16111     16106     16110
     16111     16108     16117     16113     16114     16106     16117     16116
     16117     16114     16111     16119     16106     16114     16108     16101
     16128     16131     16126     16130     16131     16128     16137     16133
     16134     16126     16137     16136     16137     16134     16131     16139
     16126     16134     16128     16121     16148     16151     16146     16150
     16151     16148     16157     16153     16154     16146     16157     16156
     16157     16154     16151     16159     16146     16154     16148     16141
     16168     16171     16166     16170     16171     16168     16177     16173
     16174     16166     16177     16176     16177     16174     16171     16179
     16166     16174     16168     16161     16188     16191     16186     16190
     16191     16188     16197     16193     16194     16186     16197     16196
     16197     16194     16191     16199     16186     16194     16188     16181
     16208     16211     16206     16210     16211     16208     16217     16213
     16214     16206     16217     16216     16217     16214     16211     16219
     16206     16214     16208     16201     16228     16231     16226     16230
     16231     16228     16237     16233     16234     16226     16237     16236
     16237     16234     16231     16239     16226     16234     16228     16221
     16248     16251     16246     16250     16251     16248     16257     16253
     16254     16246     16257     16256     16257     16254     16251     16259
     16246     16254     16248     16241     16268     16271     16266     16270
     16271     16268     16277     16273     16274     16266     16277     16276
     16277     16274     16271     16279     16266     16274     16268     16261
     16288     16291     16286     16290     16291     16288     16297     16293
     16294     16286     16297     16296     16297     16294     16291     16299
     16286     16294     16288     16281     16308     16311     16306     16310
     16311     16308     16317     16313     16314     16306     16317     16316
     16317     16314     16311     16319     16306     16314     16308     16301
     16328     16331     16326     16330     16331     16328     16337     16333
     16334     16326     16337     16336     16337     16334     16331     16339
     16326     16334     16328     16321     16348     16351     16346     16350
     16351     16348     16357     16353     16354     16346     16357     16356
     16357     16354     16351     16359     16346     16354     16348     16341
     16368     16371     16366     16370     16371     16368     16377     16373
     16374     16366     16377     16376     16377     16374     16371     16379
     16366     16374     16368     16361     16388     16391     16386     16390
     16391     16388     16397     16393     16394     16386     16397     16396
     16397     16394     16391     16399     16386     16394     16388     16381
     16408     16411     16406     16410     16411     16408     16417     16413
     16414     16406     16417     16416     16417     16414     16411     16419
     16406     16414     16408     16401     16428     16431     16426     16430
     16431     16428     16437     16433     16434     16426     16437     16436
     16437     16434     16431     16439     16426     16434     16428     16421
     16448     16451     16446     16450     16451     16448     16457     16453
     16454     16446     16457     16456     16457     16454     16451     16459
     16446     16454     16448     16441     16468     16471     16466     16470
     16471     16468     16477     16473     16474     16466     16477     16476
     16477     16474     16471     16479     16466     16474     16468     16461
     16488     16491     16486     16490     16491     16488     16497     16493
     16494     16486     16497     16496     16497     16494     16491     16499
     16486     16494     16488     16481     16508     16511     16506     16510
     16511     16508     16517     16513     16514     16506     16517     16516
     16517     16514     16511     16519     16506     16514     16508     16501
     16528     16531     16526     16530     16531     16528     16537     16533
     16534     16526     16537     16536     16537     16534     16531     16539
     16526     16534     16528     16521     16548     16551     16546     16550
     16551     16548     16557     16553     16554     16546     16557     16556
     16557     16554     16551     16559     16546     16554     16548     16541
     16568     16571     16566     16570     16571     16568     16577     16573
     16574     16566     16577     16576     16577     16574     16571     16579
     16566     16574     16568     16561     16588     16591     16586     16590
     16591     16588     16597     16593     16594     16586     16597     16596
     16597     16594     16591     16599     16586     16594     16588     16581
     16608     16611     16606     16610     16611     16608     16617     16613
     16614     16606     16617     16616     16617     16614     16611     16619
     16606     16614     16608     16601     16628     16631     16626     16630
     16631     16628     16637     16633     16634     16626     16637     16636
     16637     16634     16631     16639     16626     16634     16628     16621
     16648     16651     16646     16650     16651     16648     16657     16653
     16654     16646     16657     16656     16657     16654     16651     16659
     16646     16654     16648     16641     16668     16671     16666     16670
     16671     16668     16677     16673     16674     16666     16677     16676
     16677     16674     16671     16679     16666     16674     16668     16661
     16688     16691     16686     16690     16691     16688     16697     16693
     16694     16686     16697     16696     16697     16694     16691     16699
     16686     16694     16688     16681     16708     16711     16706     16710
     16711     16708     16717     16713     16714     16706     16717     16716
     16717     16714     16711     16719     16706     16714     16708     16701
     16728     16731     16726     16730     16731     16728     16737     16733
     16734     16726     16737     16736     16737     16734     16731     16739
     16726     16734     16728     16721     16748     16751     16746     16750
     16751     16748     16757     16753     16754     16746     16757     16756
     16757     16754     16751     16759     16746     16754     16748     16741
     16768     16771     16766     16770     16771     16768     16777     16773
     16774     16766     16777     16776     16777     16774     16771     16779
     16766     16774     16768     16761     16788     16791     16786     16790
     16791     16788     16797     16793     16794     16786     16797     16796
     16797     16794     16791     16799     16786     16794     16788     16781
     16808     16811     16806     16810     16811     16808     16817     16813
     16814     16806     16817     16816     16817     16814     16811     16819
     16806     16814     16808     16801     16828     16831     16826     16830
     16831     16828     16837     16833     16834     16826     16837     16836
     16837     16834     16831     16839     16826     16834     16828     16821
     16848     16851     16846     16850     16851     16848     16857     16853
     16854     16846     16857     16856     16857     16854     16851     16859
     16846     16854     16848     16841     16868     16871     16866     16870
     16871     16868     16877     16873     16874     16866     16877     16876
     16877     16874     16871     16879     16866     16874     16868     16861
     16888     16891     16886     16890     16891     16888     16897     16893
     16894     16886     16897     16896     16897     16894     16891     16899
     16886     16894     16888     16881     16908     16911     16906     16910
     16911     16908     16917     16913     16914     16906     16917     16916
     16917     16914     16911     16919     16906     16914     16908     16901
     16928     16931     16926     16930     16931     16928     16937     16933
     16934     16926     16937     16936     16937     16934     16931     16939
     16926     16934     16928     16921     16948     16951     16946     16950
     16951     16948     16957     16953     16954     16946     16957     16956
     16957     16954     16951     16959     16946     16954     16948     16941
     16968     16971     16966     16970     16971     16968     16977     16973
     16974     16966     16977     16976     16977     16974     16971     16979
     16966     16974     16968     16961     16988     16991     16986     16990
     16991     16988     16997     16993     16994     16986     16997     16996
     16997     16994     16991     16999     16986     16994     16988     16981

         0 !NDON: donors


         0 !NACC: acceptors


         0 !NNB

         0         0         0         0         0         0         0         0
         0         0         0         0         0         0         0         0
         0         0         0         0         0         0         0         0
         0         0         0         0         0         0         0         0
         0         0         0         0         0         0         0         0
         0         0         0         0         0         0         0         0
         0         0         0         0         0         0         0         0
         0         0         0         0         0         0         0         0
         0         0         0         0         0         0         0         0
         0         0         0         0         0         0         0         0
         0         0         0         0         0         0         0         0
         0         0         0         0         0         0         0         0
         0         0         0         0         0         0         0         0
         0         0         0         0         0         0         0         0
         0         0         0         0         0         0         0         0
         0         0         0         0         0         0         0         0
         0         0         0         0         0         0         0         0
         0         0         0         0         0         0         0         0
         0         0         0         0         0         0         0         0
         0         0         0         0         0         0         0         0
         0         0         0         0         0         0         0         0
         0         0         0         0         0         0         0         0
         0         0         0         0         0         0         0         0
         0         0         0         0         0         0         0         0
         0         0         0         0         0         0         0         0
         0         0         0         0         0         0         0         0
         0         0         0         0         0         0         0         0
         0         0         0         0         0         0         0         0
         0         0         0         0         0         0         0         0
         0         0         0         0         0         0         0         0
         0         0         0         0         0         0         0         0
         0         0         0         0         0         0         0         0
         0         0         0         0         0         0         0         0
         0         0         0         0         0         0         0         0
         0         0         0         0         0         0         0         0
         0         0         0         0         0         0         0         0
         0         0         0         0         0         0         0         0
         0         0         0         0         0         0         0         0
         0         0         0         0         0         0         0         0
         0         0         0         0         0         0         0         0
         0         0         0         0         0         0         0         0
         0         0         0         0         0         0         0         0
         0         0         0         0         0         0         0         0
         0         0         0         0         0         0         0         0
         0         0         0         0         0         0         0         0
         0         0         0         0         0         0         0         0
         0         0         0         0         0         0         0         0
         0         0         0         0         0         0         0         0
         0         0         0         0         0         0         0         0
         0         0         0         0         0         0         0         0
         0         0         0         0         0         0         0         0
         0         0         0         0         0         0         0         0
         0         0         0         0         0         0         0         0
         0         0         0         0         0         0         0         0
         0         0         0         0         0         0         0         0
         0         0         0         0         0         0         0         0
         0         0         0         0         0         0         0         0
         0         0         0         0         0         0         0         0
         0         0         0         0         0         0         0         0
         0         0         0         0         0         0         0         0
         0         0         0         0         0         0         0         0
         0         0         0         0         0         0         0         0
         0         0         0         0         0         0         0         0
         0         0         0         0         0         0         0         0
         0         0         0         0         0         0         0         0
         0         0         0         0         0         0         0         0
         0         0         0         0         0         0         0         0
         0         0         0         0         0         0         0         0
         0         0         0         0         0         0         0         0
         0         0         0         0         0         0         0         0
         0         0         0         0         0         0         0         0
         0         0         0         0         0         0         0         0
         0         0         0         0         0         0         0         0
         0         0         0         0         0         0         0         0
         0         0         0         0         0         0         0         0
         0         0         0         0         0         0         0         0
         0         0         0         0         0         0         0         0
         0         0         0         0         0         0         0         0
         0         0         0         0         0         0         0         0
         0         0         0         0         0         0         0         0
         0         0         0         0         0         0         0         0
         0         0         0         0         0         0         0         0
         0         0         0         0         0         0         0         0
         0         0         0         0         0         0         0         0
         0         0         0         0         0         0         0         0
         0         0         0         0         0         0         0         0
         0         0         0         0         0         0         0         0
         0         0         0         0         0         0         0         0
         0         0         0         0         0         0         0         0
         0         0         0         0         0         0         0         0
         0         0         0         0         0         0         0         0
         0         0         0         0         0         0         0         0
         0         0         0         0         0         0         0         0
         0         0         0         0         0         0         0         0
         0         0         0         0         0         0         0         0
         0         0         0         0         0         0         0         0
         0         0         0         0         0         0         0         0
         0         0         0         0         0         0         0         0
         0         0         0         0         0         0         0         0
         0         0         0         0         0         0         0         0
         0         0         0         0         0         0         0         0
         0         0         0         0         0         0         0         0
         0         0         0         0         0         0         0         0
         0         0         0         0         0         0         0         0
         0         0         0         0         0         0         0         0
         0         0         0         0         0         0         0         0
         0         0         0         0         0         0         0         0
         0         0         0         0         0         0         0         0
         0         0         0         0         0         0         0         0
         0         0         0         0         0         0         0         0
         0         0         0         0         0         0         0         0
         0         0         0         0         0         0         0         0
         0         0         0         0         0         0         0         0
         0         0         0         0         0         0         0         0
         0         0         0         0         0         0         0         0
         0         0         0         0         0         0         0         0
         0         0         0         0         0         0         0         0
         0         0         0         0         0         0         0         0
         0         0         0         0         0         0         0         0
         0         0         0         0         0         0         0         0
         0         0         0         0         0         0         0         0
         0         0         0         0         0         0         0         0
         0         0         0         0         0         0         0         0
         0         0         0         0         0         0         0         0
         0         0         0         0         0         0         0         0
         0         0         0         0         0         0         0         0
         0         0         0         0         0         0         0         0
         0         0         0         0         0         0         0         0
         0         0         0         0         0         0         0         0
         0         0         0         0         0         0         0         0
         0         0         0         0         0         0         0         0
         0         0         0         0         0         0         0         0
         0         0         0         0         0         0         0         0
         0         0         0         0         0         0         0         0
         0         0         0         0         0         0         0         0
         0         0         0         0         0         0         0         0
         0         0         0         0         0         0         0         0
         0         0         0         0         0         0         0         0
         0         0         0         0         0         0         0         0
         0         0         0         0         0         0         0         0
         0         0         0         0         0         0         0         0
         0         0         0         0         0         0         0         0
         0         0         0         0         0         0         0         0
         0         0         0         0         0         0         0         0
         0         0         0         0         0         0         0         0
         0         0         0         0         0         0         0         0
         0         0         0         0         0         0         0         0
         0         0         0         0         0         0         0         0
         0         0         0         0         0         0         0         0
         0         0         0         0         0         0         0         0
         0         0         0         0         0         0         0         0
         0         0         0         0         0         0         0         0
         0         0         0         0         0         0         0         0
         0         0         0         0         0         0         0         0
         0         0         0         0         0         0         0         0
         0         0         0         0         0         0         0         0
         0         0         0         0         0         0         0         0
         0         0         0         0         0         0         0         0
         0         0         0         0         0         0         0         0
         0         0         0         0         0         0         0         0
         0         0         0         0         0         0         0         0
         0         0         0         0         0         0         0         0
         0         0         0         0         0         0         0         0
         0         0         0         0         0         0         0         0
         0         0         0         0         0         0         0         0
         0         0         0         0         0         0         0         0
         0         0         0         0         0         0         0         0
         0         0         0         0         0         0         0         0
         0         0         0         0         0         0         0         0
         0         0         0         0         0         0         0         0
         0         0         0         0         0         0         0         0
         0         0         0         0         0         0         0         0
         0         0         0         0         0         0         0         0
         0         0         0         0         0         0         0         0
         0         0         0         0         0         0         0         0
         0         0         0         0         0         0         0         0
         0         0         0         0         0         0         0         0
         0         0         0         0         0         0         0         0
         0         0         0         0         0         0         0         0
         0         0         0         0         0         0         0         0
         0         0         0         0         0         0         0         0
         0         0         0         0         0         0         0         0
         0         0         0         0         0         0         0         0
         0         0         0         0         0         0         0         0
         0         0         0         0         0         0         0         0
         0         0         0         0         0         0         0         0
         0         0         0         0         0         0         0         0
         0         0         0         0         0         0         0         0
         0         0         0         0         0         0         0         0
         0         0         0         0         0         0         0         0
         0         0         0         0         0         0         0         0
         0         0         0         0         0         0         0         0
         0         0         0         0         0         0         0         0
         0         0         0         0         0         0         0         0
         0         0         0         0         0         0         0         0
         0         0         0         0         0         0         0         0
         0         0         0         0         0         0         0         0
         0         0         0         0         0         0         0         0
         0         0         0         0         0         0         0         0
         0         0         0         0         0         0         0         0
         0         0         0         0         0         0         0         0
         0         0         0         0         0         0         0         0
         0         0         0         0         0         0         0         0
         0         0         0         0         0         0         0         0
         0         0         0         0         0         0         0         0
         0         0         0         0         0         0         0         0
         0         0         0         0         0         0         0         0
         0         0         0         0         0         0         0         0
         0         0         0         0         0         0         0         0
         0         0         0         0         0         0         0         0
         0         0         0         0         0         0         0         0
         0         0         0         0         0         0         0         0
         0         0         0         0         0         0         0         0
         0         0         0         0         0         0         0         0
         0         0         0         0         0         0         0         0
         0         0         0         0         0         0         0         0
         0         0         0         0         0         0         0         0
         0         0         0         0         0         0         0         0
         0         0         0         0         0         0         0         0
         0         0         0         0         0         0         0         0
         0         0         0         0         0         0         0         0
         0         0         0         0         0         0         0         0
         0         0         0         0         0         0         0         0
         0         0         0         0         0         0         0         0
         0         0         0         0         0         0         0         0
         0         0         0         0         0         0         0         0
         0         0         0         0         0         0         0         0
         0         0         0         0         0         0         0         0
         0         0         0         0         0         0         0         0
         0         0         0         0         0         0         0         0
         0         0         0         0         0         0         0         0
         0         0         0         0         0         0         0         0
         0         0         0         0         0         0         0         0
         0         0         0         0         0         0         0         0
         0         0         0         0         0         0         0         0
         0         0         0         0         0         0         0         0
         0         0         0         0         0         0         0         0
         0         0         0         0         0         0         0         0
         0         0         0         0         0         0         0         0
         0         0         0         0         0         0         0         0
         0         0         0         0         0         0         0         0
         0         0         0         0         0         0         0         0
         0         0         0         0         0         0         0         0
         0         0         0         0         0         0         0         0
         0         0         0         0         0         0         0         0
         0         0         0         0         0         0         0         0
         0         0         0         0         0         0         0         0
         0         0         0         0         0         0         0         0
         0         0         0         0         0         0         0         0
         0         0         0         0         0         0         0         0
         0         0         0         0         0         0         0         0
         0         0         0         0         0         0         0         0
         0         0         0         0         0         0         0         0
         0         0         0         0         0         0         0         0
         0         0         0         0         0         0         0         0
         0         0         0         0         0         0         0         0
         0         0         0         0         0         0         0         0
         0         0         0         0         0         0         0         0
         0         0         0         0         0         0         0         0
         0         0         0         0         0         0         0         0
         0         0         0         0         0         0         0         0
         0         0         0         0         0         0         0         0
         0         0         0         0         0         0         0         0
         0         0         0         0         0         0         0         0
         0         0         0         0         0         0         0         0
         0         0         0         0         0         0         0         0
         0         0         0         0         0         0         0         0
         0         0         0         0         0         0         0         0
         0         0         0         0         0         0         0         0
         0         0         0         0         0         0         0         0
         0         0         0         0         0         0         0         0
         0         0         0         0         0         0         0         0
         0         0         0         0         0         0         0         0
         0         0         0         0         0         0         0         0
         0         0         0         0         0         0         0         0
         0         0         0         0         0         0         0         0
         0         0         0         0         0         0         0         0
         0         0         0         0         0         0         0         0
         0         0         0         0         0         0         0         0
         0         0         0         0         0         0         0         0
         0         0         0         0         0         0         0         0
         0         0         0         0         0         0         0         0
         0         0         0         0         0         0         0         0
         0         0         0         0         0         0         0         0
         0         0         0         0         0         0         0         0
         0         0         0         0         0         0         0         0
         0         0         0         0         0         0         0         0
         0         0         0         0         0         0         0         0
         0         0         0         0         0         0         0         0
         0         0         0         0         0         0         0         0
         0         0         0         0         0         0         0         0
         0         0         0         0         0         0         0         0
         0         0         0         0         0         0         0         0
         0         0         0         0         0         0         0         0
         0         0         0         0         0         0         0         0
         0         0         0         0         0         0         0         0
         0         0         0         0         0         0         0         0
         0         0         0         0         0         0         0         0
         0         0         0         0         0         0         0         0
         0         0         0         0         0         0         0         0
         0         0         0         0         0         0         0         0
         0         0         0         0         0         0         0         0
         0         0         0         0         0         0         0         0
         0         0         0         0         0         0         0         0
         0         0         0         0         0         0         0         0
         0         0         0         0         0         0         0         0
         0         0         0         0         0         0         0         0
         0         0         0         0         0         0         0         0
         0         0         0         0         0         0         0         0
         0         0         0         0         0         0         0         0
         0         0         0         0         0         0         0         0
         0         0         0         0         0         0         0         0
         0         0         0         0         0         0         0         0
         0         0         0         0         0         0         0         0
         0         0         0         0         0         0         0         0
         0         0         0         0         0         0         0         0
         0         0         0         0         0         0         0         0
         0         0         0         0         0         0         0         0
         0         0         0         0         0         0         0         0
         0         0         0         0         0         0         0         0
         0         0         0         0         0         0         0         0
         0         0         0         0         0         0         0         0
         0         0         0         0         0         0         0         0
         0         0         0         0         0         0         0         0
         0         0         0         0         0         0         0         0
         0         0         0         0         0         0         0         0
         0         0         0         0         0         0         0         0
         0         0         0         0         0         0         0         0
         0         0         0         0         0         0         0         0
         0         0         0         0         0         0         0         0
         0         0         0         0         0         0         0         0
         0         0         0         0         0         0         0         0
         0         0         0         0         0         0         0         0
         0         0         0         0         0         0         0         0
         0         0         0         0         0         0         0         0
         0         0         0         0         0         0         0         0
         0         0         0         0         0         0         0         0
         0         0         0         0         0         0         0         0
         0         0         0         0         0         0         0         0
         0         0         0         0         0         0         0         0
         0         0         0         0         0         0         0         0
         0         0         0         0         0         0         0         0
         0         0         0         0         0         0         0         0
         0         0         0         0         0         0         0         0
         0         0         0         0         0         0         0         0
         0         0         0         0         0         0         0         0
         0         0         0         0         0         0         0         0
         0         0         0         0         0         0         0         0
         0         0         0         0         0         0         0         0
         0         0         0         0         0         0         0         0
         0         0         0         0         0         0         0         0
         0         0         0         0         0         0         0         0
         0         0         0         0         0         0         0         0
         0         0         0         0         0         0         0         0
         0         0         0         0         0         0         0         0
         0         0         0         0         0         0         0         0
         0         0         0         0         0         0         0         0
         0         0         0         0         0         0         0         0
         0         0         0         0         0         0         0         0
         0         0         0         0         0         0         0         0
         0         0         0         0         0         0         0         0
         0         0         0         0         0         0         0         0
         0         0         0         0         0         0         0         0
         0         0         0         0         0         0         0         0
         0         0         0         0         0         0         0         0
         0         0         0         0         0         0         0         0
         0         0         0         0         0         0         0         0
         0         0         0         0         0         0         0         0
         0         0         0         0         0         0         0         0
         0         0         0         0         0         0         0         0
         0         0         0         0         0         0         0         0
         0         0         0         0         0         0         0         0
         0         0         0         0         0         0         0         0
         0         0         0         0         0         0         0         0
         0         0         0         0         0         0         0         0
         0         0         0         0         0         0         0         0
         0         0         0         0         0         0         0         0
         0         0         0         0         0         0         0         0
         0         0         0         0         0         0         0         0
         0         0         0         0         0         0         0         0
         0         0         0         0         0         0         0         0
         0         0         0         0         0         0         0         0
         0         0         0         0         0         0         0         0
         0         0         0         0         0         0         0         0
         0         0         0         0         0         0         0         0
         0         0         0         0         0         0         0         0
         0         0         0         0         0         0         0         0
         0         0         0         0         0         0         0         0
         0         0         0         0         0         0         0         0
         0         0         0         0         0         0         0         0
         0         0         0         0         0         0         0         0
         0         0         0         0         0         0         0         0
         0         0         0         0         0         0         0         0
         0         0         0         0         0         0         0         0
         0         0         0         0         0         0         0         0
         0         0         0         0         0         0         0         0
         0         0         0         0         0         0         0         0
         0         0         0         0         0         0         0         0
         0         0         0         0         0         0         0         0
         0         0         0         0         0         0         0         0
         0         0         0         0         0         0         0         0
         0         0         0         0         0         0         0         0
         0         0         0         0         0         0         0         0
         0         0         0         0         0         0         0         0
         0         0         0         0         0         0         0         0
         0         0         0         0         0         0         0         0
         0         0         0         0         0         0         0         0
         0         0         0         0         0         0         0         0
         0         0         0         0         0         0         0         0
         0         0         0         0         0         0         0         0
         0         0         0         0         0         0         0         0
         0         0         0         0         0         0         0         0
         0         0         0         0         0         0         0         0
         0         0         0         0         0         0         0         0
         0         0         0         0         0         0         0         0
         0         0         0         0         0         0         0         0
         0         0         0         0         0         0         0         0
         0         0         0         0         0         0         0         0
         0         0         0         0         0         0         0         0
         0         0         0         0         0         0         0         0
         0         0         0         0         0         0         0         0
         0         0         0         0         0         0         0         0
         0         0         0         0         0         0         0         0
         0         0         0         0         0         0         0         0
         0         0         0         0         0         0         0         0
         0         0         0         0         0         0         0         0
         0         0         0         0         0         0         0         0
         0         0         0         0         0         0         0         0
         0         0         0         0         0         0         0         0
         0         0         0         0         0         0         0         0
         0         0         0         0         0         0         0         0
         0         0         0         0         0         0         0         0
         0         0         0         0         0         0         0         0
         0         0         0         0         0         0         0         0
         0         0         0         0         0         0         0         0
         0         0         0         0         0         0         0         0
         0         0         0         0         0         0         0         0
         0         0         0         0         0         0         0         0
         0         0         0         0         0         0         0         0
         0         0         0         0         0         0         0         0
         0         0         0         0         0         0         0         0
         0         0         0         0         0         0         0         0
         0         0         0         0         0         0         0         0
         0         0         0         0         0         0         0         0
         0         0         0         0         0         0         0         0
         0         0         0         0         0         0         0         0
         0         0         0         0         0         0         0         0
         0         0         0         0         0         0         0         0
         0         0         0         0         0         0         0         0
         0         0         0         0         0         0         0         0
         0         0         0         0         0         0         0         0
         0         0         0         0         0         0         0         0
         0         0         0         0         0         0         0         0
         0         0         0         0         0         0         0         0
         0         0         0         0         0         0         0         0
         0         0         0         0         0         0         0         0
         0         0         0         0         0         0         0         0
         0         0         0         0         0         0         0         0
         0         0         0         0         0         0         0         0
         0         0         0         0         0         0         0         0
         0         0         0         0         0         0         0         0
         0         0         0         0         0         0         0         0
         0         0         0         0         0         0         0         0
         0         0         0         0         0         0         0         0
         0         0         0         0         0         0         0         0
         0         0         0         0         0         0         0         0
         0         0         0         0         0         0         0         0
         0         0         0         0         0         0         0         0
         0         0         0         0         0         0         0         0
         0         0         0         0         0         0         0         0
         0         0         0         0         0         0         0         0
         0         0         0         0         0         0         0         0
         0         0         0         0         0         0         0         0
         0         0         0         0         0         0         0         0
         0         0         0         0         0         0         0         0
         0         0         0         0         0         0         0         0
         0         0         0         0         0         0         0         0
         0         0         0         0         0         0         0         0
         0         0         0         0         0         0         0         0
         0         0         0         0         0         0         0         0
         0         0         0         0         0         0         0         0
         0         0         0         0         0         0         0         0
         0         0         0         0         0         0         0         0
         0         0         0         0         0         0         0         0
         0         0         0         0         0         0         0         0
         0         0         0         0         0         0         0         0
         0         0         0         0         0         0         0         0
         0         0         0         0         0         0         0         0
         0         0         0         0         0         0         0         0
         0         0         0         0         0         0         0         0
         0         0         0         0         0         0         0         0
         0         0         0         0         0         0         0         0
         0         0         0         0         0         0         0         0
         0         0         0         0         0         0         0         0
         0         0         0         0         0         0         0         0
         0         0         0         0         0         0         0         0
         0         0         0         0         0         0         0         0
         0         0         0         0         0         0         0         0
         0         0         0         0         0         0         0         0
         0         0         0         0         0         0         0         0
         0         0         0         0         0         0         0         0
         0         0         0         0         0         0         0         0
         0         0         0         0         0         0         0         0
         0         0         0         0         0         0         0         0
         0         0         0         0         0         0         0         0
         0         0         0         0         0         0         0         0
         0         0         0         0         0         0         0         0
         0         0         0         0         0         0         0         0
         0         0         0         0         0         0         0         0
         0         0         0         0         0         0         0         0
         0         0         0         0         0         0         0         0
         0         0         0         0         0         0         0         0
         0         0         0         0         0         0         0         0
         0         0         0         0         0         0         0         0
         0         0         0         0         0         0         0         0
         0         0         0         0         0         0         0         0
         0         0         0         0         0         0         0         0
         0         0         0         0         0         0         0         0
         0         0         0         0         0         0         0         0
         0         0         0         0         0         0         0         0
         0         0         0         0         0         0         0         0
         0         0         0         0         0         0         0         0
         0         0         0         0         0         0         0         0
         0         0         0         0         0         0         0         0
         0         0         0         0         0         0         0         0
         0         0         0         0         0         0         0         0
         0         0         0         0         0         0         0         0
         0         0         0         0         0         0         0         0
         0         0         0         0         0         0         0         0
         0         0         0         0         0         0         0         0
         0         0         0         0         0         0         0         0
         0         0         0         0         0         0         0         0
         0         0         0         0         0         0         0         0
         0         0         0         0         0         0         0         0
         0         0         0         0         0         0         0         0
         0         0         0         0         0         0         0         0
         0         0         0         0         0         0         0         0
         0         0         0         0         0         0         0         0
         0         0         0         0         0         0         0         0
         0         0         0         0         0         0         0         0
         0         0         0         0         0         0         0         0
         0         0         0         0         0         0         0         0
         0         0         0         0         0         0         0         0
         0         0         0         0         0         0         0         0
         0         0         0         0         0         0         0         0
         0         0         0         0         0         0         0         0
         0         0         0         0         0         0         0         0
         0         0         0         0         0         0         0         0
         0         0         0         0         0         0         0         0
         0         0         0         0         0         0         0         0
         0         0         0         0         0         0         0         0
         0         0         0         0         0         0         0         0
         0         0         0         0         0         0         0         0
         0         0         0         0         0         0         0         0
         0         0         0         0         0         0         0         0
         0         0         0         0         0         0         0         0
         0         0         0         0         0         0         0         0
         0         0         0         0         0         0         0         0
         0         0         0         0         0         0         0         0
         0         0         0         0         0         0         0         0
         0         0         0         0         0         0         0         0
         0         0         0         0         0         0         0         0
         0         0         0         0         0         0         0         0
         0         0         0         0         0         0         0         0
         0         0         0         0         0         0         0         0
         0         0         0         0         0         0         0         0
         0         0         0         0         0         0         0         0
         0         0         0         0         0         0         0         0
         0         0         0         0         0         0         0         0
         0         0         0         0         0         0         0         0
         0         0         0         0         0         0         0         0
         0         0         0         0         0         0         0         0
         0         0         0         0         0         0         0         0
         0         0         0         0         0         0         0         0
         0         0         0         0         0         0         0         0
         0         0         0         0         0         0         0         0
         0         0         0         0         0         0         0         0
         0         0         0         0         0         0         0         0
         0         0         0         0         0         0         0         0
         0         0         0         0         0         0         0         0
         0         0         0         0         0         0         0         0
         0         0         0         0         0         0         0         0
         0         0         0         0         0         0         0         0
         0         0         0         0         0         0         0         0
         0         0         0         0         0         0         0         0
         0         0         0         0         0         0         0         0
         0         0         0         0         0         0         0         0
         0         0         0         0         0         0         0         0
         0         0         0         0         0         0         0         0
         0         0         0         0         0         0         0         0
         0         0         0         0         0         0         0         0
         0         0         0         0         0         0         0         0
         0         0         0         0         0         0         0         0
         0         0         0         0         0         0         0         0
         0         0         0         0         0         0         0         0
         0         0         0         0         0         0         0         0
         0         0         0         0         0         0         0         0
         0         0         0         0         0         0         0         0
         0         0         0         0         0         0         0         0
         0         0         0         0         0         0         0         0
         0         0         0         0         0         0         0         0
         0         0         0         0         0         0         0         0
         0         0         0         0         0         0         0         0
         0         0         0         0         0         0         0         0
         0         0         0         0         0         0         0         0
         0         0         0         0         0         0         0         0
         0         0         0         0         0         0         0         0
         0         0         0         0         0         0         0         0
         0         0         0         0         0         0         0         0
         0         0         0         0         0         0         0         0
         0         0         0         0         0         0         0         0
         0         0         0         0         0         0         0         0
         0         0         0         0         0         0         0         0
         0         0         0         0         0         0         0         0
         0         0         0         0         0         0         0         0
         0         0         0         0         0         0         0         0
         0         0         0         0         0         0         0         0
         0         0         0         0         0         0         0         0
         0         0         0         0         0         0         0         0
         0         0         0         0         0         0         0         0
         0         0         0         0         0         0         0         0
         0         0         0         0         0         0         0         0
         0         0         0         0         0         0         0         0
         0         0         0         0         0         0         0         0
         0         0         0         0         0         0         0         0
         0         0         0         0         0         0         0         0
         0         0         0         0         0         0         0         0
         0         0         0         0         0         0         0         0
         0         0         0         0         0         0         0         0
         0         0         0         0         0         0         0         0
         0         0         0         0         0         0         0         0
         0         0         0         0         0         0         0         0
         0         0         0         0         0         0         0         0
         0         0         0         0         0         0         0         0
         0         0         0         0         0         0         0         0
         0         0         0         0         0         0         0         0
         0         0         0         0         0         0         0         0
         0         0         0         0         0         0         0         0
         0         0         0         0         0         0         0         0
         0         0         0         0         0         0         0         0
         0         0         0         0         0         0         0         0
         0         0         0         0         0         0         0         0
         0         0         0         0         0         0         0         0
         0         0         0         0         0         0         0         0
         0         0         0         0         0         0         0         0
         0         0         0         0         0         0         0         0
         0         0         0         0         0         0         0         0
         0         0         0         0         0         0         0         0
         0         0         0         0         0         0         0         0
         0         0         0         0         0         0         0         0
         0         0         0         0         0         0         0         0
         0         0         0         0         0         0         0         0
         0         0         0         0         0         0         0         0
         0         0         0         0         0         0         0         0
         0         0         0         0         0         0         0         0
         0         0         0         0         0         0         0         0
         0         0         0         0         0         0         0         0
         0         0         0         0         0         0         0         0
         0         0         0         0         0         0         0         0
         0         0         0         0         0         0         0         0
         0         0         0         0         0         0         0         0
         0         0         0         0         0         0         0         0
         0         0         0         0         0         0         0         0
         0         0         0         0         0         0         0         0
         0         0         0         0         0         0         0         0
         0         0         0         0         0         0         0         0
         0         0         0         0         0         0         0         0
         0         0         0         0         0         0         0         0
         0         0         0         0         0         0         0         0
         0         0         0         0         0         0         0         0
         0         0         0         0         0         0         0         0
         0         0         0         0         0         0         0         0
         0         0         0         0         0         0         0         0
         0         0         0         0         0         0         0         0
         0         0         0         0         0         0         0         0
         0         0         0         0         0         0         0         0
         0         0         0         0         0         0         0         0
         0         0         0         0         0         0         0         0
         0         0         0         0         0         0         0         0
         0         0         0         0         0         0         0         0
         0         0         0         0         0         0         0         0
         0         0         0         0         0         0         0         0
         0         0         0         0         0         0         0         0
         0         0         0         0         0         0         0         0
         0         0         0         0         0         0         0         0
         0         0         0         0         0         0         0         0
         0         0         0         0         0         0         0         0
         0         0         0         0         0         0         0         0
         0         0         0         0         0         0         0         0
         0         0         0         0         0         0         0         0
         0         0         0         0         0         0         0         0
         0         0         0         0         0         0         0         0
         0         0         0         0         0         0         0         0
         0         0         0         0         0         0         0         0
         0         0         0         0         0         0         0         0
         0         0         0         0         0         0         0         0
         0         0         0         0         0         0         0         0
         0         0         0         0         0         0         0         0
         0         0         0         0         0         0         0         0
         0         0         0         0         0         0         0         0
         0         0         0         0         0         0         0         0
         0         0         0         0         0         0         0         0
         0         0         0         0         0         0         0         0
         0         0         0         0         0         0         0         0
         0         0         0         0         0         0         0         0
         0         0         0         0         0         0         0         0
         0         0         0         0         0         0         0         0
         0         0         0         0         0         0         0         0
         0         0         0         0         0         0         0         0
         0         0         0         0         0         0         0         0
         0         0         0         0         0         0         0         0
         0         0         0         0         0         0         0         0
         0         0         0         0         0         0         0         0
         0         0         0         0         0         0         0         0
         0         0         0         0         0         0         0         0
         0         0         0         0         0         0         0         0
         0         0         0         0         0         0         0         0
         0         0         0         0         0         0         0         0
         0         0         0         0         0         0         0         0
         0         0         0         0         0         0         0         0
         0         0         0         0         0         0         0         0
         0         0         0         0         0         0         0         0
         0         0         0         0         0         0         0         0
         0         0         0         0         0         0         0         0
         0         0         0         0         0         0         0         0
         0         0         0         0         0         0         0         0
         0         0         0         0         0         0         0         0
         0         0         0         0         0         0         0         0
         0         0         0         0         0         0         0         0
         0         0         0         0         0         0         0         0
         0         0         0         0         0         0         0         0
         0         0         0         0         0         0         0         0
         0         0         0         0         0         0         0         0
         0         0         0         0         0         0         0         0
         0         0         0         0         0         0         0         0
         0         0         0         0         0         0         0         0
         0         0         0         0         0         0         0         0
         0         0         0         0         0         0         0         0
         0         0         0         0         0         0         0         0
         0         0         0         0         0         0         0         0
         0         0         0         0         0         0         0         0
         0         0         0         0         0         0         0         0
         0         0         0         0         0         0         0         0
         0         0         0         0         0         0         0         0
         0         0         0         0         0         0         0         0
         0         0         0         0         0         0         0         0
         0         0         0         0         0         0         0         0
         0         0         0         0         0         0         0         0
         0         0         0         0         0         0         0         0
         0         0         0         0         0         0         0         0
         0         0         0         0         0         0         0         0
         0         0         0         0         0         0         0         0
         0         0         0         0         0         0         0         0
         0         0         0         0         0         0         0         0
         0         0         0         0         0         0         0         0
         0         0         0         0         0         0         0         0
         0         0         0         0         0         0         0         0
         0         0         0         0         0         0         0         0
         0         0         0         0         0         0         0         0
         0         0         0         0         0         0         0         0
         0         0         0         0         0         0         0         0
         0         0         0         0         0         0         0         0
         0         0         0         0         0         0         0         0
         0         0         0         0         0         0         0         0
         0         0         0         0         0         0         0         0
         0         0         0         0         0         0         0         0
         0         0         0         0         0         0         0         0
         0         0         0         0         0         0         0         0
         0         0         0         0         0         0         0         0
         0         0         0         0         0         0         0         0
         0         0         0         0         0         0         0         0
         0         0         0         0         0         0         0         0
         0         0         0         0         0         0         0         0
         0         0         0         0         0         0         0         0
         0         0         0         0         0         0         0         0
         0         0         0         0         0         0         0         0
         0         0         0         0         0         0         0         0
         0         0         0         0         0         0         0         0
         0         0         0         0         0         0         0         0
         0         0         0         0         0         0         0         0
         0         0         0         0         0         0         0         0
         0         0         0         0         0         0         0         0
         0         0         0         0         0         0         0         0
         0         0         0         0         0         0         0         0
         0         0         0         0         0         0         0         0
         0         0         0         0         0         0         0         0
         0         0         0         0         0         0         0         0
         0         0         0         0         0         0         0         0
         0         0         0         0         0         0         0         0
         0         0         0         0         0         0         0         0
         0         0         0         0         0         0         0         0
         0         0         0         0         0         0         0         0
         0         0         0         0         0         0         0         0
         0         0         0         0         0         0         0         0
         0         0         0         0         0         0         0         0
         0         0         0         0         0         0         0         0
         0         0         0         0         0         0         0         0
         0         0         0         0         0         0         0         0
         0         0         0         0         0         0         0         0
         0         0         0         0         0         0         0         0
         0         0         0         0         0         0         0         0
         0         0         0         0         0         0         0         0
         0         0         0         0         0         0         0         0
         0         0         0         0         0         0         0         0
         0         0         0         0         0         0         0         0
         0         0         0         0         0         0         0         0
         0         0         0         0         0         0         0         0
         0         0         0         0         0         0         0         0
         0         0         0         0         0         0         0         0
         0         0         0         0         0         0         0         0
         0         0         0         0         0         0         0         0
         0         0         0         0         0         0         0         0
         0         0         0         0         0         0         0         0
         0         0         0         0         0         0         0         0
         0         0         0         0         0         0         0         0
         0         0         0         0         0         0         0         0
         0         0         0         0         0         0         0         0
         0         0         0         0         0         0         0         0
         0         0         0         0         0         0         0         0
         0         0         0         0         0         0         0         0
         0         0         0         0         0         0         0         0
         0         0         0         0         0         0         0         0
         0         0         0         0         0         0         0         0
         0         0         0         0         0         0         0         0
         0         0         0         0         0         0         0         0
         0         0         0         0         0         0         0         0
         0         0         0         0         0         0         0         0
         0         0         0         0         0         0         0         0
         0         0         0         0         0         0         0         0
         0         0         0         0         0         0         0         0
         0         0         0         0         0         0         0         0
         0         0         0         0         0         0         0         0
         0         0         0         0         0         0         0         0
         0         0         0         0         0         0         0         0
         0         0         0         0         0         0         0         0
         0         0         0         0         0         0         0         0
         0         0         0         0         0         0         0         0
         0         0         0         0         0         0         0         0
         0         0         0         0         0         0         0         0
         0         0         0         0         0         0         0         0
         0         0         0         0         0         0         0         0
         0         0         0         0         0         0         0         0
         0         0         0         0         0         0         0         0
         0         0         0         0         0         0         0         0
         0         0         0         0         0         0         0         0
         0         0         0         0         0         0         0         0
         0         0         0         0         0         0         0         0
         0         0         0         0         0         0         0         0
         0         0         0         0         0         0         0         0
         0         0         0         0         0         0         0         0
         0         0         0         0         0         0         0         0
         0         0         0         0         0         0         0         0
         0         0         0         0         0         0         0         0
         0         0         0         0         0         0         0         0
         0         0         0         0         0         0         0         0
         0         0         0         0         0         0         0         0
         0         0         0         0         0         0         0         0
         0         0         0         0         0         0         0         0
         0         0         0         0         0         0         0         0
         0         0         0         0         0         0         0         0
         0         0         0         0         0         0         0         0
         0         0         0         0         0         0         0         0
         0         0         0         0         0         0         0         0
         0         0         0         0         0         0         0         0
         0         0         0         0         0         0         0         0
         0         0         0         0         0         0         0         0
         0         0         0         0         0         0         0         0
         0         0         0         0         0         0         0         0
         0         0         0         0         0         0         0         0
         0         0         0         0         0         0         0         0
         0         0         0         0         0         0         0         0
         0         0         0         0         0         0         0         0
         0         0         0         0         0         0         0         0
         0         0         0         0         0         0         0         0
         0         0         0         0         0         0         0         0
         0         0         0         0         0         0         0         0
         0         0         0         0         0         0         0         0
         0         0         0         0         0         0         0         0
         0         0         0         0         0         0         0         0
         0         0         0         0         0         0         0         0
         0         0         0         0         0         0         0         0
         0         0         0         0         0         0         0         0
         0         0         0         0         0         0         0         0
         0         0         0         0         0         0         0         0
         0         0         0         0         0         0         0         0
         0         0         0         0         0         0         0         0
         0         0         0         0         0         0         0         0
         0         0         0         0         0         0         0         0
         0         0         0         0         0         0         0         0
         0         0         0         0         0         0         0         0
         0         0         0         0         0         0         0         0
         0         0         0         0         0         0         0         0
         0         0         0         0         0         0         0         0
         0         0         0         0         0         0         0         0
         0         0         0         0         0         0         0         0
         0         0         0         0         0         0         0         0
         0         0         0         0         0         0         0         0
         0         0         0         0         0         0         0         0
         0         0         0         0         0         0         0         0
         0         0         0         0         0         0         0         0
         0         0         0         0         0         0         0         0
         0         0         0         0         0         0         0         0
         0         0         0         0         0         0         0         0
         0         0         0         0         0         0         0         0
         0         0         0         0         0         0         0         0
         0         0         0         0         0         0         0         0
         0         0         0         0         0         0         0         0
         0         0         0         0         0         0         0         0
         0         0         0         0         0         0         0         0
         0         0         0         0         0         0         0         0
         0         0         0         0         0         0         0         0
         0         0         0         0         0         0         0         0
         0         0         0         0         0         0         0         0
         0         0         0         0         0         0         0         0
         0         0         0         0         0         0         0         0
         0         0         0         0         0         0         0         0
         0         0         0         0         0         0         0         0
         0         0         0         0         0         0         0         0
         0         0         0         0         0         0         0         0
         0         0         0         0         0         0         0         0
         0         0         0         0         0         0         0         0
         0         0         0         0         0         0         0         0
         0         0         0         0         0         0         0         0
         0         0         0         0         0         0         0         0
         0         0         0         0         0         0         0         0
         0         0         0         0         0         0         0         0
         0         0         0         0         0         0         0         0
         0         0         0         0         0         0         0         0
         0         0         0         0         0         0         0         0
         0         0         0         0         0         0         0         0
         0         0         0         0         0         0         0         0
         0         0         0         0         0         0         0         0
         0         0         0         0         0         0         0         0
         0         0         0         0         0         0         0         0
         0         0         0         0         0         0         0         0
         0         0         0         0         0         0         0         0
         0         0         0         0         0         0         0         0
         0         0         0         0         0         0         0         0
         0         0         0         0         0         0         0         0
         0         0         0         0         0         0         0         0
         0         0         0         0         0         0         0         0
         0         0         0         0         0         0         0         0
         0         0         0         0         0         0         0         0
         0         0         0         0         0         0         0         0
         0         0         0         0         0         0         0         0
         0         0         0         0         0         0         0         0
         0         0         0         0         0         0         0         0
         0         0         0         0         0         0         0         0
         0         0         0         0         0         0         0         0
         0         0         0         0         0         0         0         0
         0         0         0         0         0         0         0         0
         0         0         0         0         0         0         0         0
         0         0         0         0         0         0         0         0
         0         0         0         0         0         0         0         0
         0         0         0         0         0         0         0         0
         0         0         0         0         0         0         0         0
         0         0         0         0         0         0         0         0
         0         0         0         0         0         0         0         0
         0         0         0         0         0         0         0         0
         0         0         0         0         0         0         0         0
         0         0         0         0         0         0         0         0
         0         0         0         0         0         0         0         0
         0         0         0         0         0         0         0         0
         0         0         0         0         0         0         0         0
         0         0         0         0         0         0         0         0
         0         0         0         0         0         0         0         0
         0         0         0         0         0         0         0         0
         0         0         0         0         0         0         0         0
         0         0         0         0         0         0         0         0
         0         0         0         0         0         0         0         0
         0         0         0         0         0         0         0         0
         0         0         0         0         0         0         0         0
         0         0         0         0         0         0         0         0
         0         0         0         0         0         0         0         0
         0         0         0         0         0         0         0         0
         0         0         0         0         0         0         0         0
         0         0         0         0         0         0         0         0
         0         0         0         0         0         0         0         0
         0         0         0         0         0         0         0         0
         0         0         0         0         0         0         0         0
         0         0         0         0         0         0         0         0
         0         0         0         0         0         0         0         0
         0         0         0         0         0         0         0         0
         0         0         0         0         0         0         0         0
         0         0         0         0         0         0         0         0
         0         0         0         0         0         0         0         0
         0         0         0         0         0         0         0         0
         0         0         0         0         0         0         0         0
         0         0         0         0         0         0         0         0
         0         0         0         0         0         0         0         0
         0         0         0         0         0         0         0         0
         0         0         0         0         0         0         0         0
         0         0         0         0         0         0         0         0
         0         0         0         0         0         0         0         0
         0         0         0         0         0         0         0         0
         0         0         0         0         0         0         0         0
         0         0         0         0         0         0         0         0
         0         0         0         0         0         0         0         0
         0         0         0         0         0         0         0         0
         0         0         0         0         0         0         0         0
         0         0         0         0         0         0         0         0
         0         0         0         0         0         0         0         0
         0         0         0         0         0         0         0         0
         0         0         0         0         0         0         0         0
         0         0         0         0         0         0         0         0
         0         0         0         0         0         0         0         0
         0         0         0         0         0         0         0         0
         0         0         0         0         0         0         0         0
         0         0         0         0         0         0         0         0
         0         0         0         0         0         0         0         0
         0         0         0         0         0         0         0         0
         0         0         0         0         0         0         0         0
         0         0         0         0         0         0         0         0
         0         0         0         0         0         0         0         0
         0         0         0         0         0         0         0         0
         0         0         0         0         0         0         0         0
         0         0         0         0         0         0         0         0
         0         0         0         0         0         0         0         0
         0         0         0         0         0         0         0         0
         0         0         0         0         0         0         0         0
         0         0         0         0         0         0         0         0
         0         0         0         0         0         0         0         0
         0         0         0         0         0         0         0         0
         0         0         0         0         0         0         0         0
         0         0         0         0         0         0         0         0
         0         0         0         0         0         0         0         0
         0         0         0         0         0         0         0         0
         0         0         0         0         0         0         0         0
         0         0         0         0         0         0         0         0
         0         0         0         0         0         0         0         0
         0         0         0         0         0         0         0         0
         0         0         0         0         0         0         0         0
         0         0         0         0         0         0         0         0
         0         0         0         0         0         0         0         0
         0         0         0         0         0         0         0         0
         0         0         0         0         0         0         0         0
         0         0         0         0         0         0         0         0
         0         0         0         0         0         0         0         0
         0         0         0         0         0         0         0         0
         0         0         0         0         0         0         0         0
         0         0         0         0         0         0         0         0
         0         0         0         0         0         0         0         0
         0         0         0         0         0         0         0         0
         0         0         0         0         0         0         0         0
         0         0         0         0         0         0         0         0
         0         0         0         0         0         0         0         0
         0         0         0         0         0         0         0         0
         0         0         0         0         0         0         0         0
         0         0         0         0         0         0         0         0
         0         0         0         0         0         0         0         0
         0         0         0         0         0         0         0         0
         0         0         0         0         0         0         0         0
         0         0         0         0         0         0         0         0
         0         0         0         0         0         0         0         0
         0         0         0         0         0         0         0         0
         0         0         0         0         0         0         0         0
         0         0         0         0         0         0         0         0
         0         0         0         0         0         0         0         0
         0         0         0         0         0         0         0         0
         0         0         0         0         0         0         0         0
         0         0         0         0         0         0         0         0
         0         0         0         0         0         0         0         0
         0         0         0         0         0         0         0         0
         0         0         0         0         0         0         0         0
         0         0         0         0         0         0         0         0
         0         0         0         0         0         0         0         0
         0         0         0         0         0         0         0         0
         0         0         0         0         0         0         0         0
         0         0         0         0         0         0         0         0
         0         0         0         0         0         0         0         0
         0         0         0         0         0         0         0         0
         0         0         0         0         0         0         0         0
         0         0         0         0         0         0         0         0
         0         0         0         0         0         0         0         0
         0         0         0         0         0         0         0         0
         0         0         0         0         0         0         0         0
         0         0         0         0         0         0         0         0
         0         0         0         0         0         0         0         0
         0         0         0         0         0         0         0         0
         0         0         0         0         0         0         0         0
         0         0         0         0         0         0         0         0
         0         0         0         0         0         0         0         0
         0         0         0         0         0         0         0         0
         0         0         0         0         0         0         0         0
         0         0         0         0         0         0         0         0
         0         0         0         0         0         0         0         0
         0         0         0         0         0         0         0         0
         0         0         0         0         0         0         0         0
         0         0         0         0         0         0         0         0
         0         0         0         0         0         0         0         0
         0         0         0         0         0         0         0         0
         0         0         0         0         0         0         0         0
         0         0         0         0         0         0         0         0
         0         0         0         0         0         0         0         0
         0         0         0         0         0         0         0         0
         0         0         0         0         0         0         0         0
         0         0         0         0         0         0         0         0
         0         0         0         0         0         0         0         0
         0         0         0         0         0         0         0         0
         0         0         0         0         0         0         0         0
         0         0         0         0         0         0         0         0
         0         0         0         0         0         0         0         0
         0         0         0         0         0         0         0         0
         0         0         0         0         0         0         0         0
         0         0         0         0         0         0         0         0
         0         0         0         0         0         0         0         0
         0         0         0         0         0         0         0         0
         0         0         0         0         0         0         0         0
         0         0         0         0         0         0         0         0
         0         0         0         0         0         0         0         0
         0         0         0         0         0         0         0         0
         0         0         0         0         0         0         0         0
         0         0         0         0         0         0         0         0
         0         0         0         0         0         0         0         0
         0         0         0         0         0         0         0         0
         0         0         0         0         0         0         0         0
         0         0         0         0         0         0         0         0
         0         0         0         0         0         0         0         0
         0         0         0         0         0         0         0         0
         0         0         0         0         0         0         0         0
         0         0         0         0         0         0         0         0
         0         0         0         0         0         0         0         0
         0         0         0         0         0         0         0         0
         0         0         0         0         0         0         0         0
         0         0         0         0         0         0         0         0
         0         0         0         0         0         0         0         0
         0         0         0         0         0         0         0         0
         0         0         0         0         0         0         0         0
         0         0         0         0         0         0         0         0
         0         0         0         0         0         0         0         0
         0         0         0         0         0         0         0         0
         0         0         0         0         0         0         0         0
         0         0         0         0         0         0         0         0
         0         0         0         0         0         0         0         0
         0         0         0         0         0         0         0         0
         0         0         0         0         0         0         0         0
         0         0         0         0         0         0         0         0
         0         0         0         0         0         0         0         0
         0         0         0         0         0         0         0         0
         0         0         0         0         0         0         0         0
         0         0         0         0         0         0         0         0
         0         0         0         0         0         0         0         0
         0         0         0         0         0         0         0         0
         0         0         0         0         0         0         0         0
         0         0         0         0         0         0         0         0
         0         0         0         0         0         0         0         0
         0         0         0         0         0         0         0         0
         0         0         0         0         0         0         0         0
         0         0         0         0         0         0         0         0
         0         0         0         0         0         0         0         0
         0         0         0         0         0         0         0         0
         0         0         0         0         0         0         0         0
         0         0         0         0         0         0         0         0
         0         0         0         0         0         0         0         0
         0         0         0         0         0         0         0         0
         0         0         0         0         0         0         0         0
         0         0         0         0         0         0         0         0
         0         0         0         0         0         0         0         0
         0         0         0         0         0         0         0         0
         0         0         0         0         0         0         0         0
         0         0         0         0         0         0         0         0
         0         0         0         0         0         0         0         0
         0         0         0         0         0         0         0         0
         0         0         0         0         0         0         0         0
         0         0         0         0         0         0         0         0
         0         0         0         0         0         0         0         0
         0         0         0         0         0         0         0         0
         0         0         0         0         0         0         0         0
         0         0         0         0         0         0         0         0
         0         0         0         0         0         0         0         0
         0         0         0         0         0         0         0         0
         0         0         0         0         0         0         0         0
         0         0         0         0         0         0         0         0
         0         0         0         0         0         0         0         0
         0         0         0         0         0         0         0         0
         0         0         0         0         0         0         0         0
         0         0         0         0         0         0         0         0
         0         0         0         0         0         0         0         0
         0         0         0         0         0         0         0         0
         0         0         0         0         0         0         0         0
         0         0         0         0         0         0         0         0
         0         0         0         0         0         0         0         0
         0         0         0         0         0         0         0         0
         0         0         0         0         0         0         0         0
         0         0         0         0         0         0         0         0
         0         0         0         0         0         0         0         0
         0         0         0         0         0         0         0         0
         0         0         0         0         0         0         0         0
         0         0         0         0         0         0         0         0
         0         0         0         0         0         0         0         0
         0         0         0         0         0         0         0         0
         0         0         0         0         0         0         0         0
         0         0         0         0         0         0         0         0
         0         0         0         0         0         0         0         0
         0         0         0         0         0         0         0         0
         0         0         0         0         0         0         0         0
         0         0         0         0         0         0         0         0
         0         0         0         0         0         0         0         0
         0         0         0         0         0         0         0         0
         0         0         0         0         0         0         0         0
         0         0         0         0         0         0         0         0
         0         0         0         0         0         0         0         0
         0         0         0         0         0         0         0         0
         0         0         0         0         0         0         0         0
         0         0         0         0         0         0         0         0
         0         0         0         0         0         0         0         0
         0         0         0         0         0         0         0         0
         0         0         0         0         0         0         0         0
         0         0         0         0         0         0         0         0
         0         0         0         0         0         0         0         0
         0         0         0         0         0         0         0         0
         0         0         0         0         0         0         0         0
         0         0         0         0         0         0         0         0
         0         0         0         0         0         0         0         0
         0         0         0         0         0         0         0         0
         0         0         0         0         0         0         0         0
         0         0         0         0         0         0         0         0
         0         0         0         0         0         0         0         0
         0         0         0         0         0         0         0         0
         0         0         0         0         0         0         0         0
         0         0         0         0         0         0         0         0
         0         0         0         0         0         0         0         0
         0         0         0         0         0         0         0         0
         0         0         0         0         0         0         0         0
         0         0         0         0         0         0         0         0
         0         0         0         0         0         0         0         0
         0         0         0         0         0         0         0         0
         0         0         0         0         0         0         0         0
         0         0         0         0         0         0         0         0
         0         0         0         0         0         0         0         0
         0         0         0         0         0         0         0         0
         0         0         0         0         0         0         0         0
         0         0         0         0         0         0         0         0
         0         0         0         0         0         0         0         0
         0         0         0         0         0         0         0         0
         0         0         0         0         0         0         0         0
         0         0         0         0         0         0         0         0
         0         0         0         0         0         0         0         0
         0         0         0         0         0         0         0         0
         0         0         0         0         0         0         0         0
         0         0         0         0         0         0         0         0
         0         0         0         0         0         0         0         0
         0         0         0         0         0         0         0         0
         0         0         0         0         0         0         0         0
         0         0         0         0         0         0         0         0
         0         0         0         0         0         0         0         0
         0         0         0         0         0         0         0         0
         0         0         0         0         0         0         0         0
         0         0         0         0         0         0         0         0
         0         0         0         0         0         0         0         0
         0         0         0         0         0         0         0         0
         0         0         0         0         0         0         0         0
         0         0         0         0         0         0         0         0
         0         0         0         0         0         0         0         0
         0         0         0         0         0         0         0         0
         0         0         0         0         0         0         0         0
         0         0         0         0         0         0         0         0
         0         0         0         0         0         0         0         0
         0         0         0         0         0         0         0         0
         0         0         0         0         0         0         0         0
         0         0         0         0         0         0         0         0
         0         0         0         0         0         0         0         0
         0         0         0         0         0         0         0         0
         0         0         0         0         0         0         0         0
         0         0         0         0         0         0         0         0
         0         0         0         0         0         0         0         0
         0         0         0         0         0         0         0         0
         0         0         0         0         0         0         0         0
         0         0         0         0         0         0         0         0
         0         0         0         0         0         0         0         0
         0         0         0         0         0         0         0         0
         0         0         0         0         0         0         0         0
         0         0         0         0         0         0         0         0
         0         0         0         0         0         0         0         0
         0         0         0         0         0         0         0         0
         0         0         0         0         0         0         0         0
         0         0         0         0         0         0         0         0
         0         0         0         0         0         0         0         0
         0         0         0         0         0         0         0         0
         0         0         0         0         0         0         0         0
         0         0         0         0         0         0         0         0
         0         0         0         0         0         0         0         0
         0         0         0         0         0         0         0         0
         0         0         0         0         0         0         0         0
         0         0         0         0         0         0         0         0
         0         0         0         0         0         0         0         0
         0         0         0         0         0         0         0         0
         0         0         0         0         0         0         0         0
         0         0         0         0         0         0         0         0
         0         0         0         0         0         0         0         0
         0         0         0         0         0         0         0         0
         0         0         0         0         0         0         0         0
         0         0         0         0         0         0         0         0
         0         0         0         0         0         0         0         0
         0         0         0         0         0         0         0         0
         0         0         0         0         0         0         0         0
         0         0         0         0         0         0         0         0
         0         0         0         0         0         0         0         0
         0         0         0         0         0         0         0         0
         0         0         0         0         0         0         0         0
         0         0         0         0         0         0         0         0
         0         0         0         0         0         0         0         0
         0         0         0         0         0         0         0         0
         0         0         0         0         0         0         0         0
         0         0         0         0         0         0         0         0
         0         0         0         0         0         0         0         0
         0         0         0         0         0         0         0         0
         0         0         0         0         0         0         0         0
         0         0         0         0         0         0         0         0
         0         0         0         0         0         0         0         0
         0         0         0         0         0         0         0         0
         0         0         0         0         0         0         0         0
         0         0         0         0         0         0         0         0
         0         0         0         0         0         0         0         0
         0         0         0         0         0         0         0         0
         0         0         0         0         0         0         0         0
         0         0         0         0         0         0         0         0
         0         0         0         0         0         0         0         0
         0         0         0         0         0         0         0         0
         0         0         0         0         0         0         0         0
         0         0         0         0         0         0         0         0
         0         0         0         0         0         0         0         0
         0         0         0         0         0         0         0         0
         0         0         0         0         0         0         0         0
         0         0         0         0         0         0         0         0
         0         0         0         0         0         0         0         0
         0         0         0         0         0         0         0         0
         0         0         0         0         0         0         0         0
         0         0         0         0         0         0         0         0
         0         0         0         0         0         0         0         0
         0         0         0         0         0         0         0         0
         0         0         0         0         0         0         0         0
         0         0         0         0         0         0         0         0
         0         0         0         0         0         0         0         0
         0         0         0         0         0         0         0         0
         0         0         0         0         0         0         0         0
         0         0         0         0         0         0         0         0
         0         0         0         0         0         0         0         0
         0         0         0         0         0         0         0         0
         0         0         0         0         0         0         0         0
         0         0         0         0         0         0         0         0
         0         0         0         0         0         0         0         0
         0         0         0         0         0         0         0         0
         0         0         0         0         0         0         0         0
         0         0         0         0         0         0         0         0
         0         0         0         0         0         0         0         0
         0         0         0         0         0         0         0         0
         0         0         0         0         0         0         0         0
         0         0         0         0         0         0         0         0
         0         0         0         0         0         0         0         0
         0         0         0         0         0         0         0         0
         0         0         0         0         0         0         0         0
         0         0         0         0         0         0         0         0
         0         0         0         0         0         0         0         0
         0         0         0         0         0         0         0         0
         0         0         0         0         0         0         0         0
         0         0         0         0         0         0         0         0
         0         0         0         0         0         0         0         0
         0         0         0         0         0         0         0         0
         0         0         0         0         0         0         0         0
         0         0         0         0         0         0         0         0
         0         0         0         0         0         0         0         0
         0         0         0         0         0         0         0         0
         0         0         0         0         0         0         0         0
         0         0         0         0         0         0         0         0
         0         0         0         0         0         0         0         0
         0         0         0         0         0         0         0         0
         0         0         0         0         0         0         0         0
         0         0         0         0         0         0         0         0
         0         0         0         0         0         0         0         0
         0         0         0         0         0         0         0         0
         0         0         0         0         0         0         0         0
         0         0         0         0         0         0         0         0
         0         0         0         0         0         0         0         0
         0         0         0         0         0         0         0         0
         0         0         0         0         0         0         0         0
         0         0         0         0         0         0         0         0
         0         0         0         0         0         0         0         0
         0         0         0         0         0         0         0         0
         0         0         0         0         0         0         0         0
         0         0         0         0         0         0         0         0
         0         0         0         0         0         0         0         0
         0         0         0         0         0         0         0         0
         0         0         0         0         0         0         0         0
         0         0         0         0         0         0         0         0
         0         0         0         0         0         0         0         0
         0         0         0         0         0         0         0         0
         0         0         0         0         0         0         0         0
         0         0         0         0         0         0         0         0
         0         0         0         0         0         0         0         0
         0         0         0         0         0         0         0         0
         0         0         0         0         0         0         0         0
         0         0         0         0         0         0         0         0
         0         0         0         0         0         0         0         0
         0         0         0         0         0         0         0         0
         0         0         0         0         0         0         0         0
         0         0         0         0         0         0         0         0
         0         0         0         0         0         0         0         0
         0         0         0         0         0         0         0         0
         0         0         0         0         0         0         0         0
         0         0         0         0         0         0         0         0
         0         0         0         0         0         0         0         0
         0         0         0         0         0         0         0         0
         0         0         0         0         0         0         0         0
         0         0         0         0         0         0         0         0
         0         0         0         0         0         0         0         0
         0         0         0         0         0         0         0         0
         0         0         0         0         0         0         0         0
         0         0         0         0         0         0         0         0
         0         0         0         0         0         0         0         0
         0         0         0         0         0         0         0         0
         0         0         0         0         0         0         0         0
         0         0         0         0         0         0         0         0
         0         0         0         0         0         0         0         0
         0         0         0         0         0         0         0         0
         0         0         0         0         0         0         0         0
         0         0         0         0         0         0         0         0
         0         0         0         0         0         0         0         0
         0         0         0         0         0         0         0         0
         0         0         0         0         0         0         0         0
         0         0         0         0         0         0         0         0
         0         0         0         0         0         0         0         0
         0         0         0         0         0         0         0         0
         0         0         0         0         0         0         0         0
         0         0         0         0         0         0         0         0
         0         0         0         0         0         0         0         0
         0         0         0         0         0         0         0         0
         0         0         0         0         0         0         0         0
         0         0         0         0         0         0         0         0
         0         0         0         0         0         0         0         0
         0         0         0         0         0         0         0         0
         0         0         0         0         0         0         0         0
         0         0         0         0         0         0         0         0
         0         0         0         0         0         0         0         0
         0         0         0         0         0         0         0         0
         0         0         0         0         0         0         0         0
         0         0         0         0         0         0         0         0
         0         0         0         0         0         0         0         0
         0         0         0         0         0         0         0         0
         0         0         0         0         0         0         0         0
         0         0         0         0         0         0         0         0
         0         0         0         0         0         0         0         0
         0         0         0         0         0         0         0         0
         0         0         0         0         0         0         0         0
         0         0         0         0         0         0         0         0
         0         0         0         0         0         0         0         0
         0         0         0         0         0         0         0         0
         0         0         0         0         0         0         0         0
         0         0         0         0         0         0         0         0
         0         0         0         0         0         0         0         0
         0         0         0         0         0         0         0         0
         0         0         0         0         0         0         0         0
         0         0         0         0         0         0         0         0
         0         0         0         0         0         0         0         0
         0         0         0         0         0         0         0         0
         0         0         0         0         0         0         0         0
         0         0         0         0         0         0         0         0
         0         0         0         0         0         0         0         0
         0         0         0         0         0         0         0         0
         0         0         0         0         0         0         0         0
         0         0         0         0         0         0         0         0
         0         0         0         0         0         0         0         0
         0         0         0         0         0         0         0         0
         0         0         0         0         0         0         0         0
         0         0         0         0         0         0         0         0
         0         0         0         0         0         0         0         0
         0         0         0         0         0         0         0         0
         0         0         0         0         0         0         0         0
         0         0         0         0         0         0         0         0
         0         0         0         0         0         0         0         0
         0         0         0         0         0         0         0         0
         0         0         0         0         0         0         0         0
         0         0         0         0         0         0         0         0
         0         0         0         0         0         0         0         0
         0         0         0         0         0         0         0         0
         0         0         0         0         0         0         0         0
         0         0         0         0         0         0         0         0
         0         0         0         0         0         0         0         0
         0         0         0         0         0         0         0         0
         0         0         0         0         0         0         0         0
         0         0         0         0         0         0         0         0
         0         0         0         0         0         0         0         0
         0         0         0         0         0         0         0         0
         0         0         0         0         0         0         0         0
         0         0         0         0         0         0         0         0
         0         0         0         0         0         0         0         0
         0         0         0         0         0         0         0         0
         0         0         0         0         0         0         0         0
         0         0         0         0         0         0         0         0
         0         0         0         0         0         0         0         0
         0         0         0         0         0         0         0         0
         0         0         0         0         0         0         0         0
         0         0         0         0         0         0         0         0
         0         0         0         0         0         0         0         0
         0         0         0         0         0         0         0         0
         0         0         0         0         0         0         0         0
         0         0         0         0         0         0         0         0
         0         0         0         0         0         0         0         0
         0         0         0         0         0         0         0         0
         0         0         0         0         0         0         0         0
         0         0         0         0         0         0         0         0
         0         0         0         0         0         0         0         0
         0         0         0         0         0         0         0         0
         0         0         0         0         0         0         0         0
         0         0         0         0         0         0         0         0
         0         0         0         0         0         0         0         0
         0         0         0         0         0         0         0         0
         0         0         0         0         0         0         0         0
         0         0         0         0         0         0         0         0
         0         0         0         0         0         0         0         0
         0         0         0         0         0         0         0         0
         0         0         0         0         0         0         0         0
         0         0         0         0         0         0         0         0
         0         0         0         0         0         0         0         0
         0         0         0         0         0         0         0         0
         0         0         0         0         0         0         0         0
         0         0         0         0         0         0         0         0
         0         0         0         0         0         0         0         0
         0         0         0         0         0         0         0         0
         0         0         0         0         0         0         0         0
         0         0         0         0         0         0         0         0
         0         0         0         0         0         0         0         0
         0         0         0         0         0         0         0         0
         0         0         0         0         0         0         0         0
         0         0         0         0         0         0         0         0
         0         0         0         0         0         0         0         0
         0         0         0         0         0         0         0         0
         0         0         0         0         0         0         0         0
         0         0         0         0         0         0         0         0
         0         0         0         0         0         0         0         0
         0         0         0         0         0         0         0         0
         0         0         0         0         0         0         0         0
         0         0         0         0         0         0         0         0
         0         0         0         0         0         0         0         0
         0         0         0         0         0         0         0         0
         0         0         0         0         0         0         0         0
         0         0         0         0         0         0         0         0
         0         0         0         0         0         0         0         0
         0         0         0         0         0         0         0         0
         0         0         0         0         0         0         0         0
         0         0         0         0         0         0         0         0
         0         0         0         0         0         0         0         0
         0         0         0         0         0         0         0         0
         0         0         0         0         0         0         0         0
         0         0         0         0         0         0         0         0
         0         0         0         0         0         0         0         0
         0         0         0         0         0         0         0         0
         0         0         0         0         0         0         0         0
         0         0         0         0         0         0         0         0
         0         0         0         0         0         0         0         0
         0         0         0         0         0         0         0         0
         0         0         0         0         0         0         0         0
         0         0         0         0         0         0         0         0
         0         0         0         0         0         0         0         0
         0         0         0         0         0         0         0         0
         0         0         0         0         0         0         0         0
         0         0         0         0         0         0         0         0
         0         0         0         0         0         0         0         0
         0         0         0         0         0         0         0         0
         0         0         0         0         0         0         0         0
         0         0         0         0         0         0         0         0
         0         0         0         0         0         0         0         0
         0         0         0         0         0         0         0         0
         0         0         0         0         0         0         0         0
         0         0         0         0         0         0         0         0
         0         0         0         0         0         0         0         0
         0         0         0         0         0         0         0         0
         0         0         0         0         0         0         0         0
         0         0         0         0         0         0         0         0
         0         0         0         0         0         0         0         0
         0         0         0         0         0         0         0         0
         0         0         0         0         0         0         0         0
         0         0         0         0         0         0         0         0
         0         0         0         0         0         0         0         0
         0         0         0         0         0         0         0         0
         0         0         0         0         0         0         0         0
         0         0         0         0         0         0         0         0
         0         0         0         0         0         0         0         0
         0         0         0         0         0         0         0         0
         0         0         0         0         0         0         0         0
         0         0         0         0         0         0         0         0
         0         0         0         0         0         0         0         0
         0         0         0         0         0         0         0         0
         0         0         0         0         0         0         0         0
         0         0         0         0         0         0         0         0
         0         0         0         0         0         0         0         0
         0         0         0         0         0         0         0         0
         0         0         0         0         0         0         0         0
         0         0         0         0         0         0         0         0
         0         0         0         0         0         0         0         0
         0         0         0         0         0         0         0         0
         0         0         0         0         0         0         0         0
         0         0         0         0         0         0         0         0
         0         0         0         0         0         0         0         0
         0         0         0         0         0         0         0         0
         0         0         0         0         0         0         0         0
         0         0         0         0         0         0         0         0
         0         0         0         0         0         0         0         0
         0         0         0         0         0         0         0         0
         0         0         0         0         0         0         0         0
         0         0         0         0         0         0         0         0
         0         0         0         0         0         0         0         0
         0         0         0         0         0         0         0         0
         0         0         0         0         0         0         0         0
         0         0         0         0         0         0         0         0
         0         0         0         0         0         0         0         0
         0         0         0         0         0         0         0         0
         0         0         0         0         0         0         0         0
         0         0         0         0         0         0         0         0
         0         0         0         0         0         0         0         0
         0         0         0         0         0         0         0         0
         0         0         0         0         0         0         0         0
         0         0         0         0         0         0         0         0
         0         0         0         0         0         0         0         0
         0         0         0         0         0         0         0         0
         0         0         0         0         0         0         0         0
         0         0         0         0         0         0         0         0
         0         0         0         0         0         0         0         0
         0         0         0         0         0         0         0         0
         0         0         0         0         0         0         0         0
         0         0         0         0         0         0         0         0
         0         0         0         0         0         0         0         0
         0         0         0         0         0         0         0         0
         0         0         0         0         0         0         0         0
         0         0         0         0         0         0         0         0
         0         0         0         0         0         0         0         0
         0         0         0         0         0         0         0         0
         0         0         0         0         0         0         0         0
         0         0         0         0         0         0         0         0
         0         0         0         0         0         0         0         0
         0         0         0         0         0         0         0         0
         0         0         0         0         0         0         0         0
         0         0         0         0         0         0         0         0
         0         0         0         0         0         0         0         0
         0         0         0         0         0         0         0         0
         0         0         0         0         0         0         0         0
         0         0         0         0         0         0         0         0
         0         0         0         0         0         0         0         0
         0         0         0         0         0         0         0         0
         0         0         0         0         0         0         0         0
         0         0         0         0         0         0         0         0
         0         0         0         0         0         0         0         0
         0         0         0         0         0         0         0         0
         0         0         0         0         0         0         0         0
         0         0         0         0         0         0         0         0
         0         0         0         0         0         0         0         0
         0         0         0         0         0         0         0         0
         0         0         0         0         0         0         0         0
         0         0         0         0         0         0         0         0
         0         0         0         0         0         0         0         0
         0         0         0         0         0         0         0         0
         0         0         0         0         0         0         0         0
         0         0         0         0         0         0         0         0
         0         0         0         0         0         0         0         0
         0         0         0         0         0         0         0         0
         0         0         0         0         0         0         0         0
         0         0         0         0         0         0         0         0
         0         0         0         0         0         0         0         0
         0         0         0         0         0         0         0         0
         0         0         0         0         0         0         0         0
         0         0         0         0         0         0         0         0
         0         0         0         0         0         0         0         0
         0         0         0         0         0         0         0         0
         0         0         0         0         0         0         0         0
         0         0         0         0         0         0         0         0
         0         0         0         0         0         0         0         0
         0         0         0         0         0         0         0         0
         0         0         0         0         0         0         0         0
         0         0         0         0         0         0         0         0
         0         0         0         0         0         0         0         0
         0         0         0         0         0         0         0         0
         0         0         0         0         0         0         0         0
         0         0         0         0         0         0         0         0
         0         0         0         0         0         0         0         0
         0         0         0         0         0         0         0         0
         0         0         0         0         0         0         0         0
         0         0         0         0         0         0         0         0
         0         0         0         0         0         0         0         0
         0         0         0         0         0         0         0         0
         0         0         0         0         0         0         0         0
         0         0         0         0         0         0         0         0
         0         0         0         0         0         0         0         0
         0         0         0         0         0         0         0         0
         0         0         0         0         0         0         0         0
         0         0         0         0         0         0         0         0
         0         0         0         0         0         0         0         0
         0         0         0         0         0         0         0         0
         0         0         0         0         0         0         0         0
         0         0         0         0         0         0         0         0
         0         0         0         0         0         0         0         0
         0         0         0         0         0         0         0         0
         0         0         0         0         0         0         0         0
         0         0         0         0         0         0         0         0
         0         0         0         0         0         0         0         0
         0         0         0         0         0         0         0         0
         0         0         0         0         0         0         0         0
         0         0         0         0         0         0         0         0
         0         0         0         0         0         0         0         0
         0         0         0         0         0         0         0         0
         0         0         0         0         0         0         0         0
         0         0         0         0         0         0         0         0
         0         0         0         0         0         0         0         0
         0         0         0         0         0         0         0         0
         0         0         0         0         0         0         0         0
         0         0         0         0         0         0         0         0
         0         0         0         0         0         0         0         0
         0         0         0         0         0         0         0         0
         0         0         0         0         0         0         0         0
         0         0         0         0         0         0         0         0
         0         0         0         0         0         0         0         0
         0         0         0         0         0         0         0         0
         0         0         0         0         0         0         0         0
         0         0         0         0         0         0         0         0
         0         0         0         0         0         0         0         0
         0         0         0         0         0         0         0         0
         0         0         0         0         0         0         0         0
         0         0         0         0         0         0         0         0
         0         0         0         0         0         0         0         0
         0         0         0         0         0         0         0         0
         0         0         0         0         0         0         0         0
         0         0         0         0         0         0         0         0
         0         0         0         0         0         0         0         0
         0         0         0         0         0         0         0         0
         0         0         0         0         0         0         0         0
         0         0         0         0         0         0         0         0
         0         0         0         0         0         0         0         0
         0         0         0         0         0         0         0         0
         0         0         0         0         0         0         0         0
         0         0         0         0         0         0         0         0
         0         0         0         0         0         0         0         0
         0         0         0         0         0         0         0         0
         0         0         0         0         0         0         0         0
         0         0         0         0         0         0         0         0
         0         0         0         0         0         0         0         0
         0         0         0         0         0         0         0         0
         0         0         0         0         0         0         0         0
         0         0         0         0         0         0         0         0
         0         0         0         0         0         0         0         0
         0         0         0         0         0         0         0         0
         0         0         0         0         0         0         0         0
         0         0         0         0         0         0         0         0
         0         0         0         0         0         0         0         0
         0         0         0         0         0         0         0         0
         0         0         0         0         0         0         0         0
         0         0         0         0         0         0         0         0
         0         0         0         0         0         0         0         0
         0         0         0         0         0         0         0         0
         0         0         0         0         0         0         0         0
         0         0         0         0         0         0         0         0
         0         0         0         0         0         0         0         0
         0         0         0         0         0         0         0         0
         0         0         0         0         0         0         0         0
         0         0         0         0         0         0         0         0
         0         0         0         0         0         0         0         0
         0         0         0         0         0         0         0         0
         0         0         0         0         0         0         0         0
         0         0         0         0         0         0         0         0
         0         0         0         0         0         0         0         0
         0         0         0         0         0         0         0         0
         0         0         0         0         0         0         0         0
         0         0         0         0         0         0         0         0
         0         0         0         0         0         0         0         0
         0         0         0         0         0         0         0         0
         0         0         0         0         0         0         0         0
         0         0         0         0         0         0         0         0
         0         0         0         0         0         0         0         0
         0         0         0         0         0         0         0         0
         0         0         0         0         0         0         0         0
         0         0         0         0         0         0         0         0
         0         0         0         0         0         0         0         0
         0         0         0         0         0         0         0         0
         0         0         0         0         0         0         0         0
         0         0         0         0         0         0         0         0
         0         0         0         0         0         0         0         0
         0         0         0         0         0         0         0         0
         0         0         0         0         0         0         0         0
         0         0         0         0         0         0         0         0
         0         0         0         0         0         0         0         0
         0         0         0         0         0         0         0         0
         0         0         0         0         0         0         0         0
         0         0         0         0         0         0         0         0
         0         0         0         0         0         0         0         0
         0         0         0         0         0         0         0         0
         0         0         0         0         0         0         0         0
         0         0         0         0         0         0         0         0
         0         0         0         0         0         0         0         0
         0         0         0         0         0         0         0         0
         0         0         0         0         0         0         0         0
         0         0         0         0         0         0         0         0
         0         0         0         0         0         0         0         0
         0         0         0         0         0         0         0         0
         0         0         0         0         0         0         0         0
         0         0         0         0         0         0         0         0
         0         0         0         0         0         0         0         0
         0         0         0         0         0         0         0         0
         0         0         0         0         0         0         0         0
         0         0         0         0         0         0         0         0
         0         0         0         0         0         0         0         0
         0         0         0         0         0         0         0         0
         0         0         0         0         0         0         0         0
         0         0         0         0         0         0         0         0
         0         0         0         0         0         0         0         0
         0         0         0         0         0         0         0         0
         0         0         0         0         0         0         0         0
         0         0         0         0         0         0         0         0
         0         0         0         0         0         0         0         0
         0         0         0         0         0         0         0         0
         0         0         0         0         0         0         0         0
         0         0         0         0         0         0         0         0
         0         0         0         0         0         0         0         0
         0         0         0         0         0         0         0         0
         0         0         0         0         0         0         0         0
         0         0         0         0         0         0         0         0
         0         0         0         0         0         0         0         0
         0         0         0         0         0         0         0         0
         0         0         0         0         0         0         0         0
         0         0         0         0         0         0         0         0
         0         0         0         0         0         0         0         0
         0         0         0         0         0         0         0         0
         0         0         0         0         0         0         0         0
         0         0         0         0         0         0         0         0
         0         0         0         0         0         0         0         0
         0         0         0         0         0         0         0         0
         0         0         0         0         0         0         0         0
         0         0         0         0         0         0         0         0
         0         0         0         0         0         0         0         0
         0         0         0         0         0         0         0         0
         0         0         0         0         0         0         0         0
         0         0         0         0         0         0         0         0
         0         0         0         0         0         0         0         0
         0         0         0         0         0         0         0         0
         0         0         0         0         0         0         0         0
         0         0         0         0         0         0         0         0
         0         0         0         0         0         0         0         0
         0         0         0         0         0         0         0         0
         0         0         0         0         0         0         0         0
         0         0         0         0         0         0         0         0
         0         0         0         0         0         0         0         0
         0         0         0         0         0         0         0         0
         0         0         0         0         0         0         0         0
         0         0         0         0         0         0         0         0
         0         0         0         0         0         0         0         0
         0         0         0         0         0         0         0         0
         0         0         0         0         0         0         0         0
         0         0         0         0         0         0         0         0
         0         0         0         0         0         0         0         0
         0         0         0         0         0         0         0         0
         0         0         0         0         0         0         0         0
         0         0         0         0         0         0         0         0
         0         0         0         0         0         0         0         0
         0         0         0         0         0         0         0         0
         0         0         0         0         0         0         0         0
         0         0         0         0         0         0         0         0
         0         0         0         0         0         0         0         0
         0         0         0         0         0         0         0         0
         0         0         0         0         0         0         0         0
         0         0         0         0         0         0         0         0
         0         0         0         0         0         0         0         0
         0         0         0         0         0         0         0         0
         0         0         0         0         0         0         0         0
         0         0         0         0         0         0         0         0
         0         0         0         0         0         0         0         0
         0         0         0         0         0         0         0         0
         0         0         0         0         0         0         0         0
         0         0         0         0         0         0         0         0
         0         0         0         0         0         0         0         0
         0         0         0         0         0         0         0         0
         0         0         0         0         0         0         0         0
         0         0         0         0         0         0         0         0
         0         0         0         0         0         0         0         0
         0         0         0         0         0         0         0         0
         0         0         0         0         0         0         0         0
         0         0         0         0         0         0         0         0
         0         0         0         0         0         0         0         0
         0         0         0         0         0         0         0         0
         0         0         0         0         0         0         0         0
         0         0         0         0         0         0         0         0
         0         0         0         0         0         0         0         0
         0         0         0         0         0         0         0         0
         0         0         0         0         0         0         0         0
         0         0         0         0         0         0         0         0
         0         0         0         0         0         0         0         0
         0         0         0         0         0         0         0         0
         0         0         0         0         0         0         0         0
         0         0         0         0         0         0         0         0
         0         0         0         0         0         0         0         0
         0         0         0         0         0         0         0         0
         0         0         0         0         0         0         0         0
         0         0         0         0         0         0         0         0
         0         0         0         0         0         0         0         0
         0         0         0         0         0         0         0         0
         0         0         0         0         0         0         0         0
         0         0         0         0         0         0         0         0
         0         0         0         0         0         0         0         0
         0         0         0         0         0         0         0         0
         0         0         0         0         0         0         0         0
         0         0         0         0         0         0         0         0
         0         0         0         0         0         0         0         0
         0         0         0         0         0         0         0         0
         0         0         0         0         0         0         0         0
         0         0         0         0         0         0         0         0
         0         0         0         0         0         0         0         0
         0         0         0         0         0         0         0         0
         0         0         0         0         0         0         0         0
         0         0         0         0         0         0         0         0
         0         0         0         0         0         0         0         0
         0         0         0         0         0         0         0         0
         0         0         0         0         0         0         0         0
         0         0         0         0         0         0         0         0
         0         0         0         0         0         0         0         0
         0         0         0         0         0         0         0         0
         0         0         0         0         0         0         0         0
         0         0         0         0         0         0         0         0
         0         0         0         0         0         0         0         0
         0         0         0         0         0         0         0         0
         0         0         0         0         0         0         0         0
         0         0         0         0         0         0         0         0
         0         0         0         0         0         0         0         0
         0         0         0         0         0         0         0         0
         0         0         0         0         0         0         0         0
         0         0         0         0         0         0         0         0
         0         0         0         0         0         0         0         0
         0         0         0         0         0         0         0         0
         0         0         0         0         0         0         0         0
         0         0         0         0         0         0         0         0
         0         0         0         0         0         0         0         0
         0         0         0         0         0         0         0         0
         0         0         0         0         0         0         0         0
         0         0         0         0         0         0         0         0
         0         0         0         0         0         0         0         0
         0         0         0         0         0         0         0         0
         0         0         0         0         0         0         0         0
         0         0         0         0         0         0         0         0
         0         0         0         0         0         0         0         0
         0         0         0         0         0         0         0         0
         0         0         0         0         0         0         0         0
         0         0         0         0         0         0         0         0
         0         0         0         0         0         0         0         0
         0         0         0         0         0         0         0         0
         0         0         0         0         0         0         0         0
         0         0         0         0         0         0         0         0
         0         0         0         0         0         0         0         0
         0         0         0         0         0         0         0         0
         0         0         0         0         0         0         0         0
         0         0         0         0         0         0         0         0
         0         0         0         0         0         0         0         0
         0         0         0         0         0         0         0         0
         0         0         0         0         0         0         0         0
         0         0         0         0         0         0         0         0
         0         0         0         0         0         0         0         0
         0         0         0         0         0         0         0         0
         0         0         0         0         0         0         0         0
         0         0         0         0         0         0         0         0
         0         0         0         0         0         0         0         0
         0         0         0         0         0         0         0         0
         0         0         0         0         0         0         0         0
         0         0         0         0         0         0         0         0
         0         0         0         0         0         0         0         0
         0         0         0         0         0         0         0         0
         0         0         0         0         0         0         0         0
         0         0         0         0         0         0         0         0
         0         0         0         0         0         0         0         0
         0         0         0         0         0         0         0         0
         0         0         0         0         0         0         0         0
         0         0         0         0         0         0         0         0
         0         0         0         0         0         0         0         0
         0         0         0         0         0         0         0         0
         0         0         0         0         0         0         0         0
         0         0         0         0         0         0         0         0
         0         0         0         0         0         0         0         0
         0         0         0         0         0         0         0         0
         0         0         0         0         0         0         0         0
         0         0         0         0         0         0         0         0
         0         0         0         0         0         0         0         0
         0         0         0         0         0         0         0         0
         0         0         0         0         0         0         0         0
         0         0         0         0         0         0         0         0
         0         0         0         0         0         0         0         0
         0         0         0         0         0         0         0         0
         0         0         0         0         0         0         0         0
         0         0         0         0         0         0         0         0
         0         0         0         0         0         0         0         0
         0         0         0         0         0         0         0         0
         0         0         0         0         0         0         0         0
         0         0         0         0         0         0         0         0
         0         0         0         0         0         0         0         0
         0         0         0         0         0         0         0         0
         0         0         0         0         0         0         0         0
         0         0         0         0         0         0         0         0
         0         0         0         0         0         0         0         0
         0         0         0         0         0         0         0         0
         0         0         0         0         0         0         0         0
         0         0         0         0         0         0         0         0
         0         0         0         0         0         0         0         0
         0         0         0         0         0         0         0         0
         0         0         0         0         0         0         0         0
         0         0         0         0         0         0         0         0
         0         0         0         0         0         0         0         0
         0         0         0         0         0         0         0         0
         0         0         0         0         0         0         0         0
         0         0         0         0         0         0         0         0
         0         0         0         0         0         0         0         0
         0         0         0         0         0         0         0         0
         0         0         0         0         0         0         0         0
         0         0         0         0         0         0         0         0
         0         0         0         0         0         0         0         0
         0         0         0         0         0         0         0         0
         0         0         0         0         0         0         0         0
         0         0         0         0         0         0         0         0
         0         0         0         0         0         0         0         0
         0         0         0         0         0         0         0         0
         0         0         0         0         0         0         0         0
         0         0         0         0         0         0         0         0
         0         0         0         0         0         0         0         0
         0         0         0         0         0         0         0         0
         0         0         0         0         0         0         0         0
         0         0         0         0         0         0         0         0
         0         0         0         0         0         0         0         0
         0         0         0         0         0         0         0         0
         0         0         0         0         0         0         0         0
         0         0         0         0         0         0         0         0
         0         0         0         0         0         0         0         0
         0         0         0         0         0         0         0         0
         0         0         0         0         0         0         0         0
         0         0         0         0         0         0         0         0
         0         0         0         0         0         0         0         0
         0         0         0         0         0         0         0         0
         0         0         0         0         0         0         0         0
         0         0         0         0         0         0         0         0
         0         0         0         0         0         0         0         0
         0         0         0         0         0         0         0         0
         0         0         0         0         0         0         0         0
         0         0         0         0         0         0         0         0
         0         0         0         0         0         0         0         0
         0         0         0         0         0         0         0         0
         0         0         0         0         0         0         0         0
         0         0         0         0         0         0         0         0
         0         0         0         0         0         0         0         0
         0         0         0         0         0         0         0         0
         0         0         0         0         0         0         0         0
         0         0         0         0         0         0         0         0
         0         0         0         0         0         0         0         0
         0         0         0         0         0         0         0         0
         0         0         0         0         0         0         0         0
         0         0         0         0         0         0         0         0
         0         0         0         0         0         0         0         0
         0         0         0         0         0         0         0         0
         0         0         0         0         0         0         0         0
         0         0         0         0         0         0         0         0
         0         0         0         0         0         0         0         0
         0         0         0         0         0         0         0         0
         0         0         0         0         0         0         0         0
         0         0         0         0         0         0         0         0
         0         0         0         0         0         0         0         0
         0         0         0         0         0         0         0         0
         0         0         0         0         0         0         0         0
         0         0         0         0         0         0         0         0
         0         0         0         0         0         0         0         0
         0         0         0         0         0         0         0         0
         0         0         0         0         0         0         0         0
         0         0         0         0         0         0         0         0
         0         0         0         0         0         0         0         0
         0         0         0         0         0         0         0         0
         0         0         0         0         0         0         0         0
         0         0         0         0         0         0         0         0
         0         0         0         0         0         0         0         0
         0         0         0         0         0         0         0         0
         0         0         0         0         0         0         0         0
         0         0         0         0         0         0         0         0
         0         0         0         0         0         0         0         0
         0         0         0         0         0         0         0         0
         0         0         0         0         0         0         0         0
         0         0         0         0         0         0         0         0
         0         0         0         0         0         0         0         0
         0         0         0         0         0         0         0         0
         0         0         0         0         0         0         0         0
         0         0         0         0         0         0         0         0
         0         0         0         0         0         0         0         0
         0         0         0         0         0         0         0         0
         0         0         0         0         0         0         0         0
         0         0         0         0         0         0         0         0
         0         0         0         0         0         0         0         0
         0         0         0         0         0         0         0         0
         0         0         0         0         0         0         0         0
         0         0         0         0         0         0         0         0
         0         0         0         0         0         0         0         0
         0         0         0         0         0         0         0         0
         0         0         0         0         0         0         0         0
         0         0         0         0         0         0         0         0
         0         0         0         0         0         0         0         0
         0         0         0         0         0         0         0         0
         0         0         0         0         0         0         0         0
         0         0         0         0         0         0         0         0
         0         0         0         0         0         0         0         0
         0         0         0         0         0         0         0         0
         0         0         0         0         0         0         0         0
         0         0         0         0         0         0         0         0
         0         0         0         0         0         0         0         0
         0         0         0         0         0         0         0         0
         0         0         0         0         0         0         0         0
         0         0         0         0         0         0         0         0
         0         0         0         0         0         0         0         0
         0         0         0         0         0         0         0         0
         0         0         0         0         0         0         0         0
         0         0         0         0         0         0         0         0
         0         0         0         0         0         0         0         0
         0         0         0         0         0         0         0         0
         0         0         0         0         0         0         0         0
         0         0         0         0         0         0         0         0
         0         0         0         0         0         0         0         0
         0         0         0         0         0         0         0         0
         0         0         0         0         0         0         0         0
         0         0         0         0         0         0         0         0
         0         0         0         0         0         0         0         0
         0         0         0         0         0         0         0         0
         0         0         0         0         0         0         0         0
         0         0         0         0         0         0         0         0
         0         0         0         0         0         0         0         0
         0         0         0         0         0         0         0         0
         0         0         0         0         0         0         0         0
         0         0         0         0         0         0         0         0
         0         0         0         0         0         0         0         0
         0         0         0         0         0         0         0         0
         0         0         0         0         0         0         0         0
         0         0         0         0         0         0         0         0
         0         0         0         0         0         0         0         0
         0         0         0         0         0         0         0         0
         0         0         0         0         0         0         0         0
         0         0         0         0         0         0         0         0
         0         0         0         0         0         0         0         0
         0         0         0         0         0         0         0         0
         0         0         0         0         0         0         0         0
         0         0         0         0         0         0         0         0
         0         0         0         0         0         0         0         0
         0         0         0         0         0         0         0         0
         0         0         0         0         0         0         0         0
         0         0         0         0         0         0         0         0
         0         0         0         0         0         0         0         0
         0         0         0         0         0         0         0         0
         0         0         0         0         0         0         0         0
         0         0         0         0         0         0         0         0
         0         0         0         0         0         0         0         0
         0         0         0         0         0         0         0         0
         0         0         0         0         0         0         0         0
         0         0         0         0         0         0         0         0
         0         0         0         0         0         0         0         0
         0         0         0         0         0         0         0         0
         0         0         0         0         0         0         0         0
         0         0         0         0         0         0         0         0
         0         0         0         0         0         0         0         0
         0         0         0         0         0         0         0         0
         0         0         0         0         0         0         0         0
         0         0         0         0         0         0         0         0
         0         0         0         0         0         0         0         0
         0         0         0         0         0         0         0         0
         0         0         0         0         0         0         0         0
         0         0         0         0         0         0         0         0
         0         0         0         0         0         0         0         0
         0         0         0         0         0         0         0         0
         0         0         0         0         0         0         0         0
         0         0         0         0         0         0         0         0
         0         0         0         0         0         0         0         0
         0         0         0         0         0         0         0         0
         0         0         0         0         0         0         0         0
         0         0         0         0         0         0         0         0
         0         0         0         0         0         0         0         0
         0         0         0         0         0         0         0         0
         0         0         0         0         0         0         0         0
         0         0         0         0         0         0         0         0
         0         0         0         0         0         0         0         0
         0         0         0         0         0         0         0         0
         0         0         0         0         0         0         0         0
         0         0         0         0         0         0         0         0
         0         0         0         0         0         0         0         0
         0         0         0         0         0         0         0         0
         0         0         0         0         0         0         0         0
         0         0         0         0         0         0         0         0
         0         0         0         0         0         0         0         0
         0         0         0         0         0         0         0         0
         0         0         0         0         0         0         0         0
         0         0         0         0         0         0         0         0
         0         0         0         0         0         0         0         0
         0         0         0         0         0         0         0         0
         0         0         0         0         0         0         0         0
         0         0         0         0         0         0         0         0
         0         0         0         0         0         0         0         0
         0         0         0         0         0         0         0         0
         0         0         0         0         0         0         0         0
         0         0         0         0         0         0         0         0
         0         0         0         0         0         0         0         0
         0         0         0         0         0         0         0         0
         0         0         0         0         0         0         0         0
         0         0         0         0         0         0         0         0
         0         0         0         0         0         0         0         0
         0         0         0         0         0         0         0         0
         0         0         0         0         0         0         0         0
         0         0         0         0         0         0         0         0
         0         0         0         0         0         0         0         0
         0         0         0         0         0         0         0         0
         0         0         0         0         0         0         0         0

      1100         0 !NGRP NST2
         0         2         0        20         2         0        40         2         0
        60         2         0        80         2         0       100         2         0
       120         2         0       140         2         0       160         2         0
       180         2         0       200         2         0       220         2         0
       240         2         0       260         2         0       280         2         0
       300         2         0       320         2         0       340         2         0
       360         2         0       380         2         0       400         2         0
       420         2         0       440         2         0       460         2         0
       480         2         0       500         2         0       520         2         0
       540         2         0       560         2         0       580         2         0
       600         2         0       620         2         0       640         2         0
       660         2         0       680         2         0       700         2         0
       720         2         0       740         2         0       760         2         0
       780         2         0       800         2         0       820         2         0
       840         2         0       860         2         0       880         2         0
       900         2         0       920         2         0       940         2         0
       960         2         0       980         2         0      1000         2         0
      1020         2         0      1040         2         0      1060         2         0
      1080         2         0      1100         2         0      1120         2         0
      1140         2         0      1160         2         0      1180         2         0
      1200         2         0      1220         2         0      1240         2         0
      1260         2         0      1280         2         0      1300         2         0
      1320         2         0      1340         2         0      1360         2         0
      1380         2         0      1400         2         0      1420         2         0
      1440         2         0      1460         2         0      1480         2         0
      1500         2         0      1520         2         0      1540         2         0
      1560         2         0      1580         2         0      1600         2         0
      1620         2         0      1640         2         0      1660         2         0
      1680         2         0      1700         2         0      1720         2         0
      1740         2         0      1760         2         0      1780         2         0
      1800         2         0      1820         2         0      1840         2         0
      1860         2         0      1880         2         0      1900         2         0
      1920         2         0      1940         2         0      1960         2         0
      1980         2         0      2000         2         0      2020         2         0
      2040         2         0      2060         2         0      2080         2         0
      2100         2         0      2120         2         0      2140         2         0
      2160         2         0      2180         2         0      2200         2         0
      2220         2         0      2240         2         0      2260         2         0
      2280         2         0      2300         2         0      2320         2         0
      2340         2         0      2360         2         0      2380         2         0
      2400         2         0      2420         2         0      2440         2         0
      2460         2         0      2480         2         0      2500         2         0
      2520         2         0      2540         2         0      2560         2         0
      2580         2         0      2600         2         0      2620         2         0
      2640         2         0      2660         2         0      2680         2         0
      2700         2         0      2720         2         0      2740         2         0
      2760         2         0      2780         2         0      2800         2         0
      2820         2         0      2840         2         0      2860         2         0
      2880         2         0      2900         2         0      2920         2         0
      2940         2         0      2960         2         0      2980         2         0
      3000         2         0      3020         2         0      3040         2         0
      3060         2         0      3080         2         0      3100         2         0
      3120         2         0      3140         2         0      3160         2         0
      3180         2         0      3200         2         0      3220         2         0
      3240         2         0      3260         2         0      3280         2         0
      3300         2         0      3320         2         0      3340         2         0
      3360         2         0      3380         2         0      3400         2         0
      3420         2         0      3440         2         0      3460         2         0
      3480         2         0      3500         2         0      3520         2         0
      3540         2         0      3560         2         0      3580         2         0
      3600         2         0      3620         2         0      3640         2         0
      3660         2         0      3680         2         0      3700         2         0
      3720         2         0      3740         2         0      3760         2         0
      3780         2         0      3800         2         0      3820         2         0
      3840         2         0      3860         2         0      3880         2         0
      3900         2         0      3920         2         0      3940         2         0
      3960         2         0      3980         2         0      4000         2         0
      4020         2         0      4040         2         0      4060         2         0
      4080         2         0      4100         2         0      4120         2         0
      4140         2         0      4160         2         0      4180         2         0
      4200         2         0      4220         2         0      4240         2         0
      4260         2         0      4280         2         0      4300         2         0
      4320         2         0      4340         2         0      4360         2         0
      4380         2         0      4400         2         0      4420         2         0
      4440         2         0      4460         2         0      4480         2         0
      4500         2         0      4520         2         0      4540         2         0
      4560         2         0      4580         2         0      4600         2         0
      4620         2         0      4640         2         0      4660         2         0
      4680         2         0      4700         2         0      4720         2         0
      4740         2         0      4760         2         0      4780         2         0
      4800         2         0      4820         2         0      4840         2         0
      4860         2         0      4880         2         0      4900         2         0
      4920         2         0      4940         2         0      4960         2         0
      4980         2         0      5000         2         0      5020         2         0
      5040         2         0      5060         2         0      5080         2         0
      5100         2         0      5120         2         0      5140         2         0
      5160         2         0      5180         2         0      5200         2         0
      5220         2         0      5240         2         0      5260         2         0
      5280         2         0      5300         2         0      5320         2         0
      5340         2         0      5360         2         0      5380         2         0
      5400         2         0      5420         2         0      5440         2         0
      5460         2         0      5480         2         0      5500         2         0
      5520         2         0      5540         2         0      5560         2         0
      5580         2         0      5600         2         0      5620         2         0
      5640         2         0      5660         2         0      5680         2         0
      5700         2         0      5720         2         0      5740         2         0
      5760         2         0      5780         2         0      5800         2         0
      5820         2         0      5840         2         0      5860         2         0
      5880         2         0      5900         2         0      5920         2         0
      5940         2         0      5960         2         0      5980         2         0
      6000         2         0      6020         2         0      6040         2         0
      6060         2         0      6080         2         0      6100         2         0
      6120         2         0      6140         2         0      6160         2         0
      6180         2         0      6200         2         0      6220         2         0
      6240         2         0      6260         2         0      6280         2         0
      6300         2         0      6320         2         0      6340         2         0
      6360         2         0      6380         2         0      6400         2         0
      6420         2         0      6440         2         0      6460         2         0
      6480         2         0      6500         2         0      6520         2         0
      6540         2         0      6560         2         0      6580         2         0
      6600         2         0      6620         2         0      6640         2         0
      6660         2         0      6680         2         0      6700         2         0
      6720         2         0      6740         2         0      6760         2         0
      6780         2         0      6800         2         0      6820         2         0
      6840         2         0      6860         2         0      6880         2         0
      6900         2         0      6920         2         0      6940         2         0
      6960         2         0      6980         2         0      7000         2         0
      7020         2         0      7040         2         0      7060         2         0
      7080         2         0      7100         2         0      7120         2         0
      7140         2         0      7160         2         0      7180         2         0
      7200         2         0      7220         2         0      7240         2         0
      7260         2         0      7280         2         0      7300         2         0
      7320         2         0      7340         2         0      7360         2         0
      7380         2         0      7400         2         0      7420         2         0
      7440         2         0      7460         2         0      7480         2         0
      7500         2         0      7520         2         0      7540         2         0
      7560         2         0      7580         2         0      7600         2         0
      7620         2         0      7640         2         0      7660         2         0
      7680         2         0      7700         2         0      7720         2         0
      7740         2         0      7760         2         0      7780         2         0
      7800         2         0      7820         2         0      7840         2         0
      7860         2         0      7880         2         0      7900         2         0
      7920         2         0      7940         2         0      7960         2         0
      7980         2         0      8000         2         0      8020         2         0
      8040         2         0      8060         2         0      8080         2         0
      8100         2         0      8120         2         0      8140         2         0
      8160         2         0      8180         2         0      8200         2         0
      8220         2         0      8240         2         0      8260         2         0
      8280         2         0      8300         2         0      8320         2         0
      8340         2         0      8360         2         0      8380         2         0
      8400         2         0      8420         2         0      8440         2         0
      8460         2         0      8480         2         0      8500         2         0
      8520         2         0      8540         2         0      8560         2         0
      8580         2         0      8600         2         0      8620         2         0
      8640         2         0      8660         2         0      8680         2         0
      8700         2         0      8720         2         0      8740         2         0
      8760         2         0      8780         2         0      8800         2         0
      8820         2         0      8840         2         0      8860         2         0
      8880         2         0      8900         2         0      8920         2         0
      8940         2         0      8960         2         0      8980         2         0
      9000         2         0      9020         2         0      9040         2         0
      9060         2         0      9080         2         0      9100         2         0
      9120         2         0      9140         2         0      9160         2         0
      9180         2         0      9200         2         0      9220         2         0
      9240         2         0      9260         2         0      9280         2         0
      9300         2         0      9320         2         0      9340         2         0
      9360         2         0      9380         2         0      9400         2         0
      9420         2         0      9440         2         0      9460         2         0
      9480         2         0      9500         2         0      9520         2         0
      9540         2         0      9560         2         0      9580         2         0
      9600         2         0      9620         2         0      9640         2         0
      9660         2         0      9680         2         0      9700         2         0
      9720         2         0      9740         2         0      9760         2         0
      9780         2         0      9800         2         0      9820         2         0
      9840         2         0      9860         2         0      9880         2         0
      9900         2         0      9920         2         0      9940         2         0
      9960         2         0      9980         2         0     10000         2         0
     10012         2         0     10024         2         0     10036         2         0
     10048         2         0     10060         2         0     10072         2         0
     10084         2         0     10096         2         0     10108         2         0
     10120         2         0     10132         2         0     10144         2         0
     10156         2         0     10168         2         0     10180         2         0
     10192         2         0     10204         2         0     10216         2         0
     10228         2         0     10240         2         0     10252         2         0
     10264         2         0     10276         2         0     10288         2         0
     10300         2         0     10312         2         0     10324         2         0
     10336         2         0     10348         2         0     10360         2         0
     10372         2         0     10384         2         0     10396         2         0
     10408         2         0     10420         2         0     10432         2         0
     10444         2         0     10456         2         0     10468         2         0
     10480         2         0     10492         2         0     10504         2         0
     10516         2         0     10528         2         0     10540         2         0
     10552         2         0     10564         2         0     10576         2         0
     10588         2         0     10600         2         0     10612         2         0
     10624         2         0     10636         2         0     10648         2         0
     10660         2         0     10672         2         0     10684         2         0
     10696         2         0     10708         2         0     10720         2         0
     10732         2         0     10744         2         0     10756         2         0
     10768         2         0     10780         2         0     10792         2         0
     10804         2         0     10816         2         0     10828         2         0
     10840         2         0     10852         2         0     10864         2         0
     10876         2         0     10888         2         0     10900         2         0
     10912         2         0     10924         2         0     10936         2         0
     10948         2         0     10960         2         0     10972         2         0
     10984         2         0     10996         2         0     11008         2         0
     11020         2         0     11032         2         0     11044         2         0
     11056         2         0     11068         2         0     11080         2         0
     11092         2         0     11104         2         0     11116         2         0
     11128         2         0     11140         2         0     11152         2         0
     11164         2         0     11176         2         0     11188         2         0
     11200         2         0     11212         2         0     11224         2         0
     11236         2         0     11248         2         0     11260         2         0
     11272         2         0     11284         2         0     11296         2         0
     11308         2         0     11320         2         0     11332         2         0
     11344         2         0     11356         2         0     11368         2         0
     11380         2         0     11392         2         0     11404         2         0
     11416         2         0     11428         2         0     11440         2         0
     11452         2         0     11464         2         0     11476         2         0
     11488         2         0     11500         2         0     11512         2         0
     11524         2         0     11536         2         0     11548         2         0
     11560         2         0     11572         2         0     11584         2         0
     11596         2         0     11608         2         0     11620         2         0
     11632         2         0     11644         2         0     11656         2         0
     11668         2         0     11680         2         0     11692         2         0
     11704         2         0     11716         2         0     11728         2         0
     11740         2         0     11752         2         0     11764         2         0
     11776         2         0     11788         2         0     11800         2         0
     11812         2         0     11824         2         0     11836         2         0
     11848         2         0     11860         2         0     11872         2         0
     11884         2         0     11896         2         0     11908         2         0
     11920         2         0     11932         2         0     11944         2         0
     11956         2         0     11968         2         0     11980         2         0
     11992         2         0     12004         2         0     12016         2         0
     12028         2         0     12040         2         0     12052         2         0
     12064         2         0     12076         2         0     12088         2         0
     12100         2         0     12112         2         0     12124         2         0
     12136         2         0     12148         2         0     12160         2         0
     12172         2         0     12184         2         0     12196         2         0
     12208         2         0     12220         2         0     12232         2         0
     12244         2         0     12256         2         0     12268         2         0
     12280         2         0     12292         2         0     12304         2         0
     12316         2         0     12328         2         0     12340         2         0
     12352         2         0     12364         2         0     12376         2         0
     12388         2         0     12400         2         0     12412         2         0
     12424         2         0     12436         2         0     12448         2         0
     12460         2         0     12472         2         0     12484         2         0
     12496         2         0     12508         2         0     12520         2         0
     12532         2         0     12544         2         0     12556         2         0
     12568         2         0     12580         2         0     12592         2         0
     12604         2         0     12616         2         0     12628         2         0
     12640         2         0     12652         2         0     12664         2         0
     12676         2         0     12688         2         0     12700         2         0
     12712         2         0     12724         2         0     12736         2         0
     12748         2         0     12760         2         0     12772         2         0
     12784         2         0     12796         2         0     12808         2         0
     12820         2         0     12832         2         0     12844         2         0
     12856         2         0     12868         2         0     12880         2         0
     12892         2         0     12904         2         0     12916         2         0
     12928         2         0     12940         2         0     12952         2         0
     12964         2         0     12976         2         0     12988         2         0
     13000         2         0     13012         2         0     13024         2         0
     13036         2         0     13048         2         0     13060         2         0
     13072         2         0     13084         2         0     13096         2         0
     13108         2         0     13120         2         0     13132         2         0
     13144         2         0     13156         2         0     13168         2         0
     13180         2         0     13192         2         0     13204         2         0
     13216         2         0     13228         2         0     13240         2         0
     13252         2         0     13264         2         0     13276         2         0
     13288         2         0     13300         2         0     13312         2         0
     13324         2         0     13336         2         0     13348         2         0
     13360         2         0     13372         2         0     13384         2         0
     13396         2         0     13408         2         0     13420         2         0
     13432         2         0     13444         2         0     13456         2         0
     13468         2         0     13480         2         0     13492         2         0
     13504         2         0     13516         2         0     13528         2         0
     13540         2         0     13552         2         0     13564         2         0
     13576         2         0     13588         2         0     13600         2         0
     13612         2         0     13624         2         0     13636         2         0
     13648         2         0     13660         2         0     13672         2         0
     13684         2         0     13696         2         0     13708         2         0
     13720         2         0     13732         2         0     13744         2         0
     13756         2         0     13768         2         0     13780         2         0
     13792         2         0     13804         2         0     13816         2         0
     13828         2         0     13840         2         0     13852         2         0
     13864         2         0     13876         2         0     13888         2         0
     13900         2         0     13912         2         0     13924         2         0
     13936         2         0     13948         2         0     13960         2         0
     13972         2         0     13984         2         0     13996         2         0
     14008         2         0     14020         2         0     14032         2         0
     14044         2         0     14056         2         0     14068         2         0
     14080         2         0     14092         2         0     14104         2         0
     14116         2         0     14128         2         0     14140         2         0
     14152         2         0     14164         2         0     14176         2         0
     14188         2         0     14200         2         0     14212         2         0
     14224         2         0     14236         2         0     14248         2         0
     14260         2         0     14272         2         0     14284         2         0
     14296         2         0     14308         2         0     14320         2         0
     14332         2         0     14344         2         0     14356         2         0
     14368         2         0     14380         2         0     14392         2         0
     14404         2         0     14416         2         0     14428         2         0
     14440         2         0     14452         2         0     14464         2         0
     14476         2         0     14488         2         0     14500         2         0
     14512         2         0     14524         2         0     14536         2         0
     14548         2         0     14560         2         0     14572         2         0
     14584         2         0     14596         2         0     14608         2         0
     14620         2         0     14632         2         0     14644         2         0
     14656         2         0     14668         2         0     14680         2         0
     14692         2         0     14704         2         0     14716         2         0
     14728         2         0     14740         2         0     14752         2         0
     14764         2         0     14776         2         0     14788         2         0
     14800         2         0     14812         2         0     14824         2         0
     14836         2         0     14848         2         0     14860         2         0
     14872         2         0     14884         2         0     14896         2         0
     14908         2         0     14920         2         0     14932         2         0
     14944         2         0     14956         2         0     14968         2         0
     14980         2         0     14992         2         0     15004         2         0
     15016         2         0     15028         2         0     15040         2         0
     15052         2         0     15064         2         0     15076         2         0
     15088         2         0     15100         2         0     15112         2         0
     15124         2         0     15136         2         0     15148         2         0
     15160         2         0     15172         2         0     15184         2         0
     15196         2         0     15208         2         0     15220         2         0
     15232         2         0     15244         2         0     15256         2         0
     15268         2         0     15280         2         0     15292         2         0
     15304         2         0     15316         2         0     15328         2         0
     15340         2         0     15352         2         0     15364         2         0
     15376         2         0     15388         2         0     15400         2         0
     15412         2         0     15424         2         0     15436         2         0
     15448         2         0     15460         2         0     15472         2         0
     15484         2         0     15496         2         0     15508         2         0
     15520         2         0     15532         2         0     15544         2         0
     15556         2         0     15568         2         0     15580         2         0
     15592         2         0     15604         2         0     15616         2         0
     15628         2         0     15640         2         0     15652         2         0
     15664         2         0     15676         2         0     15688         2         0
     15700         2         0     15712         2         0     15724         2         0
     15736         2         0     15748         2         0     15760         2         0
     15772         2         0     15784         2         0     15796         2         0
     15808         2         0     15820         2         0     15832         2         0
     15844         2         0     15856         2         0     15868         2         0
     15880         2         0     15892         2         0     15904         2         0
     15916         2         0     15928         2         0     15940         2         0
     15952         2         0     15964         2         0     15976         2         0
     15988         2         0     16000         1         0     16020         1         0
     16040         1         0     16060         1         0     16080         1         0
     16100         1         0     16120         1         0     16140         1         0
     16160         1         0     16180         1         0     16200         1         0
     16220         1         0     16240         1         0     16260         1         0
     16280         1         0     16300         1         0     16320         1         0
     16340         1         0     16360         1         0     16380         1         0
     16400         1         0     16420         1         0     16440         1         0
     16460         1         0     16480         1         0     16500         1         0
     16520         1         0     16540         1         0     16560         1         0
     16580         1         0     16600         1         0     16620         1         0
     16640         1         0     16660         1         0     16680         1         0
     16700         1         0     16720         1         0     16740         1         0
     16760         1         0     16780         1         0     16800         1         0
     16820         1         0     16840         1         0     16860         1         0
     16880         1         0     16900         1         0     16920         1         0
     16940         1         0     16960         1         0     16980         1         0
     17000         1         0     17012         1         0     17024         1         0
     17036         1         0     17048         1         0     17060         1         0
     17072         1         0     17084         1         0     17096         1         0
     17108         1         0     17120         1         0     17132         1         0
     17144         1         0     17156         1         0     17168         1         0
     17180         1         0     17192         1         0     17204         1         0
     17216         1         0     17228         1         0     17240         1         0
     17252         1         0     17264         1         0     17276         1         0
     17288         1         0     17300         1         0     17312         1         0
     17324         1         0     17336         1         0     17348         1         0
     17360         1         0     17372         1         0     17384         1         0
     17396         1         0     17408         1         0     17420         1         0
     17432         1         0     17444         1         0     17456         1         0
     17468         1         0     17480         1         0     17492         1         0
     17504         1         0     17516         1         0     17528         1         0
     17540         1         0     17552         1         0     17564         1         0
     17576         1         0     17588         1         0

         1 !MOLNT
         1         1         1         1         1         1         1         1
         1         1         1         1         1         1         1         1
         1         1         1         1         1         1         1         1
         1         1         1         1         1         1         1         1
         1         1         1         1         1         1         1         1
         1         1         1         1         1         1         1         1
         1         1         1         1         1         1         1         1
         1         1         1         1         1         1         1         1
         1         1         1         1         1         1         1         1
         1         1         1         1         1         1         1         1
         1         1         1         1         1         1         1         1
         1         1         1         1         1         1         1         1
         1         1         1         1         1         1         1         1
         1         1         1         1         1         1         1         1
         1         1         1         1         1         1         1         1
         1         1         1         1         1         1         1         1
         1         1         1         1         1         1         1         1
         1         1         1         1         1         1         1         1
         1         1         1         1         1         1         1         1
         1         1         1         1         1         1         1         1
         1         1         1         1         1         1         1         1
         1         1         1         1         1         1         1         1
         1         1         1         1         1         1         1         1
         1         1         1         1         1         1         1         1
         1         1         1         1         1         1         1         1
         1         1         1         1         1         1         1         1
         1         1         1         1         1         1         1         1
         1         1         1         1         1         1         1         1
         1         1         1         1         1         1         1         1
         1         1         1         1         1         1         1         1
         1         1         1         1         1         1         1         1
         1         1         1         1         1         1         1         1
         1         1         1         1         1         1         1         1
         1         1         1         1         1         1         1         1
         1         1         1         1         1         1         1         1
         1         1         1         1         1         1         1         1
         1         1         1         1         1         1         1         1
         1         1         1         1         1         1         1         1
         1         1         1         1         1         1         1         1
         1         1         1         1         1         1         1         1
         1         1         1         1         1         1         1         1
         1         1         1         1         1         1         1         1
         1         1         1         1         1         1         1         1
         1         1         1         1         1         1         1         1
         1         1         1         1         1         1         1         1
         1         1         1         1         1         1         1         1
         1         1         1         1         1         1         1         1
         1         1         1         1         1         1         1         1
         1         1         1         1         1         1         1         1
         1         1         1         1         1         1         1         1
         1         1         1         1         1         1         1         1
         1         1         1         1         1         1         1         1
         1         1         1         1         1         1         1         1
         1         1         1         1         1         1         1         1
         1         1         1         1         1         1         1         1
         1         1         1         1         1         1         1         1
         1         1         1         1         1         1         1         1
         1         1         1         1         1         1         1         1
         1         1         1         1         1         1         1         1
         1         1         1         1         1         1         1         1
         1         1         1         1         1         1         1         1
         1         1         1         1         1         1         1         1
         1         1         1         1         1         1         1         1
         1         1         1         1         1         1         1         1
         1         1         1         1         1         1         1         1
         1         1         1         1         1         1         1         1
         1         1         1         1         1         1         1         1
         1         1         1         1         1         1         1         1
         1         1         1         1         1         1         1         1
         1         1         1         1         1         1         1         1
         1         1         1         1         1         1         1         1
         1         1         1         1         1         1         1         1
         1         1         1         1         1         1         1         1
         1         1         1         1         1         1         1         1
         1         1         1         1         1         1         1         1
         1         1         1         1         1         1         1         1
         1         1         1         1         1         1         1         1
         1         1         1         1         1         1         1         1
         1         1         1         1         1         1         1         1
         1         1         1         1         1         1         1         1
         1         1         1         1         1         1         1         1
         1         1         1         1         1         1         1         1
         1         1         1         1         1         1         1         1
         1         1         1         1         1         1         1         1
         1         1         1         1         1         1         1         1
         1         1         1         1         1         1         1         1
         1         1         1         1         1         1         1         1
         1         1         1         1         1         1         1         1
         1         1         1         1         1         1         1         1
         1         1         1         1         1         1         1         1
         1         1         1         1         1         1         1         1
         1         1         1         1         1         1         1         1
         1         1         1         1         1         1         1         1
         1         1         1         1         1         1         1         1
         1         1         1         1         1         1         1         1
         1         1         1         1         1         1         1         1
         1         1         1         1         1         1         1         1
         1         1         1         1         1         1         1         1
         1         1         1         1         1         1         1         1
         1         1         1         1         1         1         1         1
         1         1         1         1         1         1         1         1
         1         1         1         1         1         1         1         1
         1         1         1         1         1         1         1         1
         1         1         1         1         1         1         1         1
         1         1         1         1         1         1         1         1
         1         1         1         1         1         1         1         1
         1         1         1         1         1         1         1         1
         1         1         1         1         1         1         1         1
         1         1         1         1         1         1         1         1
         1         1         1         1         1         1         1         1
         1         1         1         1         1         1         1         1
         1         1         1         1         1         1         1         1
         1         1         1         1         1         1         1         1
         1         1         1         1         1         1         1         1
         1         1         1         1         1         1         1         1
         1         1         1         1         1         1         1         1
         1         1         1         1         1         1         1         1
         1         1         1         1         1         1         1         1
         1         1         1         1         1         1         1         1
         1         1         1         1         1         1         1         1
         1         1         1         1         1         1         1         1
         1         1         1         1         1         1         1         1
         1         1         1         1         1         1         1         1
         1         1         1         1         1         1         1         1
         1         1         1         1         1         1         1         1
         1         1         1         1         1         1         1         1
         1         1         1         1         1         1         1         1
         1         1         1         1         1         1         1         1
         1         1         1         1         1         1         1         1
         1         1         1         1         1         1         1         1
         1         1         1         1         1         1         1         1
         1         1         1         1         1         1         1         1
         1         1         1         1         1         1         1         1
         1         1         1         1         1         1         1         1
         1         1         1         1         1         1         1         1
         1         1         1         1         1         1         1         1
         1         1         1         1         1         1         1         1
         1         1         1         1         1         1         1         1
         1         1         1         1         1         1         1         1
         1         1         1         1         1         1         1         1
         1         1         1         1         1         1         1         1
         1         1         1         1         1         1         1         1
         1         1         1         1         1         1         1         1
         1         1         1         1         1         1         1         1
         1         1         1         1         1         1         1         1
         1         1         1         1         1         1         1         1
         1         1         1         1         1         1         1         1
         1         1         1         1         1         1         1         1
         1         1         1         1         1         1         1         1
         1         1         1         1         1         1         1         1
         1         1         1         1         1         1         1         1
         1         1         1         1         1         1         1         1
         1         1         1         1         1         1         1         1
         1         1         1         1         1         1         1         1
         1         1         1         1         1         1         1         1
         1         1         1         1         1         1         1         1
         1         1         1         1         1         1         1         1
         1         1         1         1         1         1         1         1
         1         1         1         1         1         1         1         1
         1         1         1         1         1         1         1         1
         1         1         1         1         1         1         1         1
         1         1         1         1         1         1         1         1
         1         1         1         1         1         1         1         1
         1         1         1         1         1         1         1         1
         1         1         1         1         1         1         1         1
         1         1         1         1         1         1         1         1
         1         1         1         1         1         1         1         1
         1         1         1         1         1         1         1         1
         1         1         1         1         1         1         1         1
         1         1         1         1         1         1         1         1
         1         1         1         1         1         1         1         1
         1         1         1         1         1         1         1         1
         1         1         1         1         1         1         1         1
         1         1         1         1         1         1         1         1
         1         1         1         1         1         1         1         1
         1         1         1         1         1         1         1         1
         1         1         1         1         1         1         1         1
         1         1         1         1         1         1         1         1
         1         1         1         1         1         1         1         1
         1         1         1         1         1         1         1         1
         1         1         1         1         1         1         1         1
         1         1         1         1         1         1         1         1
         1         1         1         1         1         1         1         1
         1         1         1         1         1         1         1         1
         1         1         1         1         1         1         1         1
         1         1         1         1         1         1         1         1
         1         1         1         1         1         1         1         1
         1         1         1         1         1         1         1         1
         1         1         1         1         1         1         1         1
         1         1         1         1         1         1         1         1
         1         1         1         1         1         1         1         1
         1         1         1         1         1         1         1         1
         1         1         1         1         1         1         1         1
         1         1         1         1         1         1         1         1
         1         1         1         1         1         1         1         1
         1         1         1         1         1         1         1         1
         1         1         1         1         1         1         1         1
         1         1         1         1         1         1         1         1
         1         1         1         1         1         1         1         1
         1         1         1         1         1         1         1         1
         1         1         1         1         1         1         1         1
         1         1         1         1         1         1         1         1
         1         1         1         1         1         1         1         1
         1         1         1         1         1         1         1         1
         1         1         1         1         1         1         1         1
         1         1         1         1         1         1         1         1
         1         1         1         1         1         1         1         1
         1         1         1         1         1         1         1         1
         1         1         1         1         1         1         1         1
         1         1         1         1         1         1         1         1
         1         1         1         1         1         1         1         1
         1         1         1         1         1         1         1         1
         1         1         1         1         1         1         1         1
         1         1         1         1         1         1         1         1
         1         1         1         1         1         1         1         1
         1         1         1         1         1         1         1         1
         1         1         1         1         1         1         1         1
         1         1         1         1         1         1         1         1
         1         1         1         1         1         1         1         1
         1         1         1         1         1         1         1         1
         1         1         1         1         1         1         1         1
         1         1         1         1         1         1         1         1
         1         1         1         1         1         1         1         1
         1         1         1         1         1         1         1         1
         1         1         1         1         1         1         1         1
         1         1         1         1         1         1         1         1
         1         1         1         1         1         1         1         1
         1         1         1         1         1         1         1         1
         1         1         1         1         1         1         1         1
         1         1         1         1         1         1         1         1
         1         1         1         1         1         1         1         1
         1         1         1         1         1         1         1         1
         1         1         1         1         1         1         1         1
         1         1         1         1         1         1         1         1
         1         1         1         1         1         1         1         1
         1         1         1         1         1         1         1         1
         1         1         1         1         1         1         1         1
         1         1         1         1         1         1         1         1
         1         1         1         1         1         1         1         1
         1         1         1         1         1         1         1         1
         1         1         1         1         1         1         1         1
         1         1         1         1         1         1         1         1
         1         1         1         1         1         1         1         1
         1         1         1         1         1         1         1         1
         1         1         1         1         1         1         1         1
         1         1         1         1         1         1         1         1
         1         1         1         1         1         1         1         1
         1         1         1         1         1         1         1         1
         1         1         1         1         1         1         1         1
         1         1         1         1         1         1         1         1
         1         1         1         1         1         1         1         1
         1         1         1         1         1         1         1         1
         1         1         1         1         1         1         1         1
         1         1         1         1         1         1         1         1
         1         1         1         1         1         1         1         1
         1         1         1         1         1         1         1         1
         1         1         1         1         1         1         1         1
         1         1         1         1         1         1         1         1
         1         1         1         1         1         1         1         1
         1         1         1         1         1         1         1         1
         1         1         1         1         1         1         1         1
         1         1         1         1         1         1         1         1
         1         1         1         1         1         1         1         1
         1         1         1         1         1         1         1         1
         1         1         1         1         1         1         1         1
         1         1         1         1         1         1         1         1
         1         1         1         1         1         1         1         1
         1         1         1         1         1         1         1         1
         1         1         1         1         1         1         1         1
         1         1         1         1         1         1         1         1
         1         1         1         1         1         1         1         1
         1         1         1         1         1         1         1         1
         1         1         1         1         1         1         1         1
         1         1         1         1         1         1         1         1
         1         1         1         1         1         1         1         1
         1         1         1         1         1         1         1         1
         1         1         1         1         1         1         1         1
         1         1         1         1         1         1         1         1
         1         1         1         1         1         1         1         1
         1         1         1         1         1         1         1         1
         1         1         1         1         1         1         1         1
         1         1         1         1         1         1         1         1
         1         1         1         1         1         1         1         1
         1         1         1         1         1         1         1         1
         1         1         1         1         1         1         1         1
         1         1         1         1         1         1         1         1
         1         1         1         1         1         1         1         1
         1         1         1         1         1         1         1         1
         1         1         1         1         1         1         1         1
         1         1         1         1         1         1         1         1
         1         1         1         1         1         1         1         1
         1         1         1         1         1         1         1         1
         1         1         1         1         1         1         1         1
         1         1         1         1         1         1         1         1
         1         1         1         1         1         1         1         1
         1         1         1         1         1         1         1         1
         1         1         1         1         1         1         1         1
         1         1         1         1         1         1         1         1
         1         1         1         1         1         1         1         1
         1         1         1         1         1         1         1         1
         1         1         1         1         1         1         1         1
         1         1         1         1         1         1         1         1
         1         1         1         1         1         1         1         1
         1         1         1         1         1         1         1         1
         1         1         1         1         1         1         1         1
         1         1         1         1         1         1         1         1
         1         1         1         1         1         1         1         1
         1         1         1         1         1         1         1         1
         1         1         1         1         1         1         1         1
         1         1         1         1         1         1         1         1
         1         1         1         1         1         1         1         1
         1         1         1         1         1         1         1         1
         1         1         1         1         1         1         1         1
         1         1         1         1         1         1         1         1
         1         1         1         1         1         1         1         1
         1         1         1         1         1         1         1         1
         1         1         1         1         1         1         1         1
         1         1         1         1         1         1         1         1
         1         1         1         1         1         1         1         1
         1         1         1         1         1         1         1         1
         1         1         1         1         1         1         1         1
         1         1         1         1         1         1         1         1
         1         1         1         1         1         1         1         1
         1         1         1         1         1         1         1         1
         1         1         1         1         1         1         1         1
         1         1         1         1         1         1         1         1
         1         1         1         1         1         1         1         1
         1         1         1         1         1         1         1         1
         1         1         1         1         1         1         1         1
         1         1         1         1         1         1         1         1
         1         1         1         1         1         1         1         1
         1         1         1         1         1         1         1         1
         1         1         1         1         1         1         1         1
         1         1         1         1         1         1         1         1
         1         1         1         1         1         1         1         1
         1         1         1         1         1         1         1         1
         1         1         1         1         1         1         1         1
         1         1         1         1         1         1         1         1
         1         1         1         1         1         1         1         1
         1         1         1         1         1         1         1         1
         1         1         1         1         1         1         1         1
         1         1         1         1         1         1         1         1
         1         1         1         1         1         1         1         1
         1         1         1         1         1         1         1         1
         1         1         1         1         1         1         1         1
         1         1         1         1         1         1         1         1
         1         1         1         1         1         1         1         1
         1         1         1         1         1         1         1         1
         1         1         1         1         1         1         1         1
         1         1         1         1         1         1         1         1
         1         1         1         1         1         1         1         1
         1         1         1         1         1         1         1         1
         1         1         1         1         1         1         1         1
         1         1         1         1         1         1         1         1
         1         1         1         1         1         1         1         1
         1         1         1         1         1         1         1         1
         1         1         1         1         1         1         1         1
         1         1         1         1         1         1         1         1
         1         1         1         1         1         1         1         1
         1         1         1         1         1         1         1         1
         1         1         1         1         1         1         1         1
         1         1         1         1         1         1         1         1
         1         1         1         1         1         1         1         1
         1         1         1         1         1         1         1         1
         1         1         1         1         1         1         1         1
         1         1         1         1         1         1         1         1
         1         1         1         1         1         1         1         1
         1         1         1         1         1         1         1         1
         1         1         1         1         1         1         1         1
         1         1         1         1         1         1         1         1
         1         1         1         1         1         1         1         1
         1         1         1         1         1         1         1         1
         1         1         1         1         1         1         1         1
         1         1         1         1         1         1         1         1
         1         1         1         1         1         1         1         1
         1         1         1         1         1         1         1         1
         1         1         1         1         1         1         1         1
         1         1         1         1         1         1         1         1
         1         1         1         1         1         1         1         1
         1         1         1         1         1         1         1         1
         1         1         1         1         1         1         1         1
         1         1         1         1         1         1         1         1
         1         1         1         1         1         1         1         1
         1         1         1         1         1         1         1         1
         1         1         1         1         1         1         1         1
         1         1         1         1         1         1         1         1
         1         1         1         1         1         1         1         1
         1         1         1         1         1         1         1         1
         1         1         1         1         1         1         1         1
         1         1         1         1         1         1         1         1
         1         1         1         1         1         1         1         1
         1         1         1         1         1         1         1         1
         1         1         1         1         1         1         1         1
         1         1         1         1         1         1         1         1
         1         1         1         1         1         1         1         1
         1         1         1         1         1         1         1         1
         1         1         1         1         1         1         1         1
         1         1         1         1         1         1         1         1
         1         1         1         1         1         1         1         1
         1         1         1         1         1         1         1         1
         1         1         1         1         1         1         1         1
         1         1         1         1         1         1         1         1
         1         1         1         1         1         1         1         1
         1         1         1         1         1         1         1         1
         1         1         1         1         1         1         1         1
         1         1         1         1         1         1         1         1
         1         1         1         1         1         1         1         1
         1         1         1         1         1         1         1         1
         1         1         1         1         1         1         1         1
         1         1         1         1         1         1         1         1
         1         1         1         1         1         1         1         1
         1         1         1         1         1         1         1         1
         1         1         1         1         1         1         1         1
         1         1         1         1         1         1         1         1
         1         1         1         1         1         1         1         1
         1         1         1         1         1         1         1         1
         1         1         1         1         1         1         1         1
         1         1         1         1         1         1         1         1
         1         1         1         1         1         1         1         1
         1         1         1         1         1         1         1         1
         1         1         1         1         1         1         1         1
         1         1         1         1         1         1         1         1
         1         1         1         1         1         1         1         1
         1         1         1         1         1         1         1         1
         1         1         1         1         1         1         1         1
         1         1         1         1         1         1         1         1
         1         1         1         1         1         1         1         1
         1         1         1         1         1         1         1         1
         1         1         1         1         1         1         1         1
         1         1         1         1         1         1         1         1
         1         1         1         1         1         1         1         1
         1         1         1         1         1         1         1         1
         1         1         1         1         1         1         1         1
         1         1         1         1         1         1         1         1
         1         1         1         1         1         1         1         1
         1         1         1         1         1         1         1         1
         1         1         1         1         1         1         1         1
         1         1         1         1         1         1         1         1
         1         1         1         1         1         1         1         1
         1         1         1         1         1         1         1         1
         1         1         1         1         1         1         1         1
         1         1         1         1         1         1         1         1
         1         1         1         1         1         1         1         1
         1         1         1         1         1         1         1         1
         1         1         1         1         1         1         1         1
         1         1         1         1         1         1         1         1
         1         1         1         1         1         1         1         1
         1         1         1         1         1         1         1         1
         1         1         1         1         1         1         1         1
         1         1         1         1         1         1         1         1
         1         1         1         1         1         1         1         1
         1         1         1         1         1         1         1         1
         1         1         1         1         1         1         1         1
         1         1         1         1         1         1         1         1
         1         1         1         1         1         1         1         1
         1         1         1         1         1         1         1         1
         1         1         1         1         1         1         1         1
         1         1         1         1         1         1         1         1
         1         1         1         1         1         1         1         1
         1         1         1         1         1         1         1         1
         1         1         1         1         1         1         1         1
         1         1         1         1         1         1         1         1
         1         1         1         1         1         1         1         1
         1         1         1         1         1         1         1         1
         1         1         1         1         1         1         1         1
         1         1         1         1         1         1         1         1
         1         1         1         1         1         1         1         1
         1         1         1         1         1         1         1         1
         1         1         1         1         1         1         1         1
         1         1         1         1         1         1         1         1
         1         1         1         1         1         1         1         1
         1         1         1         1         1         1         1         1
         1         1         1         1         1         1         1         1
         1         1         1         1         1         1         1         1
         1         1         1         1         1         1         1         1
         1         1         1         1         1         1         1         1
         1         1         1         1         1         1         1         1
         1         1         1         1         1         1         1         1
         1         1         1         1         1         1         1         1
         1         1         1         1         1         1         1         1
         1         1         1         1         1         1         1         1
         1         1         1         1         1         1         1         1
         1         1         1         1         1         1         1         1
         1         1         1         1         1         1         1         1
         1         1         1         1         1         1         1         1
         1         1         1         1         1         1         1         1
         1         1         1         1         1         1         1         1
         1         1         1         1         1         1         1         1
         1         1         1         1         1         1         1         1
         1         1         1         1         1         1         1         1
         1         1         1         1         1         1         1         1
         1         1         1         1         1         1         1         1
         1         1         1         1         1         1         1         1
         1         1         1         1         1         1         1         1
         1         1         1         1         1         1         1         1
         1         1         1         1         1         1         1         1
         1         1         1         1         1         1         1         1
         1         1         1         1         1         1         1         1
         1         1         1         1         1         1         1         1
         1         1         1         1         1         1         1         1
         1         1         1         1         1         1         1         1
         1         1         1         1         1         1         1         1
         1         1         1         1         1         1         1         1
         1         1         1         1         1         1         1         1
         1         1         1         1         1         1         1         1
         1         1         1         1         1         1         1         1
         1         1         1         1         1         1         1         1
         1         1         1         1         1         1         1         1
         1         1         1         1         1         1         1         1
         1         1         1         1         1         1         1         1
         1         1         1         1         1         1         1         1
         1         1         1         1         1         1         1         1
         1         1         1         1         1         1         1         1
         1         1         1         1         1         1         1         1
         1         1         1         1         1         1         1         1
         1         1         1         1         1         1         1         1
         1         1         1         1         1         1         1         1
         1         1         1         1         1         1         1         1
         1         1         1         1         1         1         1         1
         1         1         1         1         1         1         1         1
         1         1         1         1         1         1         1         1
         1         1         1         1         1         1         1         1
         1         1         1         1         1         1         1         1
         1         1         1         1         1         1         1         1
         1         1         1         1         1         1         1         1
         1         1         1         1         1         1         1         1
         1         1         1         1         1         1         1         1
         1         1         1         1         1         1         1         1
         1         1         1         1         1         1         1         1
         1         1         1         1         1         1         1         1
         1         1         1         1         1         1         1         1
         1         1         1         1         1         1         1         1
         1         1         1         1         1         1         1         1
         1         1         1         1         1         1         1         1
         1         1         1         1         1         1         1         1
         1         1         1         1         1         1         1         1
         1         1         1         1         1         1         1         1
         1         1         1         1         1         1         1         1
         1         1         1         1         1         1         1         1
         1         1         1         1         1         1         1         1
         1         1         1         1         1         1         1         1
         1         1         1         1         1         1         1         1
         1         1         1         1         1         1         1         1
         1         1         1         1         1         1         1         1
         1         1         1         1         1         1         1         1
         1         1         1         1         1         1         1         1
         1         1         1         1         1         1         1         1
         1         1         1         1         1         1         1         1
         1         1         1         1         1         1         1         1
         1         1         1         1         1         1         1         1
         1         1         1         1         1         1         1         1
         1         1         1         1         1         1         1         1
         1         1         1         1         1         1         1         1
         1         1         1         1         1         1         1         1
         1         1         1         1         1         1         1         1
         1         1         1         1         1         1         1         1
         1         1         1         1         1         1         1         1
         1         1         1         1         1         1         1         1
         1         1         1         1         1         1         1         1
         1         1         1         1         1         1         1         1
         1         1         1         1         1         1         1         1
         1         1         1         1         1         1         1         1
         1         1         1         1         1         1         1         1
         1         1         1         1         1         1         1         1
         1         1         1         1         1         1         1         1
         1         1         1         1         1         1         1         1
         1         1         1         1         1         1         1         1
         1         1         1         1         1         1         1         1
         1         1         1         1         1         1         1         1
         1         1         1         1         1         1         1         1
         1         1         1         1         1         1         1         1
         1         1         1         1         1         1         1         1
         1         1         1         1         1         1         1         1
         1         1         1         1         1         1         1         1
         1         1         1         1         1         1         1         1
         1         1         1         1         1         1         1         1
         1         1         1         1         1         1         1         1
         1         1         1         1         1         1         1         1
         1         1         1         1         1         1         1         1
         1         1         1         1         1         1         1         1
         1         1         1         1         1         1         1         1
         1         1         1         1         1         1         1         1
         1         1         1         1         1         1         1         1
         1         1         1         1         1         1         1         1
         1         1         1         1         1         1         1         1
         1         1         1         1         1         1         1         1
         1         1         1         1         1         1         1         1
         1         1         1         1         1         1         1         1
         1         1         1         1         1         1         1         1
         1         1         1         1         1         1         1         1
         1         1         1         1         1         1         1         1
         1         1         1         1         1         1         1         1
         1         1         1         1         1         1         1         1
         1         1         1         1         1         1         1         1
         1         1         1         1         1         1         1         1
         1         1         1         1         1         1         1         1
         1         1         1         1         1         1         1         1
         1         1         1         1         1         1         1         1
         1         1         1         1         1         1         1         1
         1         1         1         1         1         1         1         1
         1         1         1         1         1         1         1         1
         1         1         1         1         1         1         1         1
         1         1         1         1         1         1         1         1
         1         1         1         1         1         1         1         1
         1         1         1         1         1         1         1         1
         1         1         1         1         1         1         1         1
         1         1         1         1         1         1         1         1
         1         1         1         1         1         1         1         1
         1         1         1         1         1         1         1         1
         1         1         1         1         1         1         1         1
         1         1         1         1         1         1         1         1
         1         1         1         1         1         1         1         1
         1         1         1         1         1         1         1         1
         1         1         1         1         1         1         1         1
         1         1         1         1         1         1         1         1
         1         1         1         1         1         1         1         1
         1         1         1         1         1         1         1         1
         1         1         1         1         1         1         1         1
         1         1         1         1         1         1         1         1
         1         1         1         1         1         1         1         1
         1         1         1         1         1         1         1         1
         1         1         1         1         1         1         1         1
         1         1         1         1         1         1         1         1
         1         1         1         1         1         1         1         1
         1         1         1         1         1         1         1         1
         1         1         1         1         1         1         1         1
         1         1         1         1         1         1         1         1
         1         1         1         1         1         1         1         1
         1         1         1         1         1         1         1         1
         1         1         1         1         1         1         1         1
         1         1         1         1         1         1         1         1
         1         1         1         1         1         1         1         1
         1         1         1         1         1         1         1         1
         1         1         1         1         1         1         1         1
         1         1         1         1         1         1         1         1
         1         1         1         1         1         1         1         1
         1         1         1         1         1         1         1         1
         1         1         1         1         1         1         1         1
         1         1         1         1         1         1         1         1
         1         1         1         1         1         1         1         1
         1         1         1         1         1         1         1         1
         1         1         1         1         1         1         1         1
         1         1         1         1         1         1         1         1
         1         1         1         1         1         1         1         1
         1         1         1         1         1         1         1         1
         1         1         1         1         1         1         1         1
         1         1         1         1         1         1         1         1
         1         1         1         1         1         1         1         1
         1         1         1         1         1         1         1         1
         1         1         1         1         1         1         1         1
         1         1         1         1         1         1         1         1
         1         1         1         1         1         1         1         1
         1         1         1         1         1         1         1         1
         1         1         1         1         1         1         1         1
         1         1         1         1         1         1         1         1
         1         1         1         1         1         1         1         1
         1         1         1         1         1         1         1         1
         1         1         1         1         1         1         1         1
         1         1         1         1         1         1         1         1
         1         1         1         1         1         1         1         1
         1         1         1         1         1         1         1         1
         1         1         1         1         1         1         1         1
         1         1         1         1         1         1         1         1
         1         1         1         1         1         1         1         1
         1         1         1         1         1         1         1         1
         1         1         1         1         1         1         1         1
         1         1         1         1         1         1         1         1
         1         1         1         1         1         1         1         1
         1         1         1         1         1         1         1         1
         1         1         1         1         1         1         1         1
         1         1         1         1         1         1         1         1
         1         1         1         1         1         1         1         1
         1         1         1         1         1         1         1         1
         1         1         1         1         1         1         1         1
         1         1         1         1         1         1         1         1
         1         1         1         1         1         1         1         1
         1         1         1         1         1         1         1         1
         1         1         1         1         1         1         1         1
         1         1         1         1         1         1         1         1
         1         1         1         1         1         1         1         1
         1         1         1         1         1         1         1         1
         1         1         1         1         1         1         1         1
         1         1         1         1         1         1         1         1
         1         1         1         1         1         1         1         1
         1         1         1         1         1         1         1         1
         1         1         1         1         1         1         1         1
         1         1         1         1         1         1         1         1
         1         1         1         1         1         1         1         1
         1         1         1         1         1         1         1         1
         1         1         1         1         1         1         1         1
         1         1         1         1         1         1         1         1
         1         1         1         1         1         1         1         1
         1         1         1         1         1         1         1         1
         1         1         1         1         1         1         1         1
         1         1         1         1         1         1         1         1
         1         1         1         1         1         1         1         1
         1         1         1         1         1         1         1         1
         1         1         1         1         1         1         1         1
         1         1         1         1         1         1         1         1
         1         1         1         1         1         1         1         1
         1         1         1         1         1         1         1         1
         1         1         1         1         1         1         1         1
         1         1         1         1         1         1         1         1
         1         1         1         1         1         1         1         1
         1         1         1         1         1         1         1         1
         1         1         1         1         1         1         1         1
         1         1         1         1         1         1         1         1
         1         1         1         1         1         1         1         1
         1         1         1         1         1         1         1         1
         1         1         1         1         1         1         1         1
         1         1         1         1         1         1         1         1
         1         1         1         1         1         1         1         1
         1         1         1         1         1         1         1         1
         1         1         1         1         1         1         1         1
         1         1         1         1         1         1         1         1
         1         1         1         1         1         1         1         1
         1         1         1         1         1         1         1         1
         1         1         1         1         1         1         1         1
         1         1         1         1         1         1         1         1
         1         1         1         1         1         1         1         1
         1         1         1         1         1         1         1         1
         1         1         1         1         1         1         1         1
         1         1         1         1         1         1         1         1
         1         1         1         1         1         1         1         1
         1         1         1         1         1         1         1         1
         1         1         1         1         1         1         1         1
         1         1         1         1         1         1         1         1
         1         1         1         1         1         1         1         1
         1         1         1         1         1         1         1         1
         1         1         1         1         1         1         1         1
         1         1         1         1         1         1         1         1
         1         1         1         1         1         1         1         1
         1         1         1         1         1         1         1         1
         1         1         1         1         1         1         1         1
         1         1         1         1         1         1         1         1
         1         1         1         1         1         1         1         1
         1         1         1         1         1         1         1         1
         1         1         1         1         1         1         1         1
         1         1         1         1         1         1         1         1
         1         1         1         1         1         1         1         1
         1         1         1         1         1         1         1         1
         1         1         1         1         1         1         1         1
         1         1         1         1         1         1         1         1
         1         1         1         1         1         1         1         1
         1         1         1         1         1         1         1         1
         1         1         1         1         1         1         1         1
         1         1         1         1         1         1         1         1
         1         1         1         1         1         1         1         1
         1         1         1         1         1         1         1         1
         1         1         1         1         1         1         1         1
         1         1         1         1         1         1         1         1
         1         1         1         1         1         1         1         1
         1         1         1         1         1         1         1         1
         1         1         1         1         1         1         1         1
         1         1         1         1         1         1         1         1
         1         1         1         1         1         1         1         1
         1         1         1         1         1         1         1         1
         1         1         1         1         1         1         1         1
         1         1         1         1         1         1         1         1
         1         1         1         1         1         1         1         1
         1         1         1         1         1         1         1         1
         1         1         1         1         1         1         1         1
         1         1         1         1         1         1         1         1
         1         1         1         1         1         1         1         1
         1         1         1         1         1         1         1         1
         1         1         1         1         1         1         1         1
         1         1         1         1         1         1         1         1
         1         1         1         1         1         1         1         1
         1         1         1         1         1         1         1         1
         1         1         1         1         1         1         1         1
         1         1         1         1         1         1         1         1
         1         1         1         1         1         1         1         1
         1         1         1         1         1         1         1         1
         1         1         1         1         1         1         1         1
         1         1         1         1         1         1         1         1
         1         1         1         1         1         1         1         1
         1         1         1         1         1         1         1         1
         1         1         1         1         1         1         1         1
         1         1         1         1         1         1         1         1
         1         1         1         1         1         1         1         1
         1         1         1         1         1         1         1         1
         1         1         1         1         1         1         1         1
         1         1         1         1         1         1         1         1
         1         1         1         1         1         1         1         1
         1         1         1         1         1         1         1         1
         1         1         1         1         1         1         1         1
         1         1         1         1         1         1         1         1
         1         1         1         1         1         1         1         1
         1         1         1         1         1         1         1         1
         1         1         1         1         1         1         1         1
         1         1         1         1         1         1         1         1
         1         1         1         1         1         1         1         1
         1         1         1         1         1         1         1         1
         1         1         1         1         1         1         1         1
         1         1         1         1         1         1         1         1
         1         1         1         1         1         1         1         1
         1         1         1         1         1         1         1         1
         1         1         1         1         1         1         1         1
         1         1         1         1         1         1         1         1
         1         1         1         1         1         1         1         1
         1         1         1         1         1         1         1         1
         1         1         1         1         1         1         1         1
         1         1         1         1         1         1         1         1
         1         1         1         1         1         1         1         1
         1         1         1         1         1         1         1         1
         1         1         1         1         1         1         1         1
         1         1         1         1         1         1         1         1
         1         1         1         1         1         1         1         1
         1         1         1         1         1         1         1         1
         1         1         1         1         1         1         1         1
         1         1         1         1         1         1         1         1
         1         1         1         1         1         1         1         1
         1         1         1         1         1         1         1         1
         1         1         1         1         1         1         1         1
         1         1         1         1         1         1         1         1
         1         1         1         1         1         1         1         1
         1         1         1         1         1         1         1         1
         1         1         1         1         1         1         1         1
         1         1         1         1         1         1         1         1
         1         1         1         1         1         1         1         1
         1         1         1         1         1         1         1         1
         1         1         1         1         1         1         1         1
         1         1         1         1         1         1         1         1
         1         1         1         1         1         1         1         1
         1         1         1         1         1         1         1         1
         1         1         1         1         1         1         1         1
         1         1         1         1         1         1         1         1
         1         1         1         1         1         1         1         1
         1         1         1         1         1         1         1         1
         1         1         1         1         1         1         1         1
         1         1         1         1         1         1         1         1
         1         1         1         1         1         1         1         1
         1         1         1         1         1         1         1         1
         1         1         1         1         1         1         1         1
         1         1         1         1         1         1         1         1
         1         1         1         1         1         1         1         1
         1         1         1         1         1         1         1         1
         1         1         1         1         1         1         1         1
         1         1         1         1         1         1         1         1
         1         1         1         1         1         1         1         1
         1         1         1         1         1         1         1         1
         1         1         1         1         1         1         1         1
         1         1         1         1         1         1         1         1
         1         1         1         1         1         1         1         1
         1         1         1         1         1         1         1         1
         1         1         1         1         1         1         1         1
         1         1         1         1         1         1         1         1
         1         1         1         1         1         1         1         1
         1         1         1         1         1         1         1         1
         1         1         1         1         1         1         1         1
         1         1         1         1         1         1         1         1
         1         1         1         1         1         1         1         1
         1         1         1         1         1         1         1         1
         1         1         1         1         1         1         1         1
         1         1         1         1         1         1         1         1
         1         1         1         1         1         1         1         1
         1         1         1         1         1         1         1         1
         1         1         1         1         1         1         1         1
         1         1         1         1         1         1         1         1
         1         1         1         1         1         1         1         1
         1         1         1         1         1         1         1         1
         1         1         1         1         1         1         1         1
         1         1         1         1         1         1         1         1
         1         1         1         1         1         1         1         1
         1         1         1         1         1         1         1         1
         1         1         1         1         1         1         1         1
         1         1         1         1         1         1         1         1
         1         1         1         1         1         1         1         1
         1         1         1         1         1         1         1         1
         1         1         1         1         1         1         1         1
         1         1         1         1         1         1         1         1
         1         1         1         1         1         1         1         1
         1         1         1         1         1         1         1         1
         1         1         1         1         1         1         1         1
         1         1         1         1         1         1         1         1
         1         1         1         1         1         1         1         1
         1         1         1         1         1         1         1         1
         1         1         1         1         1         1         1         1
         1         1         1         1         1         1         1         1
         1         1         1         1         1         1         1         1
         1         1         1         1         1         1         1         1
         1         1         1         1         1         1         1         1
         1         1         1         1         1         1         1         1
         1         1         1         1         1         1         1         1
         1         1         1         1         1         1         1         1
         1         1         1         1         1         1         1         1
         1         1         1         1         1         1         1         1
         1         1         1         1         1         1         1         1
         1         1         1         1         1         1         1         1
         1         1         1         1         1         1         1         1
         1         1         1         1         1         1         1         1
         1         1         1         1         1         1         1         1
         1         1         1         1         1         1         1         1
         1         1         1         1         1         1         1         1
         1         1         1         1         1         1         1         1
         1         1         1         1         1         1         1         1
         1         1         1         1         1         1         1         1
         1         1         1         1         1         1         1         1
         1         1         1         1         1         1         1         1
         1         1         1         1         1         1         1         1
         1         1         1         1         1         1         1         1
         1         1         1         1         1         1         1         1
         1         1         1         1         1         1         1         1
         1         1         1         1         1         1         1         1
         1         1         1         1         1         1         1         1
         1         1         1         1         1         1         1         1
         1         1         1         1         1         1         1         1
         1         1         1         1         1         1         1         1
         1         1         1         1         1         1         1         1
         1         1         1         1         1         1         1         1
         1         1         1         1         1         1         1         1
         1         1         1         1         1         1         1         1
         1         1         1         1         1         1         1         1
         1         1         1         1         1         1         1         1
         1         1         1         1         1         1         1         1
         1         1         1         1         1         1         1         1
         1         1         1         1         1         1         1         1
         1         1         1         1         1         1         1         1
         1         1         1         1         1         1         1         1
         1         1         1         1         1         1         1         1
         1         1         1         1         1         1         1         1
         1         1         1         1         1         1         1         1
         1         1         1         1         1         1         1         1
         1         1         1         1         1         1         1         1
         1         1         1         1         1         1         1         1
         1         1         1         1         1         1         1         1
         1         1         1         1         1         1         1         1
         1         1         1         1         1         1         1         1
         1         1         1         1         1         1         1         1
         1         1         1         1         1         1         1         1
         1         1         1         1         1         1         1         1
         1         1         1         1         1         1         1         1
         1         1         1         1         1         1         1         1
         1         1         1         1         1         1         1         1
         1         1         1         1         1         1         1         1
         1         1         1         1         1         1         1         1
         1         1         1         1         1         1         1         1
         1         1         1         1         1         1         1         1
         1         1         1         1         1         1         1         1
         1         1         1         1         1         1         1         1
         1         1         1         1         1         1         1         1
         1         1         1         1         1         1         1         1
         1         1         1         1         1         1         1         1
         1         1         1         1         1         1         1         1
         1         1         1         1         1         1         1         1
         1         1         1         1         1         1         1         1
         1         1         1         1         1         1         1         1
         1         1         1         1         1         1         1         1
         1         1         1         1         1         1         1         1
         1         1         1         1         1         1         1         1
         1         1         1         1         1         1         1         1
         1         1         1         1         1         1         1         1
         1         1         1         1         1         1         1         1
         1         1         1         1         1         1         1         1
         1         1         1         1         1         1         1         1
         1         1         1         1         1         1         1         1
         1         1         1         1         1         1         1         1
         1         1         1         1         1         1         1         1
         1         1         1         1         1         1         1         1
         1         1         1         1         1         1         1         1
         1         1         1         1         1         1         1         1
         1         1         1         1         1         1         1         1
         1         1         1         1         1         1         1         1
         1         1         1         1         1         1         1         1
         1         1         1         1         1         1         1         1
         1         1         1         1         1         1         1         1
         1         1         1         1         1         1         1         1
         1         1         1         1         1         1         1         1
         1         1         1         1         1         1         1         1
         1         1         1         1         1         1         1         1
         1         1         1         1         1         1         1         1
         1         1         1         1         1         1         1         1
         1         1         1         1         1         1         1         1
         1         1         1         1         1         1         1         1
         1         1         1         1         1         1         1         1
         1         1         1         1         1         1         1         1
         1         1         1         1         1         1         1         1
         1         1         1         1         1         1         1         1
         1         1         1         1         1         1         1         1
         1         1         1         1         1         1         1         1
         1         1         1         1         1         1         1         1
         1         1         1         1         1         1         1         1
         1         1         1         1         1         1         1         1
         1         1         1         1         1         1         1         1
         1         1         1         1         1         1         1         1
         1         1         1         1         1         1         1         1
         1         1         1         1         1         1         1         1
         1         1         1         1         1         1         1         1
         1         1         1         1         1         1         1         1
         1         1         1         1         1         1         1         1
         1         1         1         1         1         1         1         1
         1         1         1         1         1         1         1         1
         1         1         1         1         1         1         1         1
         1         1         1         1         1         1         1         1
         1         1         1         1         1         1         1         1
         1         1         1         1         1         1         1         1
         1         1         1         1         1         1         1         1
         1         1         1         1         1         1         1         1
         1         1         1         1         1         1         1         1
         1         1         1         1         1         1         1         1
         1         1         1         1         1         1         1         1
         1         1         1         1         1         1         1         1
         1         1         1         1         1         1         1         1
         1         1         1         1         1         1         1         1
         1         1         1         1         1         1         1         1
         1         1         1         1         1         1         1         1
         1         1         1         1         1         1         1         1
         1         1         1         1         1         1         1         1
         1         1         1         1         1         1         1         1
         1         1         1         1         1         1         1         1
         1         1         1         1         1         1         1         1
         1         1         1         1         1         1         1         1
         1         1         1         1         1         1         1         1
         1         1         1         1         1         1         1         1
         1         1         1         1         1         1         1         1
         1         1         1         1         1         1         1         1
         1         1         1         1         1         1         1         1
         1         1         1         1         1         1         1         1
         1         1         1         1         1         1         1         1
         1         1         1         1         1         1         1         1
         1         1         1         1         1         1         1         1
         1         1         1         1         1         1         1         1
         1         1         1         1         1         1         1         1
         1         1         1         1         1         1         1         1
         1         1         1         1         1         1         1         1
         1         1         1         1         1         1         1         1
         1         1         1         1         1         1         1         1
         1         1         1         1         1         1         1         1
         1         1         1         1         1         1         1         1
         1         1         1         1         1         1         1         1
         1         1         1         1         1         1         1         1
         1         1         1         1         1         1         1         1
         1         1         1         1         1         1         1         1
         1         1         1         1         1         1         1         1
         1         1         1         1         1         1         1         1
         1         1         1         1         1         1         1         1
         1         1         1         1         1         1         1         1
         1         1         1         1         1         1         1         1
         1         1         1         1         1         1         1         1
         1         1         1         1         1         1         1         1
         1         1         1         1         1         1         1         1
         1         1         1         1         1         1         1         1
         1         1         1         1         1         1         1         1
         1         1         1         1         1         1         1         1
         1         1         1         1         1         1         1         1
         1         1         1         1         1         1         1         1
         1         1         1         1         1         1         1         1
         1         1         1         1         1         1         1         1
         1         1         1         1         1         1         1         1
         1         1         1         1         1         1         1         1
         1         1         1         1         1         1         1         1
         1         1         1         1         1         1         1         1
         1         1         1         1         1         1         1         1
         1         1         1         1         1         1         1         1
         1         1         1         1         1         1         1         1
         1         1         1         1         1         1         1         1
         1         1         1         1         1         1         1         1
         1         1         1         1         1         1         1         1
         1         1         1         1         1         1         1         1
         1         1         1         1         1         1         1         1
         1         1         1         1         1         1         1         1
         1         1         1         1         1         1         1         1
         1         1         1         1         1         1         1         1
         1         1         1         1         1         1         1         1
         1         1         1         1         1         1         1         1
         1         1         1         1         1         1         1         1
         1         1         1         1         1         1         1         1
         1         1         1         1         1         1         1         1
         1         1         1         1         1         1         1         1
         1         1         1         1         1         1         1         1
         1         1         1         1         1         1         1         1
         1         1         1         1         1         1         1         1
         1         1         1         1         1         1         1         1
         1         1         1         1         1         1         1         1
         1         1         1         1         1         1         1         1
         1         1         1         1         1         1         1         1
         1         1         1         1         1         1         1         1
         1         1         1         1         1         1         1         1
         1         1         1         1         1         1         1         1
         1         1         1         1         1         1         1         1
         1         1         1         1         1         1         1         1
         1         1         1         1         1         1         1         1
         1         1         1         1         1         1         1         1
         1         1         1         1         1         1         1         1
         1         1         1         1         1         1         1         1
         1         1         1         1         1         1         1         1
         1         1         1         1         1         1         1         1
         1         1         1         1         1         1         1         1
         1         1         1         1         1         1         1         1
         1         1         1         1         1         1         1         1
         1         1         1         1         1         1         1         1
         1         1         1         1         1         1         1         1
         1         1         1         1         1         1         1         1
         1         1         1         1         1         1         1         1
         1         1         1         1         1         1         1         1
         1         1         1         1         1         1         1         1
         1         1         1         1         1         1         1         1
         1         1         1         1         1         1         1         1
         1         1         1         1         1         1         1         1
         1         1         1         1         1         1         1         1
         1         1         1         1         1         1         1         1
         1         1         1         1         1         1         1         1
         1         1         1         1         1         1         1         1
         1         1         1         1         1         1         1         1
         1         1         1         1         1         1         1         1
         1         1         1         1         1         1         1         1
         1         1         1         1         1         1         1         1
         1         1         1         1         1         1         1         1
         1         1         1         1         1         1         1         1
         1         1         1         1         1         1         1         1
         1         1         1         1         1         1         1         1
         1         1         1         1         1         1         1         1
         1         1         1         1         1         1         1         1
         1         1         1         1         1         1         1         1
         1         1         1         1         1         1         1         1
         1         1         1         1         1         1         1         1
         1         1         1         1         1         1         1         1
         1         1         1         1         1         1         1         1
         1         1         1         1         1         1         1         1
         1         1         1         1         1         1         1         1
         1         1         1         1         1         1         1         1
         1         1         1         1         1         1         1         1
         1         1         1         1         1         1         1         1
         1         1         1         1         1         1         1         1
         1         1         1         1         1         1         1         1
         1         1         1         1         1         1         1         1
         1         1         1         1         1         1         1         1
         1         1         1         1         1         1         1         1
         1         1         1         1         1         1         1         1
         1         1         1         1         1         1         1         1
         1         1         1         1         1         1         1         1
         1         1         1         1         1         1         1         1
         1         1         1         1         1         1         1         1
         1         1         1         1         1         1         1         1
         1         1         1         1         1         1         1         1
         1         1         1         1         1         1         1         1
         1         1         1         1         1         1         1         1
         1         1         1         1         1         1         1         1
         1         1         1         1         1         1         1         1
         1         1         1         1         1         1         1         1
         1         1         1         1         1         1         1         1
         1         1         1         1         1         1         1         1
         1         1         1         1         1         1         1         1
         1         1         1         1         1         1         1         1
         1         1         1         1         1         1         1         1
         1         1         1         1         1         1         1         1
         1         1         1         1         1         1         1         1
         1         1         1         1         1         1         1         1
         1         1         1         1         1         1         1         1
         1         1         1         1         1         1         1         1
         1         1         1         1         1         1         1         1
         1         1         1         1         1         1         1         1
         1         1         1         1         1         1         1         1
         1         1         1         1         1         1         1         1
         1         1         1         1         1         1         1         1
         1         1         1         1         1         1         1         1
         1         1         1         1         1         1         1         1
         1         1         1         1         1         1         1         1
         1         1         1         1         1         1         1         1
         1         1         1         1         1         1         1         1
         1         1         1         1         1         1         1         1
         1         1         1         1         1         1         1         1
         1         1         1         1         1         1         1         1
         1         1         1         1         1         1         1         1
         1         1         1         1         1         1         1         1
         1         1         1         1         1         1         1         1
         1         1         1         1         1         1         1         1
         1         1         1         1         1         1         1         1
         1         1         1         1         1         1         1         1
         1         1         1         1         1         1         1         1
         1         1         1         1         1         1         1         1
         1         1         1         1         1         1         1         1
         1         1         1         1         1         1         1         1
         1         1         1         1         1         1         1         1
         1         1         1         1         1         1         1         1
         1         1         1         1         1         1         1         1
         1         1         1         1         1         1         1         1
         1         1         1         1         1         1         1         1
         1         1         1         1         1         1         1         1
         1         1         1         1         1         1         1         1
         1         1         1         1         1         1         1         1
         1         1         1         1         1         1         1         1
         1         1         1         1         1         1         1         1
         1         1         1         1         1         1         1         1
         1         1         1         1         1         1         1         1
         1         1         1         1         1         1         1         1
         1         1         1         1         1         1         1         1
         1         1         1         1         1         1         1         1
         1         1         1         1         1         1         1         1
         1         1         1         1         1         1         1         1
         1         1         1         1         1         1         1         1
         1         1         1         1         1         1         1         1
         1         1         1         1         1         1         1         1
         1         1         1         1         1         1         1         1
         1         1         1         1         1         1         1         1
         1         1         1         1         1         1         1         1
         1         1         1         1         1         1         1         1
         1         1         1         1         1         1         1         1
         1         1         1         1         1         1         1         1
         1         1         1         1         1         1         1         1
         1         1         1         1         1         1         1         1
         1         1         1         1         1         1         1         1
         1         1         1         1         1         1         1         1
         1         1         1         1         1         1         1         1
         1         1         1         1         1         1         1         1
         1         1         1         1         1         1         1         1
         1         1         1         1         1         1         1         1
         1         1         1         1         1         1         1         1
         1         1         1         1         1         1         1         1
         1         1         1         1         1         1         1         1
         1         1         1         1         1         1         1         1
         1         1         1         1         1         1         1         1
         1         1         1         1         1         1         1         1
         1         1         1         1         1         1         1         1
         1         1         1         1         1         1         1         1
         1         1         1         1         1         1         1         1
         1         1         1         1         1         1         1         1
         1         1         1         1         1         1         1         1
         1         1         1         1         1         1         1         1
         1         1         1         1         1         1         1         1
         1         1         1         1         1         1         1         1
         1         1         1         1         1         1         1         1
         1         1         1         1         1         1         1         1
         1         1         1         1         1         1         1         1
         1         1         1         1         1         1         1         1
         1         1         1         1         1         1         1         1
         1         1         1         1         1         1         1         1
         1         1         1         1         1         1         1         1
         1         1         1         1         1         1         1         1
         1         1         1         1         1         1         1         1
         1         1         1         1         1         1         1         1
         1         1         1         1         1         1         1         1
         1         1         1         1         1         1         1         1
         1         1         1         1         1         1         1         1
         1         1         1         1         1         1         1         1
         1         1         1         1         1         1         1         1
         1         1         1         1         1         1         1         1
         1         1         1         1         1         1         1         1
         1         1         1         1         1         1         1         1
         1         1         1         1         1         1         1         1
         1         1         1         1         1         1         1         1
         1         1         1         1         1         1         1         1
         1         1         1         1         1         1         1         1
         1         1         1         1         1         1         1         1
         1         1         1         1         1         1         1         1
         1         1         1         1         1         1         1         1
         1         1         1         1         1         1         1         1
         1         1         1         1         1         1         1         1
         1         1         1         1         1         1         1         1
         1         1         1         1         1         1         1         1
         1         1         1         1         1         1         1         1
         1         1         1         1         1         1         1         1
         1         1         1         1         1         1         1         1
         1         1         1         1         1         1         1         1
         1         1         1         1         1         1         1         1
         1         1         1         1         1         1         1         1
         1         1         1         1         1         1         1         1
         1         1         1         1         1         1         1         1
         1         1         1         1         1         1         1         1
         1         1         1         1         1         1         1         1
         1         1         1         1         1         1         1         1
         1         1         1         1         1         1         1         1
         1         1         1         1         1         1         1         1
         1         1         1         1         1         1         1         1
         1         1         1         1         1         1         1         1
         1         1         1         1         1         1         1         1
         1         1         1         1         1         1         1         1
         1         1         1         1         1         1         1         1
         1         1         1         1         1         1         1         1
         1         1         1         1         1         1         1         1
         1         1         1         1         1         1         1         1
         1         1         1         1         1         1         1         1
         1         1         1         1         1         1         1         1
         1         1         1         1         1         1         1         1
         1         1         1         1         1         1         1         1
         1         1         1         1         1         1         1         1
         1         1         1         1         1         1         1         1
         1         1         1         1         1         1         1         1
         1         1         1         1         1         1         1         1
         1         1         1         1         1         1         1         1
         1         1         1         1         1         1         1         1
         1         1         1         1         1         1         1         1
         1         1         1         1         1         1         1         1
         1         1         1         1         1         1         1         1
         1         1         1         1         1         1         1         1
         1         1         1         1         1         1         1         1
         1         1         1         1         1         1         1         1
         1         1         1         1         1         1         1         1
         1         1         1         1         1         1         1         1
         1         1         1         1         1         1         1         1
         1         1         1         1         1         1         1         1
         1         1         1         1         1         1         1         1
         1         1         1         1         1         1         1         1
         1         1         1         1         1         1         1         1
         1         1         1         1         1         1         1         1
         1         1         1         1         1         1         1         1
         1         1         1         1         1         1         1         1
         1         1         1         1         1         1         1         1
         1         1         1         1         1         1         1         1
         1         1         1         1         1         1         1         1
         1         1         1         1         1         1         1         1
         1         1         1         1         1         1         1         1
         1         1         1         1         1         1         1         1
         1         1         1         1         1         1         1         1
         1         1         1         1         1         1         1         1
         1         1         1         1         1         1         1         1
         1         1         1         1         1         1         1         1
         1         1         1         1         1         1         1         1
         1         1         1         1         1         1         1         1
         1         1         1         1         1         1         1         1
         1         1         1         1         1         1         1         1
         1         1         1         1         1         1         1         1
         1         1         1         1         1         1         1         1
         1         1         1         1         1         1         1         1
         1         1         1         1         1         1         1         1
         1         1         1         1         1         1         1         1
         1         1         1         1         1         1         1         1
         1         1         1         1         1         1         1         1
         1         1         1         1         1         1         1         1
         1         1         1         1         1         1         1         1
         1         1         1         1         1         1         1         1
         1         1         1         1         1         1         1         1
         1         1         1         1         1         1         1         1
         1         1         1         1         1         1         1         1
         1         1         1         1         1         1         1         1
         1         1         1         1         1         1         1         1
         1         1         1         1         1         1         1         1
         1         1         1         1         1         1         1         1
         1         1         1         1         1         1         1         1
         1         1         1         1         1         1         1         1
         1         1         1         1         1         1         1         1
         1         1         1         1         1         1         1         1
         1         1         1         1         1         1         1         1
         1         1         1         1         1         1         1         1
         1         1         1         1         1         1         1         1
         1         1         1         1         1         1         1         1
         1         1         1         1         1         1         1         1
         1         1         1         1         1         1         1         1
         1         1         1         1         1         1         1         1
         1         1         1         1         1         1         1         1
         1         1         1         1         1         1         1         1
         1         1         1         1         1         1         1         1
         1         1         1         1         1         1         1         1
         1         1         1         1         1         1         1         1
         1         1         1         1         1         1         1         1
         1         1         1         1         1         1         1         1
         1         1         1         1         1         1         1         1
         1         1         1         1         1         1         1         1
         1         1         1         1         1         1         1         1
         1         1         1         1         1         1         1         1
         1         1         1         1         1         1         1         1
         1         1         1         1         1         1         1         1
         1         1         1         1         1         1         1         1
         1         1         1         1         1         1         1         1
         1         1         1         1         1         1         1         1
         1         1         1         1         1         1         1         1
         1         1         1         1         1         1         1         1
         1         1         1         1         1         1         1         1
         1         1         1         1         1         1         1         1
         1         1         1         1         1         1         1         1
         1         1         1         1         1         1         1         1
         1         1         1         1         1         1         1         1
         1         1         1         1         1         1         1         1
         1         1         1         1         1         1         1         1
         1         1         1         1         1         1         1         1
         1         1         1         1         1         1         1         1
         1         1         1         1         1         1         1         1
         1         1         1         1         1         1         1         1
         1         1         1         1         1         1         1         1
         1         1         1         1         1         1         1         1
         1         1         1         1         1         1         1         1
         1         1         1         1         1         1         1         1
         1         1         1         1         1         1         1         1
         1         1         1         1         1         1         1         1
         1         1         1         1         1         1         1         1
         1         1         1         1         1         1         1         1
         1         1         1         1         1         1         1         1
         1         1         1         1         1         1         1         1
         1         1         1         1         1         1         1         1
         1         1         1         1         1         1         1         1
         1         1         1         1         1         1         1         1
         1         1         1         1         1         1         1         1
         1         1         1         1         1         1         1         1
         1         1         1         1         1         1         1         1
         1         1         1         1         1         1         1         1
         1         1         1         1         1         1         1         1
         1         1         1         1         1         1         1         1
         1         1         1         1         1         1         1         1
         1         1         1         1         1         1         1         1
         1         1         1         1         1         1         1         1
         1         1         1         1         1         1         1         1
         1         1         1         1         1         1         1         1
         1         1         1         1         1         1         1         1
         1         1         1         1         1         1         1         1
         1         1         1         1         1         1         1         1
         1         1         1         1         1         1         1         1
         1         1         1         1         1         1         1         1
         1         1         1         1         1         1         1         1
         1         1         1         1         1         1         1         1
         1         1         1         1         1         1         1         1
         1         1         1         1         1         1         1         1
         1         1         1         1         1         1         1         1
         1         1         1         1         1         1         1         1
         1         1         1         1         1         1         1         1
         1         1         1         1         1         1         1         1
         1         1         1         1         1         1         1         1
         1         1         1         1         1         1         1         1
         1         1         1         1         1         1         1         1
         1         1         1         1         1         1         1         1
         1         1         1         1         1         1         1         1
         1         1         1         1         1         1         1         1
         1         1         1         1         1         1         1         1
         1         1         1         1         1         1         1         1
         1         1         1         1         1         1         1         1
         1         1         1         1         1         1         1         1
         1         1         1         1         1         1         1         1
         1         1         1         1         1         1         1         1
         1         1         1         1         1         1         1         1
         1         1         1         1         1         1         1         1
         1         1         1         1         1         1         1         1
         1         1         1         1         1         1         1         1
         1         1         1         1         1         1         1         1
         1         1         1         1         1         1         1         1
         1         1         1         1         1         1         1         1
         1         1         1         1         1         1         1         1
         1         1         1         1         1         1         1         1
         1         1         1         1         1         1         1         1
         1         1         1         1         1         1         1         1
         1         1         1         1         1         1         1         1
         1         1         1         1         1         1         1         1
         1         1         1         1         1         1         1         1
         1         1         1         1         1         1         1         1
         1         1         1         1         1         1         1         1
         1         1         1         1         1         1         1         1
         1         1         1         1         1         1         1         1
         1         1         1         1         1         1         1         1
         1         1         1         1         1         1         1         1
         1         1         1         1         1         1         1         1
         1         1         1         1         1         1         1         1
         1         1         1         1         1         1         1         1
         1         1         1         1         1         1         1         1
         1         1         1         1         1         1         1         1
         1         1         1         1         1         1         1         1
         1         1         1         1         1         1         1         1
         1         1         1         1         1         1         1         1
         1         1         1         1         1         1         1         1
         1         1         1         1         1         1         1         1
         1         1         1         1         1         1         1         1
         1         1         1         1         1         1         1         1
         1         1         1         1         1         1         1         1
         1         1         1         1         1         1         1         1
         1         1         1         1         1         1         1         1
         1         1         1         1         1         1         1         1
         1         1         1         1         1         1         1         1
         1         1         1         1         1         1         1         1
         1         1         1         1         1         1         1         1
         1         1         1         1         1         1         1         1
         1         1         1         1         1         1         1         1
         1         1         1         1         1         1         1         1
         1         1         1         1         1         1         1         1
         1         1         1         1         1         1         1         1
         1         1         1         1         1         1         1         1
         1         1         1         1         1         1         1         1
         1         1         1         1         1         1         1         1
         1         1         1         1         1         1         1         1
         1         1         1         1         1         1         1         1
         1         1         1         1         1         1         1         1
         1         1         1         1         1         1         1         1
         1         1         1         1         1         1         1         1
         1         1         1         1         1         1         1         1
         1         1         1         1         1         1         1         1
         1         1         1         1         1         1         1         1
         1         1         1         1         1         1         1         1
         1         1         1         1         1         1         1         1
         1         1         1         1         1         1         1         1
         1         1         1         1         1         1         1         1
         1         1         1         1         1         1         1         1
         1         1         1         1         1         1         1         1
         1         1         1         1         1         1         1         1
         1         1         1         1         1         1         1         1
         1         1         1         1         1         1         1         1
         1         1         1         1         1         1         1         1
         1         1         1         1         1         1         1         1
         1         1         1         1         1         1         1         1
         1         1         1         1         1         1         1         1
         1         1         1         1         1         1         1         1
         1         1         1         1         1         1         1         1
         1         1         1         1         1         1         1         1
         1         1         1         1         1         1         1         1
         1         1         1         1         1         1         1         1
         1         1         1         1         1         1         1         1
         1         1         1         1         1         1         1         1
         1         1         1         1         1         1         1         1
         1         1         1         1         1         1         1         1
         1         1         1         1         1         1         1         1
         1         1         1         1         1         1         1         1
         1         1         1         1         1         1         1         1
         1         1         1         1         1         1         1         1
         1         1         1         1         1         1         1         1
         1         1         1         1         1         1         1         1
         1         1         1         1         1         1         1         1
         1         1         1         1         1         1         1         1
         1         1         1         1         1         1         1         1
         1         1         1         1         1         1         1         1
         1         1         1         1         1         1         1         1
         1         1         1         1         1         1         1         1
         1         1         1         1         1         1         1         1
         1         1         1         1         1         1         1         1
         1         1         1         1         1         1         1         1
         1         1         1         1         1         1         1         1
         1         1         1         1         1         1         1         1
         1         1         1         1         1         1         1         1
         1         1         1         1         1         1         1         1
         1         1         1         1         1         1         1         1
         1         1         1         1         1         1         1         1
         1         1         1         1         1         1         1         1
         1         1         1         1         1         1         1         1
         1         1         1         1         1         1         1         1
         1         1         1         1         1         1         1         1
         1         1         1         1         1         1         1         1
         1         1         1         1         1         1         1         1
         1         1         1         1         1         1         1         1
         1         1         1         1         1         1         1         1
         1         1         1         1         1         1         1         1
         1         1         1         1         1         1         1         1
         1         1         1         1         1         1         1         1
         1         1         1         1         1         1         1         1
         1         1         1         1         1         1         1         1
         1         1         1         1         1         1         1         1
         1         1         1         1         1         1         1         1
         1         1         1         1         1         1         1         1
         1         1         1         1         1         1         1         1
         1         1         1         1         1         1         1         1
         1         1         1         1         1         1         1         1
         1         1         1         1         1         1         1         1
         1         1         1         1         1         1         1         1
         1         1         1         1         1         1         1         1
         1         1         1         1         1         1         1         1
         1         1         1         1         1         1         1         1
         1         1         1         1         1         1         1         1
         1         1         1         1         1         1         1         1
         1         1         1         1         1         1         1         1
         1         1         1         1         1         1         1         1
         1         1         1         1         1         1         1         1
         1         1         1         1         1         1         1         1
         1         1         1         1         1         1         1         1
         1         1         1         1         1         1         1         1
         1         1         1         1         1         1         1         1
         1         1         1         1         1         1         1         1
         1         1         1         1         1         1         1         1
         1         1         1         1         1         1         1         1
         1         1         1         1         1         1         1         1
         1         1         1         1         1         1         1         1
         1         1         1         1         1         1         1         1
         1         1         1         1         1         1         1         1
         1         1         1         1         1         1         1         1
         1         1         1         1         1         1         1         1
         1         1         1         1         1         1         1         1
         1         1         1         1         1         1         1         1
         1         1         1         1         1         1         1         1
         1         1         1         1         1         1         1         1
         1         1         1         1         1         1         1         1
         1         1         1         1         1         1         1         1
         1         1         1         1         1         1         1         1
         1         1         1         1         1         1         1         1
         1         1         1         1         1         1         1         1
         1         1         1         1         1         1         1         1
         1         1         1         1         1         1         1         1
         1         1         1         1         1         1         1         1
         1         1         1         1         1         1         1         1
         1         1         1         1         1         1         1         1
         1         1         1         1         1         1         1         1
         1         1         1         1         1         1         1         1
         1         1         1         1         1         1         1         1
         1         1         1         1         1         1         1         1
         1         1         1         1         1         1         1         1
         1         1         1         1         1         1         1         1
         1         1         1         1         1         1         1         1
         1         1         1         1         1         1         1         1
         1         1         1         1         1         1         1         1
         1         1         1         1         1         1         1         1
         1         1         1         1         1         1         1         1
         1         1         1         1         1         1         1         1
         1         1         1         1         1         1         1         1
         1         1         1         1         1         1         1         1
         1         1         1         1         1         1         1         1
         1         1         1         1         1         1         1         1
         1         1         1         1         1         1         1         1
         1         1         1         1         1         1         1         1
         1         1         1         1         1         1         1         1
         1         1         1         1         1         1         1         1
         1         1         1         1         1         1         1         1
         1         1         1         1         1         1         1         1
         1         1         1         1         1         1         1         1
         1         1         1         1         1         1         1         1
         1         1         1         1         1         1         1         1
         1         1         1         1         1         1         1         1
         1         1         1         1         1         1         1         1
         1         1         1         1         1         1         1         1
         1         1         1         1         1         1         1         1
         1         1         1         1         1         1         1         1
         1         1         1         1         1         1         1         1
         1         1         1         1         1         1         1         1
         1         1         1         1         1         1         1         1
         1         1         1         1         1         1         1         1
         1         1         1         1         1         1         1         1
         1         1         1         1         1         1         1         1
         1         1         1         1         1         1         1         1
         1         1         1         1         1         1         1         1
         1         1         1         1         1         1         1         1
         1         1         1         1         1         1         1         1
         1         1         1         1         1         1         1         1
         1         1         1         1         1         1         1         1
         1         1         1         1         1         1         1         1
         1         1         1         1         1         1         1         1
         1         1         1         1         1         1         1         1
         1         1         1         1         1         1         1         1
         1         1         1         1         1         1         1         1
         1         1         1         1         1         1         1         1
         1         1         1         1         1         1         1         1
         1         1         1         1         1         1         1         1
         1         1         1         1         1         1         1         1
         1         1         1         1         1         1         1         1
         1         1         1         1         1         1         1         1
         1         1         1         1         1         1         1         1
         1         1         1         1         1         1         1         1
         1         1         1         1         1         1         1         1
         1         1         1         1         1         1         1         1
         1         1         1         1         1         1         1         1
         1         1         1         1         1         1         1         1
         1         1         1         1         1         1         1         1
         1         1         1         1         1         1         1         1
         1         1         1         1         1         1         1         1
         1         1         1         1         1         1         1         1
         1         1         1         1         1         1         1         1
         1         1         1         1         1         1         1         1
         1         1         1         1         1         1         1         1
         1         1         1         1         1         1         1         1
         1         1         1         1         1         1         1         1
         1         1         1         1         1         1         1         1
         1         1         1         1         1         1         1         1
         1         1         1         1         1         1         1         1
         1         1         1         1         1         1         1         1
         1         1         1         1         1         1         1         1
         1         1         1         1         1         1         1         1
         1         1         1         1         1         1         1         1
         1         1         1         1         1         1         1         1
         1         1         1         1         1         1         1         1
         1         1         1         1         1         1         1         1
         1         1         1         1         1         1         1         1
         1         1         1         1         1         1         1         1
         1         1         1         1         1         1         1         1
         1         1         1         1         1         1         1         1
         1         1         1         1         1         1         1         1
         1         1         1         1         1         1         1         1
         1         1         1         1         1         1         1         1
         1         1         1         1         1         1         1         1
         1         1         1         1         1         1         1         1
         1         1         1         1         1         1         1         1
         1         1         1         1         1         1         1         1
         1         1         1         1         1         1         1         1
         1         1         1         1         1         1         1         1
         1         1         1         1         1         1         1         1
         1         1         1         1         1         1         1         1
         1         1         1         1         1         1         1         1
         1         1         1         1         1         1         1         1
         1         1         1         1         1         1         1         1
         1         1         1         1         1         1         1         1
         1         1         1         1         1         1         1         1
         1         1         1         1         1         1         1         1
         1         1         1         1         1         1         1         1
         1         1         1         1         1         1         1         1
         1         1         1         1         1         1         1         1
         1         1         1         1         1         1         1         1
         1         1         1         1         1         1         1         1
         1         1         1         1         1         1         1         1
         1         1         1         1         1         1         1         1
         1         1         1         1         1         1         1         1
         1         1         1         1         1         1         1         1
         1         1         1         1         1         1         1         1
         1         1         1         1         1         1         1         1
         1         1         1         1         1         1         1         1
         1         1         1         1         1         1         1         1
         1         1         1         1         1         1         1         1
         1         1         1         1         1         1         1         1
         1         1         1         1         1         1         1         1
         1         1         1         1         1         1         1         1
         1         1         1         1         1         1         1         1
         1         1         1         1         1         1         1         1
         1         1         1         1         1         1         1         1
         1         1         1         1         1         1         1         1
         1         1         1         1         1         1         1         1
         1         1         1         1         1         1         1         1
         1         1         1         1         1         1         1         1
         1         1         1         1         1         1         1         1
         1         1         1         1         1         1         1         1
         1         1         1         1         1         1         1         1
         1         1         1         1         1         1         1         1
         1         1         1         1         1         1         1         1
         1         1         1         1         1         1         1         1
         1         1         1         1         1         1         1         1
         1         1         1         1         1         1         1         1
         1         1         1         1         1         1         1         1
         1         1         1         1         1         1         1         1
         1         1         1         1         1         1         1         1
         1         1         1         1         1         1         1         1
         1         1         1         1         1         1         1         1
         1         1         1         1         1         1         1         1
         1         1         1         1         1         1         1         1
         1         1         1         1         1         1         1         1
         1         1         1         1         1         1         1         1
         1         1         1         1         1         1         1         1
         1         1         1         1         1         1         1         1
         1         1         1         1         1         1         1         1
         1         1         1         1         1         1         1         1
         1         1         1         1         1         1         1         1
         1         1         1         1         1         1         1         1
         1         1         1         1         1         1         1         1
         1         1         1         1         1         1         1         1
         1         1         1         1         1         1         1         1
         1         1         1         1         1         1         1         1
         1         1         1         1         1         1         1         1
         1         1         1         1         1         1         1         1
         1         1         1         1         1         1         1         1
         1         1         1         1         1         1         1         1
         1         1         1         1         1         1         1         1
         1         1         1         1         1         1         1         1
         1         1         1         1         1         1         1         1
         1         1         1         1         1         1         1         1
         1         1         1         1         1         1         1         1
         1         1         1         1         1         1         1         1
         1         1         1         1         1         1         1         1
         1         1         1         1         1         1         1         1
         1         1         1         1         1         1         1         1
         1         1         1         1         1         1         1         1
         1         1         1         1         1         1         1         1
         1         1         1         1         1         1         1         1
         1         1         1         1         1         1         1         1
         1         1         1         1         1         1         1         1
         1         1         1         1         1         1         1         1
         1         1         1         1         1         1         1         1
         1         1         1         1         1         1         1         1
         1         1         1         1         1         1         1         1
         1         1         1         1         1         1         1         1
         1         1         1         1         1         1         1         1
         1         1         1         1         1         1         1         1
         1         1         1         1         1         1         1         1
         1         1         1         1         1         1         1         1
         1         1         1         1         1         1         1         1
         1         1         1         1         1         1         1         1
         1         1         1         1         1         1         1         1
         1         1         1         1         1         1         1         1
         1         1         1         1         1         1         1         1
         1         1         1         1         1         1         1         1
         1         1         1         1         1         1         1         1
         1         1         1         1         1         1         1         1
         1         1         1         1         1         1         1         1
         1         1         1         1         1         1         1         1
         1         1         1         1         1         1         1         1
         1         1         1         1         1         1         1         1
         1         1         1         1         1         1         1         1
         1         1         1         1         1         1         1         1
         1         1         1         1         1         1         1         1
         1         1         1         1         1         1         1         1
         1         1         1         1         1         1         1         1
         1         1         1         1         1         1         1         1
         1         1         1         1         1         1         1         1
         1         1         1         1         1         1         1         1
         1         1         1         1         1         1         1         1
         1         1         1         1         1         1         1         1
         1         1         1         1         1         1         1         1
         1         1         1         1         1         1         1         1
         1         1         1         1         1         1         1         1
         1         1         1         1         1         1         1         1
         1         1         1         1         1         1         1         1
         1         1         1         1         1         1         1         1
         1         1         1         1         1         1         1         1
         1         1         1         1         1         1         1         1
         1         1         1         1         1         1         1         1
         1         1         1         1         1         1         1         1
         1         1         1         1         1         1         1         1
         1         1         1         1         1         1         1         1
         1         1         1         1         1         1         1         1
         1         1         1         1         1         1         1         1
         1         1         1         1         1         1         1         1
         1         1         1         1         1         1         1         1
         1         1         1         1         1         1         1         1
         1         1         1         1         1         1         1         1
         1         1         1         1         1         1         1         1
         1         1         1         1         1         1         1         1
         1         1         1         1         1         1         1         1
         1         1         1         1         1         1         1         1
         1         1         1         1         1         1         1         1
         1         1         1         1         1         1         1         1
         1         1         1         1         1         1         1         1
         1         1         1         1         1         1         1         1
         1         1         1         1         1         1         1         1
         1         1         1         1         1         1         1         1
         1         1         1         1         1         1         1         1
         1         1         1         1         1         1         1         1
         1         1         1         1         1         1         1         1
         1         1         1         1         1         1         1         1
         1         1         1         1         1         1         1         1
         1         1         1         1         1         1         1         1
         1         1         1         1         1         1         1         1
         1         1         1         1         1         1         1         1
         1         1         1         1         1         1         1         1
         1         1         1         1         1         1         1         1
         1         1         1         1         1         1         1         1
         1         1         1         1         1         1         1         1
         1         1         1         1         1         1         1         1
         1         1         1         1         1         1         1         1
         1         1         1         1         1         1         1         1
         1         1         1         1         1         1         1         1
         1         1         1         1         1         1         1         1
         1         1         1         1         1         1         1         1
         1         1         1         1         1         1         1         1
         1         1         1         1         1         1         1         1
         1         1         1         1         1         1         1         1
         1         1         1         1         1         1         1         1
         1         1         1         1         1         1         1         1
         1         1         1         1         1         1         1         1
         1         1         1         1         1         1         1         1
         1         1         1         1         1         1         1         1
         1         1         1         1         1         1         1         1
         1         1         1         1         1         1         1         1
         1         1         1         1         1         1         1         1
         1         1         1         1         1         1         1         1
         1         1         1         1         1         1         1         1
         1         1         1         1         1         1         1         1
         1         1         1         1         1         1         1         1
         1         1         1         1         1         1         1         1
         1         1         1         1         1         1         1         1
         1         1         1         1         1         1         1         1
         1         1         1         1         1         1         1         1
         1         1         1         1         1         1         1         1
         1         1         1         1         1         1         1         1
         1         1         1         1         1         1         1         1
         1         1         1         1         1         1         1         1
         1         1         1         1         1         1         1         1
         1         1         1         1         1         1         1         1
         1         1         1         1         1         1         1         1
         1         1         1         1         1         1         1         1
         1         1         1         1         1         1         1         1
         1         1         1         1         1         1         1         1
         1         1         1         1         1         1         1         1
         1         1         1         1         1         1         1         1
         1         1         1         1         1         1         1         1
         1         1         1         1         1         1         1         1
         1         1         1         1         1         1         1         1
         1         1         1         1         1         1         1         1
         1         1         1         1         1         1         1         1
         1         1         1         1         1         1         1         1
         1         1         1         1         1         1         1         1
         1         1         1         1         1         1         1         1
         1         1         1         1         1         1         1         1
         1         1         1         1         1         1         1         1
         1         1         1         1         1         1         1         1
         1         1         1         1         1         1         1         1
         1         1         1         1         1         1         1         1
         1         1         1         1         1         1         1         1
         1         1         1         1         1         1         1         1
         1         1         1         1         1         1         1         1
         1         1         1         1         1         1         1         1
         1         1         1         1         1         1         1         1
         1         1         1         1         1         1         1         1
         1         1         1         1         1         1         1         1
         1         1         1         1         1         1         1         1
         1         1         1         1         1         1         1         1
         1         1         1         1         1         1         1         1
         1         1         1         1         1         1         1         1
         1         1         1         1         1         1         1         1
         1         1         1         1         1         1         1         1
         1         1         1         1         1         1         1         1
         1         1         1         1         1         1         1         1
         1         1         1         1         1         1         1         1
         1         1         1         1         1         1         1         1
         1         1         1         1         1         1         1         1
         1         1         1         1         1         1         1         1
         1         1         1         1         1         1         1         1
         1         1         1         1         1         1         1         1
         1         1         1         1         1         1         1         1
         1         1         1         1         1         1         1         1
         1         1         1         1         1         1         1         1
         1         1         1         1         1         1         1         1
         1         1         1         1         1         1         1         1
         1         1         1         1         1         1         1         1
         1         1         1         1         1         1         1         1
         1         1         1         1         1         1         1         1
         1         1         1         1         1         1         1         1
         1         1         1         1         1         1         1         1
         1         1         1         1         1         1         1         1
         1         1         1         1         1         1         1         1
         1         1         1         1         1         1         1         1
         1         1         1         1         1         1         1         1
         1         1         1         1         1         1         1         1
         1         1         1         1         1         1         1         1
         1         1         1         1         1         1         1         1
         1         1         1         1         1         1         1         1
         1         1         1         1         1         1         1         1
         1         1         1         1         1         1         1         1
         1         1         1         1         1         1         1         1
         1         1         1         1         1         1         1         1
         1         1         1         1         1         1         1         1
         1         1         1         1         1         1         1         1
         1         1         1         1         1         1         1         1
         1         1         1         1         1         1         1         1
         1         1         1         1         1         1         1         1
         1         1         1         1         1         1         1         1
         1         1         1         1         1         1         1         1
         1         1         1         1         1         1         1         1
         1         1         1         1         1         1         1         1
         1         1         1         1         1         1         1         1
         1         1         1         1         1         1         1         1
         1         1         1         1         1         1         1         1
         1         1         1         1         1         1         1         1
         1         1         1         1         1         1         1         1
         1         1         1         1         1         1         1         1
         1         1         1         1         1         1         1         1
         1         1         1         1         1         1         1         1
         1         1         1         1         1         1         1         1
         1         1         1         1         1         1         1         1
         1         1         1         1         1         1         1         1
         1         1         1         1         1         1         1         1
         1         1         1         1         1         1         1         1
         1         1         1         1         1         1         1         1
         1         1         1         1         1         1         1         1
         1         1         1         1         1         1         1         1
         1         1         1         1         1         1         1         1
         1         1         1         1         1         1         1         1
         1         1         1         1         1         1         1         1
         1         1         1         1         1         1         1         1
         1         1         1         1         1         1         1         1
         1         1         1         1         1         1         1         1
         1         1         1         1         1         1         1         1
         1         1         1         1         1         1         1         1
         1         1         1         1         1         1         1         1
         1         1         1         1         1         1         1         1
         1         1         1         1         1         1         1         1
         1         1         1         1         1         1         1         1
         1         1         1         1         1         1         1         1
         1         1         1         1         1         1         1         1
         1         1         1         1         1         1         1         1
         1         1         1         1         1         1         1         1
         1         1         1         1         1         1         1         1
         1         1         1         1         1         1         1         1
         1         1         1         1         1         1         1         1
         1         1         1         1         1         1         1         1
         1         1         1         1         1         1         1         1
         1         1         1         1         1         1         1         1
         1         1         1         1         1         1         1         1
         1         1         1         1         1         1         1         1
         1         1         1         1         1         1         1         1
         1         1         1         1         1         1         1         1
         1         1         1         1         1         1         1         1
         1         1         1         1         1         1         1         1
         1         1         1         1         1         1         1         1
         1         1         1         1         1         1         1         1
         1         1         1         1         1         1         1         1
         1         1         1         1         1         1         1         1
         1         1         1         1         1         1         1         1
         1         1         1         1         1         1         1         1
         1         1         1         1         1         1         1         1
         1         1         1         1         1         1         1         1
         1         1         1         1         1         1         1         1
         1         1         1         1         1         1         1         1
         1         1         1         1         1         1         1         1
         1         1         1         1         1         1         1         1
         1         1         1         1         1         1         1         1
         1         1         1         1         1         1         1         1
         1         1         1         1         1         1         1         1
         1         1         1         1         1         1         1         1
         1         1         1         1         1         1         1         1
         1         1         1         1         1         1         1         1
         1         1         1         1         1         1         1         1
         1         1         1         1         1         1         1         1
         1         1         1         1         1         1         1         1
         1         1         1         1         1         1         1         1
         1         1         1         1         1         1         1         1
         1         1         1         1         1         1         1         1
         1         1         1         1         1         1         1         1
         1         1         1         1         1         1         1         1
         1         1         1         1         1         1         1         1
         1         1         1         1         1         1         1         1
         1         1         1         1         1         1         1         1
         1         1         1         1         1         1         1         1
         1         1         1         1         1         1         1         1
         1         1         1         1         1         1         1         1
         1         1         1         1         1         1         1         1
         1         1         1         1         1         1         1         1
         1         1         1         1         1         1         1         1
         1         1         1         1         1         1         1         1
         1         1         1         1         1         1         1         1
         1         1         1         1         1         1         1         1
         1         1         1         1         1         1         1         1
         1         1         1         1         1         1         1         1
         1         1         1         1         1         1         1         1
         1         1         1         1         1         1         1         1
         1         1         1         1         1         1         1         1
         1         1         1         1         1         1         1         1
         1         1         1         1         1         1         1         1
         1         1         1         1         1         1         1         1
         1         1         1         1         1         1         1         1
         1         1         1         1         1         1         1         1
         1         1         1         1         1         1         1         1
         1         1         1         1         1         1         1         1
         1         1         1         1         1         1         1         1
         1         1         1         1         1         1         1         1
         1         1         1         1         1         1         1         1
         1         1         1         1         1         1         1         1
         1         1         1         1         1         1         1         1
         1         1         1         1         1         1         1         1
         1         1         1         1         1         1         1         1
         1         1         1         1         1         1         1         1
         1         1         1         1         1         1         1         1
         1         1         1         1         1         1         1         1
         1         1         1         1         1         1         1         1
         1         1         1         1         1         1         1         1
         1         1         1         1         1         1         1         1
         1         1         1         1         1         1         1         1
         1         1         1         1         1         1         1         1
         1         1         1         1         1         1         1         1
         1         1         1         1         1         1         1         1
         1         1         1         1         1         1         1         1
         1         1         1         1         1         1         1         1
         1         1         1         1         1         1         1         1
         1         1         1         1         1         1         1         1
         1         1         1         1         1         1         1         1
         1         1         1         1         1         1         1         1
         1         1         1         1         1         1         1         1
         1         1         1         1         1         1         1         1
         1         1         1         1         1         1         1         1
         1         1         1         1         1         1         1         1
         1         1         1         1         1         1         1         1
         1         1         1         1         1         1         1         1
         1         1         1         1         1         1         1         1
         1         1         1         1         1         1         1         1
         1         1         1         1         1         1         1         1
         1         1         1         1         1         1         1         1
         1         1         1         1         1         1         1         1
         1         1         1         1         1         1         1         1
         1         1         1         1         1         1         1         1
         1         1         1         1         1         1         1         1
         1         1         1         1         1         1         1         1
         1         1         1         1         1         1         1         1
         1         1         1         1         1         1         1         1
         1         1         1         1         1         1         1         1
         1         1         1         1         1         1         1         1
         1         1         1         1         1         1         1         1
         1         1         1         1         1         1         1         1
         1         1         1         1         1         1         1         1
         1         1         1         1         1         1         1         1
         1         1         1         1         1         1         1         1
         1         1         1         1         1         1         1         1
         1         1         1         1         1         1         1         1
         1         1         1         1         1         1         1         1
         1         1         1         1         1         1         1         1
         1         1         1         1         1         1         1         1
         1         1         1         1         1         1         1         1
         1         1         1         1         1         1         1         1
         1         1         1         1         1         1         1         1
         1         1         1         1         1         1         1         1
         1         1         1         1         1         1         1         1
         1         1         1         1         1         1         1         1
         1         1         1         1         1         1         1         1
         1         1         1         1         1         1         1         1
         1         1         1         1         1         1         1         1
         1         1         1         1         1         1         1         1
         1         1         1         1         1         1         1         1
         1         1         1         1         1         1         1         1
         1         1         1         1         1         1         1         1
         1         1         1         1         1         1         1         1
         1         1         1         1         1         1         1         1
         1         1         1         1         1         1         1         1
         1         1         1         1         1         1         1         1
         1         1         1         1         1         1         1         1
         1         1         1         1         1         1         1         1
         1         1         1         1         1         1         1         1
         1         1         1         1         1         1         1         1
         1         1         1         1         1         1         1         1
         1         1         1         1         1         1         1         1
         1         1         1         1         1         1         1         1
         1         1         1         1         1         1         1         1
         1         1         1         1         1         1         1         1
         1         1         1         1         1         1         1         1
         1         1         1         1         1         1         1         1
         1         1         1         1         1         1         1         1
         1         1         1         1         1         1         1         1
         1         1         1         1         1         1         1         1
         1         1         1         1         1         1         1         1
         1         1         1         1         1         1         1         1
         1         1         1         1         1         1         1         1
         1         1         1         1         1         1         1         1
         1         1         1         1         1         1         1         1
         1         1         1         1         1         1         1         1
         1         1         1         1         1         1         1         1
         1         1         1         1         1         1         1         1
         1         1         1         1         1         1         1         1
         1         1         1         1         1         1         1         1
         1         1         1         1         1         1         1         1
         1         1         1         1         1         1         1         1
         1         1         1         1         1         1         1         1
         1         1         1         1         1         1         1         1
         1         1         1         1         1         1         1         1
         1         1         1         1         1         1         1         1
         1         1         1         1         1         1         1         1
         1         1         1         1         1         1         1         1
         1         1         1         1         1         1         1         1
         1         1         1         1         1         1         1         1
         1         1         1         1         1         1         1         1
         1         1         1         1         1         1         1         1
         1         1         1         1         1         1         1         1
         1         1         1         1         1         1         1         1
         1         1         1         1         1         1         1         1
         1         1         1         1         1         1         1         1
         1         1         1         1         1         1         1         1
         1         1         1         1         1         1         1         1
         1         1         1         1         1         1         1         1
         1         1         1         1         1         1         1         1
         1         1         1         1         1         1         1         1
         1         1         1         1         1         1         1         1
         1         1         1         1         1         1         1         1
         1         1         1         1         1         1         1         1
         1         1         1         1         1         1         1         1
         1         1         1         1         1         1         1         1
         1         1         1         1         1         1         1         1
         1         1         1         1         1         1         1         1
         1         1         1         1         1         1         1         1
         1         1         1         1         1         1         1         1
         1         1         1         1         1         1         1         1
         1         1         1         1         1         1         1         1
         1         1         1         1         1         1         1         1
         1         1         1         1         1         1         1         1
         1         1         1         1         1         1         1         1
         1         1         1         1         1         1         1         1
         1         1         1         1         1         1         1         1
         1         1         1         1         1         1         1         1
         1         1         1         1         1         1         1         1
         1         1         1         1         1         1         1         1
         1         1         1         1         1         1         1         1
         1         1         1         1         1         1         1         1
         1         1         1         1         1         1         1         1
         1         1         1         1         1         1         1         1
         1         1         1         1         1         1         1         1
         1         1         1         1         1         1         1         1
         1         1         1         1         1         1         1         1
         1         1         1         1         1         1         1         1
         1         1         1         1         1         1         1         1
         1         1         1         1         1         1         1         1
         1         1         1         1         1         1         1         1
         1         1         1         1         1         1         1         1
         1         1         1         1         1         1         1         1
         1         1         1         1         1         1         1         1
         1         1         1         1         1         1         1         1
         1         1         1         1         1         1         1         1
         1         1         1         1         1         1         1         1
         1         1         1         1         1         1         1         1
         1         1         1         1         1         1         1         1
         1         1         1         1         1         1         1         1
         1         1         1         1         1         1         1         1
         1         1         1         1         1         1         1         1
         1         1         1         1         1         1         1         1
         1         1         1         1         1         1         1         1
         1         1         1         1         1         1         1         1
         1         1         1         1         1         1         1         1
         1         1         1         1         1         1         1         1
         1         1         1         1         1         1         1         1
         1         1         1         1         1         1         1         1
         1         1         1         1         1         1         1         1
         1         1         1         1         1         1         1         1
         1         1         1         1         1         1         1         1
         1         1         1         1         1         1         1         1
         1         1         1         1         1         1         1         1
         1         1         1         1         1         1         1         1
         1         1         1         1         1         1         1         1
         1         1         1         1         1         1         1         1
         1         1         1         1         1         1         1         1
         1         1         1         1         1         1         1         1
         1         1         1         1         1         1         1         1
         1         1         1         1         1         1         1         1
         1         1         1         1         1         1         1         1
         1         1         1         1         1         1         1         1
         1         1         1         1         1         1         1         1
         1         1         1         1         1         1         1         1
         1         1         1         1         1         1         1         1
         1         1         1         1         1         1         1         1
         1         1         1         1         1         1         1         1
         1         1         1         1         1         1         1         1
         1         1         1         1         1         1         1         1
         1         1         1         1         1         1         1         1
         1         1         1         1         1         1         1         1
         1         1         1         1         1         1         1         1
         1         1         1         1         1         1         1         1
         1         1         1         1         1         1         1         1
         1         1         1         1         1         1         1         1
         1         1         1         1         1         1         1         1
         1         1         1         1         1         1         1         1
         1         1         1         1         1         1         1         1
         1         1         1         1         1         1         1         1
         1         1         1         1         1         1         1         1

      2750     11000 !NUMLP NUMLPH
         3         1   F -0.300000       179.990       179.990    
         3         5   F -0.300000       179.990       179.990    
         3         9   F -0.300000       179.990       179.990    
         3        13   F -0.300000       179.990       179.990    
         3        17   F -0.300000       179.990       179.990    
         3        21   F -0.300000       179.990       179.990    
         3        25   F -0.300000       179.990       179.990    
         3        29   F -0.300000       179.990       179.990    
         3        33   F -0.300000       179.990       179.990    
         3        37   F -0.300000       179.990       179.990    
         3        41   F -0.300000       179.990       179.990    
         3        45   F -0.300000       179.990       179.990    
         3        49   F -0.300000       179.990       179.990    
         3        53   F -0.300000       179.990       179.990    
         3        57   F -0.300000       179.990       179.990    
         3        61   F -0.300000       179.990       179.990    
         3        65   F -0.300000       179.990       179.990    
         3        69   F -0.300000       179.990       179.990    
         3        73   F -0.300000       179.990       179.990    
         3        77   F -0.300000       179.990       179.990    
         3        81   F -0.300000       179.990       179.990    
         3        85   F -0.300000       179.990       179.990    
         3        89   F -0.300000       179.990       179.990    
         3        93   F -0.300000       179.990       179.990    
         3        97   F -0.300000       179.990       179.990    
         3       101   F -0.300000       179.990       179.990    
         3       105   F -0.300000       179.990       179.990    
         3       109   F -0.300000       179.990       179.990    
         3       113   F -0.300000       179.990       179.990    
         3       117   F -0.300000       179.990       179.990    
         3       121   F -0.300000       179.990       179.990    
         3       125   F -0.300000       179.990       179.990    
         3       129   F -0.300000       179.990       179.990    
         3       133   F -0.300000       179.990       179.990    
         3       137   F -0.300000       179.990       179.990    
         3       141   F -0.300000       179.990       179.990    
         3       145   F -0.300000       179.990       179.990    
         3       149   F -0.300000       179.990       179.990    
         3       153   F -0.300000       179.990       179.990    
         3       157   F -0.300000       179.990       179.990    
         3       161   F -0.300000       179.990       179.990    
         3       165   F -0.300000       179.990       179.990    
         3       169   F -0.300000       179.990       179.990    
         3       173   F -0.300000       179.990       179.990    
         3       177   F -0.300000       179.990       179.990    
         3       181   F -0.300000       179.990       179.990    
         3       185   F -0.300000       179.990       179.990    
         3       189   F -0.300000       179.990       179.990    
         3       193   F -0.300000       179.990       179.990    
         3       197   F -0.300000       179.990       179.990    
         3       201   F -0.300000       179.990       179.990    
         3       205   F -0.300000       179.990       179.990    
         3       209   F -0.300000       179.990       179.990    
         3       213   F -0.300000       179.990       179.990    
         3       217   F -0.300000       179.990       179.990    
         3       221   F -0.300000       179.990       179.990    
         3       225   F -0.300000       179.990       179.990    
         3       229   F -0.300000       179.990       179.990    
         3       233   F -0.300000       179.990       179.990    
         3       237   F -0.300000       179.990       179.990    
         3       241   F -0.300000       179.990       179.990    
         3       245   F -0.300000       179.990       179.990    
         3       249   F -0.300000       179.990       179.990    
         3       253   F -0.300000       179.990       179.990    
         3       257   F -0.300000       179.990       179.990    
         3       261   F -0.300000       179.990       179.990    
         3       265   F -0.300000       179.990       179.990    
         3       269   F -0.300000       179.990       179.990    
         3       273   F -0.300000       179.990       179.990    
         3       277   F -0.300000       179.990       179.990    
         3       281   F -0.300000       179.990       179.990    
         3       285   F -0.300000       179.990       179.990    
         3       289   F -0.300000       179.990       179.990    
         3       293   F -0.300000       179.990       179.990    
         3       297   F -0.300000       179.990       179.990    
         3       301   F -0.300000       179.990       179.990    
         3       305   F -0.300000       179.990       179.990    
         3       309   F -0.300000       179.990       179.990    
         3       313   F -0.300000       179.990       179.990    
         3       317   F -0.300000       179.990       179.990    
         3       321   F -0.300000       179.990       179.990    
         3       325   F -0.300000       179.990       179.990    
         3       329   F -0.300000       179.990       179.990    
         3       333   F -0.300000       179.990       179.990    
         3       337   F -0.300000       179.990       179.990    
         3       341   F -0.300000       179.990       179.990    
         3       345   F -0.300000       179.990       179.990    
         3       349   F -0.300000       179.990       179.990    
         3       353   F -0.300000       179.990       179.990    
         3       357   F -0.300000       179.990       179.990    
         3       361   F -0.300000       179.990       179.990    
         3       365   F -0.300000       179.990       179.990    
         3       369   F -0.300000       179.990       179.990    
         3       373   F -0.300000       179.990       179.990    
         3       377   F -0.300000       179.990       179.990    
         3       381   F -0.300000       179.990       179.990    
         3       385   F -0.300000       179.990       179.990    
         3       389   F -0.300000       179.990       179.990    
         3       393   F -0.300000       179.990       179.990    
         3       397   F -0.300000       179.990       179.990    
         3       401   F -0.300000       179.990       179.990    
         3       405   F -0.300000       179.990       179.990    
         3       409   F -0.300000       179.990       179.990    
         3       413   F -0.300000       179.990       179.990    
         3       417   F -0.300000       179.990       179.990    
         3       421   F -0.300000       179.990       179.990    
         3       425   F -0.300000       179.990       179.990    
         3       429   F -0.300000       179.990       179.990    
         3       433   F -0.300000       179.990       179.990    
         3       437   F -0.300000       179.990       179.990    
         3       441   F -0.300000       179.990       179.990    
         3       445   F -0.300000       179.990       179.990    
         3       449   F -0.300000       179.990       179.990    
         3       453   F -0.300000       179.990       179.990    
         3       457   F -0.300000       179.990       179.990    
         3       461   F -0.300000       179.990       179.990    
         3       465   F -0.300000       179.990       179.990    
         3       469   F -0.300000       179.990       179.990    
         3       473   F -0.300000       179.990       179.990    
         3       477   F -0.300000       179.990       179.990    
         3       481   F -0.300000       179.990       179.990    
         3       485   F -0.300000       179.990       179.990    
         3       489   F -0.300000       179.990       179.990    
         3       493   F -0.300000       179.990       179.990    
         3       497   F -0.300000       179.990       179.990    
         3       501   F -0.300000       179.990       179.990    
         3       505   F -0.300000       179.990       179.990    
         3       509   F -0.300000       179.990       179.990    
         3       513   F -0.300000       179.990       179.990    
         3       517   F -0.300000       179.990       179.990    
         3       521   F -0.300000       179.990       179.990    
         3       525   F -0.300000       179.990       179.990    
         3       529   F -0.300000       179.990       179.990    
         3       533   F -0.300000       179.990       179.990    
         3       537   F -0.300000       179.990       179.990    
         3       541   F -0.300000       179.990       179.990    
         3       545   F -0.300000       179.990       179.990    
         3       549   F -0.300000       179.990       179.990    
         3       553   F -0.300000       179.990       179.990    
         3       557   F -0.300000       179.990       179.990    
         3       561   F -0.300000       179.990       179.990    
         3       565   F -0.300000       179.990       179.990    
         3       569   F -0.300000       179.990       179.990    
         3       573   F -0.300000       179.990       179.990    
         3       577   F -0.300000       179.990       179.990    
         3       581   F -0.300000       179.990       179.990    
         3       585   F -0.300000       179.990       179.990    
         3       589   F -0.300000       179.990       179.990    
         3       593   F -0.300000       179.990       179.990    
         3       597   F -0.300000       179.990       179.990    
         3       601   F -0.300000       179.990       179.990    
         3       605   F -0.300000       179.990       179.990    
         3       609   F -0.300000       179.990       179.990    
         3       613   F -0.300000       179.990       179.990    
         3       617   F -0.300000       179.990       179.990    
         3       621   F -0.300000       179.990       179.990    
         3       625   F -0.300000       179.990       179.990    
         3       629   F -0.300000       179.990       179.990    
         3       633   F -0.300000       179.990       179.990    
         3       637   F -0.300000       179.990       179.990    
         3       641   F -0.300000       179.990       179.990    
         3       645   F -0.300000       179.990       179.990    
         3       649   F -0.300000       179.990       179.990    
         3       653   F -0.300000       179.990       179.990    
         3       657   F -0.300000       179.990       179.990    
         3       661   F -0.300000       179.990       179.990    
         3       665   F -0.300000       179.990       179.990    
         3       669   F -0.300000       179.990       179.990    
         3       673   F -0.300000       179.990       179.990    
         3       677   F -0.300000       179.990       179.990    
         3       681   F -0.300000       179.990       179.990    
         3       685   F -0.300000       179.990       179.990    
         3       689   F -0.300000       179.990       179.990    
         3       693   F -0.300000       179.990       179.990    
         3       697   F -0.300000       179.990       179.990    
         3       701   F -0.300000       179.990       179.990    
         3       705   F -0.300000       179.990       179.990    
         3       709   F -0.300000       179.990       179.990    
         3       713   F -0.300000       179.990       179.990    
         3       717   F -0.300000       179.990       179.990    
         3       721   F -0.300000       179.990       179.990    
         3       725   F -0.300000       179.990       179.990    
         3       729   F -0.300000       179.990       179.990    
         3       733   F -0.300000       179.990       179.990    
         3       737   F -0.300000       179.990       179.990    
         3       741   F -0.300000       179.990       179.990    
         3       745   F -0.300000       179.990       179.990    
         3       749   F -0.300000       179.990       179.990    
         3       753   F -0.300000       179.990       179.990    
         3       757   F -0.300000       179.990       179.990    
         3       761   F -0.300000       179.990       179.990    
         3       765   F -0.300000       179.990       179.990    
         3       769   F -0.300000       179.990       179.990    
         3       773   F -0.300000       179.990       179.990    
         3       777   F -0.300000       179.990       179.990    
         3       781   F -0.300000       179.990       179.990    
         3       785   F -0.300000       179.990       179.990    
         3       789   F -0.300000       179.990       179.990    
         3       793   F -0.300000       179.990       179.990    
         3       797   F -0.300000       179.990       179.990    
         3       801   F -0.300000       179.990       179.990    
         3       805   F -0.300000       179.990       179.990    
         3       809   F -0.300000       179.990       179.990    
         3       813   F -0.300000       179.990       179.990    
         3       817   F -0.300000       179.990       179.990    
         3       821   F -0.300000       179.990       179.990    
         3       825   F -0.300000       179.990       179.990    
         3       829   F -0.300000       179.990       179.990    
         3       833   F -0.300000       179.990       179.990    
         3       837   F -0.300000       179.990       179.990    
         3       841   F -0.300000       179.990       179.990    
         3       845   F -0.300000       179.990       179.990    
         3       849   F -0.300000       179.990       179.990    
         3       853   F -0.300000       179.990       179.990    
         3       857   F -0.300000       179.990       179.990    
         3       861   F -0.300000       179.990       179.990    
         3       865   F -0.300000       179.990       179.990    
         3       869   F -0.300000       179.990       179.990    
         3       873   F -0.300000       179.990       179.990    
         3       877   F -0.300000       179.990       179.990    
         3       881   F -0.300000       179.990       179.990    
         3       885   F -0.300000       179.990       179.990    
         3       889   F -0.300000       179.990       179.990    
         3       893   F -0.300000       179.990       179.990    
         3       897   F -0.300000       179.990       179.990    
         3       901   F -0.300000       179.990       179.990    
         3       905   F -0.300000       179.990       179.990    
         3       909   F -0.300000       179.990       179.990    
         3       913   F -0.300000       179.990       179.990    
         3       917   F -0.300000       179.990       179.990    
         3       921   F -0.300000       179.990       179.990    
         3       925   F -0.300000       179.990       179.990    
         3       929   F -0.300000       179.990       179.990    
         3       933   F -0.300000       179.990       179.990    
         3       937   F -0.300000       179.990       179.990    
         3       941   F -0.300000       179.990       179.990    
         3       945   F -0.300000       179.990       179.990    
         3       949   F -0.300000       179.990       179.990    
         3       953   F -0.300000       179.990       179.990    
         3       957   F -0.300000       179.990       179.990    
         3       961   F -0.300000       179.990       179.990    
         3       965   F -0.300000       179.990       179.990    
         3       969   F -0.300000       179.990       179.990    
         3       973   F -0.300000       179.990       179.990    
         3       977   F -0.300000       179.990       179.990    
         3       981   F -0.300000       179.990       179.990    
         3       985   F -0.300000       179.990       179.990    
         3       989   F -0.300000       179.990       179.990    
         3       993   F -0.300000       179.990       179.990    
         3       997   F -0.300000       179.990       179.990    
         3      1001   F -0.300000       179.990       179.990    
         3      1005   F -0.300000       179.990       179.990    
         3      1009   F -0.300000       179.990       179.990    
         3      1013   F -0.300000       179.990       179.990    
         3      1017   F -0.300000       179.990       179.990    
         3      1021   F -0.300000       179.990       179.990    
         3      1025   F -0.300000       179.990       179.990    
         3      1029   F -0.300000       179.990       179.990    
         3      1033   F -0.300000       179.990       179.990    
         3      1037   F -0.300000       179.990       179.990    
         3      1041   F -0.300000       179.990       179.990    
         3      1045   F -0.300000       179.990       179.990    
         3      1049   F -0.300000       179.990       179.990    
         3      1053   F -0.300000       179.990       179.990    
         3      1057   F -0.300000       179.990       179.990    
         3      1061   F -0.300000       179.990       179.990    
         3      1065   F -0.300000       179.990       179.990    
         3      1069   F -0.300000       179.990       179.990    
         3      1073   F -0.300000       179.990       179.990    
         3      1077   F -0.300000       179.990       179.990    
         3      1081   F -0.300000       179.990       179.990    
         3      1085   F -0.300000       179.990       179.990    
         3      1089   F -0.300000       179.990       179.990    
         3      1093   F -0.300000       179.990       179.990    
         3      1097   F -0.300000       179.990       179.990    
         3      1101   F -0.300000       179.990       179.990    
         3      1105   F -0.300000       179.990       179.990    
         3      1109   F -0.300000       179.990       179.990    
         3      1113   F -0.300000       179.990       179.990    
         3      1117   F -0.300000       179.990       179.990    
         3      1121   F -0.300000       179.990       179.990    
         3      1125   F -0.300000       179.990       179.990    
         3      1129   F -0.300000       179.990       179.990    
         3      1133   F -0.300000       179.990       179.990    
         3      1137   F -0.300000       179.990       179.990    
         3      1141   F -0.300000       179.990       179.990    
         3      1145   F -0.300000       179.990       179.990    
         3      1149   F -0.300000       179.990       179.990    
         3      1153   F -0.300000       179.990       179.990    
         3      1157   F -0.300000       179.990       179.990    
         3      1161   F -0.300000       179.990       179.990    
         3      1165   F -0.300000       179.990       179.990    
         3      1169   F -0.300000       179.990       179.990    
         3      1173   F -0.300000       179.990       179.990    
         3      1177   F -0.300000       179.990       179.990    
         3      1181   F -0.300000       179.990       179.990    
         3      1185   F -0.300000       179.990       179.990    
         3      1189   F -0.300000       179.990       179.990    
         3      1193   F -0.300000       179.990       179.990    
         3      1197   F -0.300000       179.990       179.990    
         3      1201   F -0.300000       179.990       179.990    
         3      1205   F -0.300000       179.990       179.990    
         3      1209   F -0.300000       179.990       179.990    
         3      1213   F -0.300000       179.990       179.990    
         3      1217   F -0.300000       179.990       179.990    
         3      1221   F -0.300000       179.990       179.990    
         3      1225   F -0.300000       179.990       179.990    
         3      1229   F -0.300000       179.990       179.990    
         3      1233   F -0.300000       179.990       179.990    
         3      1237   F -0.300000       179.990       179.990    
         3      1241   F -0.300000       179.990       179.990    
         3      1245   F -0.300000       179.990       179.990    
         3      1249   F -0.300000       179.990       179.990    
         3      1253   F -0.300000       179.990       179.990    
         3      1257   F -0.300000       179.990       179.990    
         3      1261   F -0.300000       179.990       179.990    
         3      1265   F -0.300000       179.990       179.990    
         3      1269   F -0.300000       179.990       179.990    
         3      1273   F -0.300000       179.990       179.990    
         3      1277   F -0.300000       179.990       179.990    
         3      1281   F -0.300000       179.990       179.990    
         3      1285   F -0.300000       179.990       179.990    
         3      1289   F -0.300000       179.990       179.990    
         3      1293   F -0.300000       179.990       179.990    
         3      1297   F -0.300000       179.990       179.990    
         3      1301   F -0.300000       179.990       179.990    
         3      1305   F -0.300000       179.990       179.990    
         3      1309   F -0.300000       179.990       179.990    
         3      1313   F -0.300000       179.990       179.990    
         3      1317   F -0.300000       179.990       179.990    
         3      1321   F -0.300000       179.990       179.990    
         3      1325   F -0.300000       179.990       179.990    
         3      1329   F -0.300000       179.990       179.990    
         3      1333   F -0.300000       179.990       179.990    
         3      1337   F -0.300000       179.990       179.990    
         3      1341   F -0.300000       179.990       179.990    
         3      1345   F -0.300000       179.990       179.990    
         3      1349   F -0.300000       179.990       179.990    
         3      1353   F -0.300000       179.990       179.990    
         3      1357   F -0.300000       179.990       179.990    
         3      1361   F -0.300000       179.990       179.990    
         3      1365   F -0.300000       179.990       179.990    
         3      1369   F -0.300000       179.990       179.990    
         3      1373   F -0.300000       179.990       179.990    
         3      1377   F -0.300000       179.990       179.990    
         3      1381   F -0.300000       179.990       179.990    
         3      1385   F -0.300000       179.990       179.990    
         3      1389   F -0.300000       179.990       179.990    
         3      1393   F -0.300000       179.990       179.990    
         3      1397   F -0.300000       179.990       179.990    
         3      1401   F -0.300000       179.990       179.990    
         3      1405   F -0.300000       179.990       179.990    
         3      1409   F -0.300000       179.990       179.990    
         3      1413   F -0.300000       179.990       179.990    
         3      1417   F -0.300000       179.990       179.990    
         3      1421   F -0.300000       179.990       179.990    
         3      1425   F -0.300000       179.990       179.990    
         3      1429   F -0.300000       179.990       179.990    
         3      1433   F -0.300000       179.990       179.990    
         3      1437   F -0.300000       179.990       179.990    
         3      1441   F -0.300000       179.990       179.990    
         3      1445   F -0.300000       179.990       179.990    
         3      1449   F -0.300000       179.990       179.990    
         3      1453   F -0.300000       179.990       179.990    
         3      1457   F -0.300000       179.990       179.990    
         3      1461   F -0.300000       179.990       179.990    
         3      1465   F -0.300000       179.990       179.990    
         3      1469   F -0.300000       179.990       179.990    
         3      1473   F -0.300000       179.990       179.990    
         3      1477   F -0.300000       179.990       179.990    
         3      1481   F -0.300000       179.990       179.990    
         3      1485   F -0.300000       179.990       179.990    
         3      1489   F -0.300000       179.990       179.990    
         3      1493   F -0.300000       179.990       179.990    
         3      1497   F -0.300000       179.990       179.990    
         3      1501   F -0.300000       179.990       179.990    
         3      1505   F -0.300000       179.990       179.990    
         3      1509   F -0.300000       179.990       179.990    
         3      1513   F -0.300000       179.990       179.990    
         3      1517   F -0.300000       179.990       179.990    
         3      1521   F -0.300000       179.990       179.990    
         3      1525   F -0.300000       179.990       179.990    
         3      1529   F -0.300000       179.990       179.990    
         3      1533   F -0.300000       179.990       179.990    
         3      1537   F -0.300000       179.990       179.990    
         3      1541   F -0.300000       179.990       179.990    
         3      1545   F -0.300000       179.990       179.990    
         3      1549   F -0.300000       179.990       179.990    
         3      1553   F -0.300000       179.990       179.990    
         3      1557   F -0.300000       179.990       179.990    
         3      1561   F -0.300000       179.990       179.990    
         3      1565   F -0.300000       179.990       179.990    
         3      1569   F -0.300000       179.990       179.990    
         3      1573   F -0.300000       179.990       179.990    
         3      1577   F -0.300000       179.990       179.990    
         3      1581   F -0.300000       179.990       179.990    
         3      1585   F -0.300000       179.990       179.990    
         3      1589   F -0.300000       179.990       179.990    
         3      1593   F -0.300000       179.990       179.990    
         3      1597   F -0.300000       179.990       179.990    
         3      1601   F -0.300000       179.990       179.990    
         3      1605   F -0.300000       179.990       179.990    
         3      1609   F -0.300000       179.990       179.990    
         3      1613   F -0.300000       179.990       179.990    
         3      1617   F -0.300000       179.990       179.990    
         3      1621   F -0.300000       179.990       179.990    
         3      1625   F -0.300000       179.990       179.990    
         3      1629   F -0.300000       179.990       179.990    
         3      1633   F -0.300000       179.990       179.990    
         3      1637   F -0.300000       179.990       179.990    
         3      1641   F -0.300000       179.990       179.990    
         3      1645   F -0.300000       179.990       179.990    
         3      1649   F -0.300000       179.990       179.990    
         3      1653   F -0.300000       179.990       179.990    
         3      1657   F -0.300000       179.990       179.990    
         3      1661   F -0.300000       179.990       179.990    
         3      1665   F -0.300000       179.990       179.990    
         3      1669   F -0.300000       179.990       179.990    
         3      1673   F -0.300000       179.990       179.990    
         3      1677   F -0.300000       179.990       179.990    
         3      1681   F -0.300000       179.990       179.990    
         3      1685   F -0.300000       179.990       179.990    
         3      1689   F -0.300000       179.990       179.990    
         3      1693   F -0.300000       179.990       179.990    
         3      1697   F -0.300000       179.990       179.990    
         3      1701   F -0.300000       179.990       179.990    
         3      1705   F -0.300000       179.990       179.990    
         3      1709   F -0.300000       179.990       179.990    
         3      1713   F -0.300000       179.990       179.990    
         3      1717   F -0.300000       179.990       179.990    
         3      1721   F -0.300000       179.990       179.990    
         3      1725   F -0.300000       179.990       179.990    
         3      1729   F -0.300000       179.990       179.990    
         3      1733   F -0.300000       179.990       179.990    
         3      1737   F -0.300000       179.990       179.990    
         3      1741   F -0.300000       179.990       179.990    
         3      1745   F -0.300000       179.990       179.990    
         3      1749   F -0.300000       179.990       179.990    
         3      1753   F -0.300000       179.990       179.990    
         3      1757   F -0.300000       179.990       179.990    
         3      1761   F -0.300000       179.990       179.990    
         3      1765   F -0.300000       179.990       179.990    
         3      1769   F -0.300000       179.990       179.990    
         3      1773   F -0.300000       179.990       179.990    
         3      1777   F -0.300000       179.990       179.990    
         3      1781   F -0.300000       179.990       179.990    
         3      1785   F -0.300000       179.990       179.990    
         3      1789   F -0.300000       179.990       179.990    
         3      1793   F -0.300000       179.990       179.990    
         3      1797   F -0.300000       179.990       179.990    
         3      1801   F -0.300000       179.990       179.990    
         3      1805   F -0.300000       179.990       179.990    
         3      1809   F -0.300000       179.990       179.990    
         3      1813   F -0.300000       179.990       179.990    
         3      1817   F -0.300000       179.990       179.990    
         3      1821   F -0.300000       179.990       179.990    
         3      1825   F -0.300000       179.990       179.990    
         3      1829   F -0.300000       179.990       179.990    
         3      1833   F -0.300000       179.990       179.990    
         3      1837   F -0.300000       179.990       179.990    
         3      1841   F -0.300000       179.990       179.990    
         3      1845   F -0.300000       179.990       179.990    
         3      1849   F -0.300000       179.990       179.990    
         3      1853   F -0.300000       179.990       179.990    
         3      1857   F -0.300000       179.990       179.990    
         3      1861   F -0.300000       179.990       179.990    
         3      1865   F -0.300000       179.990       179.990    
         3      1869   F -0.300000       179.990       179.990    
         3      1873   F -0.300000       179.990       179.990    
         3      1877   F -0.300000       179.990       179.990    
         3      1881   F -0.300000       179.990       179.990    
         3      1885   F -0.300000       179.990       179.990    
         3      1889   F -0.300000       179.990       179.990    
         3      1893   F -0.300000       179.990       179.990    
         3      1897   F -0.300000       179.990       179.990    
         3      1901   F -0.300000       179.990       179.990    
         3      1905   F -0.300000       179.990       179.990    
         3      1909   F -0.300000       179.990       179.990    
         3      1913   F -0.300000       179.990       179.990    
         3      1917   F -0.300000       179.990       179.990    
         3      1921   F -0.300000       179.990       179.990    
         3      1925   F -0.300000       179.990       179.990    
         3      1929   F -0.300000       179.990       179.990    
         3      1933   F -0.300000       179.990       179.990    
         3      1937   F -0.300000       179.990       179.990    
         3      1941   F -0.300000       179.990       179.990    
         3      1945   F -0.300000       179.990       179.990    
         3      1949   F -0.300000       179.990       179.990    
         3      1953   F -0.300000       179.990       179.990    
         3      1957   F -0.300000       179.990       179.990    
         3      1961   F -0.300000       179.990       179.990    
         3      1965   F -0.300000       179.990       179.990    
         3      1969   F -0.300000       179.990       179.990    
         3      1973   F -0.300000       179.990       179.990    
         3      1977   F -0.300000       179.990       179.990    
         3      1981   F -0.300000       179.990       179.990    
         3      1985   F -0.300000       179.990       179.990    
         3      1989   F -0.300000       179.990       179.990    
         3      1993   F -0.300000       179.990       179.990    
         3      1997   F -0.300000       179.990       179.990    
         3      2001   F  0.350000       110.000       0.00000    
         3      2005   F  0.350000       110.000       180.000    
         3      2009   F  0.350000       110.000       0.00000    
         3      2013   F  0.350000       110.000       180.000    
         3      2017   F  0.350000       110.000       0.00000    
         3      2021   F  0.350000       110.000       180.000    
         3      2025   F  0.350000       110.000       0.00000    
         3      2029   F  0.350000       110.000       180.000    
         3      2033   F  0.350000       110.000       0.00000    
         3      2037   F  0.350000       110.000       180.000    
         3      2041   F  0.350000       110.000       0.00000    
         3      2045   F  0.350000       110.000       180.000    
         3      2049   F  0.350000       110.000       0.00000    
         3      2053   F  0.350000       110.000       180.000    
         3      2057   F  0.350000       110.000       0.00000    
         3      2061   F  0.350000       110.000       180.000    
         3      2065   F  0.350000       110.000       0.00000    
         3      2069   F  0.350000       110.000       180.000    
         3      2073   F  0.350000       110.000       0.00000    
         3      2077   F  0.350000       110.000       180.000    
         3      2081   F  0.350000       110.000       0.00000    
         3      2085   F  0.350000       110.000       180.000    
         3      2089   F  0.350000       110.000       0.00000    
         3      2093   F  0.350000       110.000       180.000    
         3      2097   F  0.350000       110.000       0.00000    
         3      2101   F  0.350000       110.000       180.000    
         3      2105   F  0.350000       110.000       0.00000    
         3      2109   F  0.350000       110.000       180.000    
         3      2113   F  0.350000       110.000       0.00000    
         3      2117   F  0.350000       110.000       180.000    
         3      2121   F  0.350000       110.000       0.00000    
         3      2125   F  0.350000       110.000       180.000    
         3      2129   F  0.350000       110.000       0.00000    
         3      2133   F  0.350000       110.000       180.000    
         3      2137   F  0.350000       110.000       0.00000    
         3      2141   F  0.350000       110.000       180.000    
         3      2145   F  0.350000       110.000       0.00000    
         3      2149   F  0.350000       110.000       180.000    
         3      2153   F  0.350000       110.000       0.00000    
         3      2157   F  0.350000       110.000       180.000    
         3      2161   F  0.350000       110.000       0.00000    
         3      2165   F  0.350000       110.000       180.000    
         3      2169   F  0.350000       110.000       0.00000    
         3      2173   F  0.350000       110.000       180.000    
         3      2177   F  0.350000       110.000       0.00000    
         3      2181   F  0.350000       110.000       180.000    
         3      2185   F  0.350000       110.000       0.00000    
         3      2189   F  0.350000       110.000       180.000    
         3      2193   F  0.350000       110.000       0.00000    
         3      2197   F  0.350000       110.000       180.000    
         3      2201   F  0.350000       110.000       0.00000    
         3      2205   F  0.350000       110.000       180.000    
         3      2209   F  0.350000       110.000       0.00000    
         3      2213   F  0.350000       110.000       180.000    
         3      2217   F  0.350000       110.000       0.00000    
         3      2221   F  0.350000       110.000       180.000    
         3      2225   F  0.350000       110.000       0.00000    
         3      2229   F  0.350000       110.000       180.000    
         3      2233   F  0.350000       110.000       0.00000    
         3      2237   F  0.350000       110.000       180.000    
         3      2241   F  0.350000       110.000       0.00000    
         3      2245   F  0.350000       110.000       180.000    
         3      2249   F  0.350000       110.000       0.00000    
         3      2253   F  0.350000       110.000       180.000    
         3      2257   F  0.350000       110.000       0.00000    
         3      2261   F  0.350000       110.000       180.000    
         3      2265   F  0.350000       110.000       0.00000    
         3      2269   F  0.350000       110.000       180.000    
         3      2273   F  0.350000       110.000       0.00000    
         3      2277   F  0.350000       110.000       180.000    
         3      2281   F  0.350000       110.000       0.00000    
         3      2285   F  0.350000       110.000       180.000    
         3      2289   F  0.350000       110.000       0.00000    
         3      2293   F  0.350000       110.000       180.000    
         3      2297   F  0.350000       110.000       0.00000    
         3      2301   F  0.350000       110.000       180.000    
         3      2305   F  0.350000       110.000       0.00000    
         3      2309   F  0.350000       110.000       180.000    
         3      2313   F  0.350000       110.000       0.00000    
         3      2317   F  0.350000       110.000       180.000    
         3      2321   F  0.350000       110.000       0.00000    
         3      2325   F  0.350000       110.000       180.000    
         3      2329   F  0.350000       110.000       0.00000    
         3      2333   F  0.350000       110.000       180.000    
         3      2337   F  0.350000       110.000       0.00000    
         3      2341   F  0.350000       110.000       180.000    
         3      2345   F  0.350000       110.000       0.00000    
         3      2349   F  0.350000       110.000       180.000    
         3      2353   F  0.350000       110.000       0.00000    
         3      2357   F  0.350000       110.000       180.000    
         3      2361   F  0.350000       110.000       0.00000    
         3      2365   F  0.350000       110.000       180.000    
         3      2369   F  0.350000       110.000       0.00000    
         3      2373   F  0.350000       110.000       180.000    
         3      2377   F  0.350000       110.000       0.00000    
         3      2381   F  0.350000       110.000       180.000    
         3      2385   F  0.350000       110.000       0.00000    
         3      2389   F  0.350000       110.000       180.000    
         3      2393   F  0.350000       110.000       0.00000    
         3      2397   F  0.350000       110.000       180.000    
         3      2401   F  0.350000       110.000       0.00000    
         3      2405   F  0.350000       110.000       180.000    
         3      2409   F  0.350000       110.000       0.00000    
         3      2413   F  0.350000       110.000       180.000    
         3      2417   F  0.350000       110.000       0.00000    
         3      2421   F  0.350000       110.000       180.000    
         3      2425   F  0.350000       110.000       0.00000    
         3      2429   F  0.350000       110.000       180.000    
         3      2433   F  0.350000       110.000       0.00000    
         3      2437   F  0.350000       110.000       180.000    
         3      2441   F  0.350000       110.000       0.00000    
         3      2445   F  0.350000       110.000       180.000    
         3      2449   F  0.350000       110.000       0.00000    
         3      2453   F  0.350000       110.000       180.000    
         3      2457   F  0.350000       110.000       0.00000    
         3      2461   F  0.350000       110.000       180.000    
         3      2465   F  0.350000       110.000       0.00000    
         3      2469   F  0.350000       110.000       180.000    
         3      2473   F  0.350000       110.000       0.00000    
         3      2477   F  0.350000       110.000       180.000    
         3      2481   F  0.350000       110.000       0.00000    
         3      2485   F  0.350000       110.000       180.000    
         3      2489   F  0.350000       110.000       0.00000    
         3      2493   F  0.350000       110.000       180.000    
         3      2497   F  0.350000       110.000       0.00000    
         3      2501   F  0.350000       110.000       180.000    
         3      2505   F  0.350000       110.000       0.00000    
         3      2509   F  0.350000       110.000       180.000    
         3      2513   F  0.350000       110.000       0.00000    
         3      2517   F  0.350000       110.000       180.000    
         3      2521   F  0.350000       110.000       0.00000    
         3      2525   F  0.350000       110.000       180.000    
         3      2529   F  0.350000       110.000       0.00000    
         3      2533   F  0.350000       110.000       180.000    
         3      2537   F  0.350000       110.000       0.00000    
         3      2541   F  0.350000       110.000       180.000    
         3      2545   F  0.350000       110.000       0.00000    
         3      2549   F  0.350000       110.000       180.000    
         3      2553   F  0.350000       110.000       0.00000    
         3      2557   F  0.350000       110.000       180.000    
         3      2561   F  0.350000       110.000       0.00000    
         3      2565   F  0.350000       110.000       180.000    
         3      2569   F  0.350000       110.000       0.00000    
         3      2573   F  0.350000       110.000       180.000    
         3      2577   F  0.350000       110.000       0.00000    
         3      2581   F  0.350000       110.000       180.000    
         3      2585   F  0.350000       110.000       0.00000    
         3      2589   F  0.350000       110.000       180.000    
         3      2593   F  0.350000       110.000       0.00000    
         3      2597   F  0.350000       110.000       180.000    
         3      2601   F  0.350000       110.000       0.00000    
         3      2605   F  0.350000       110.000       180.000    
         3      2609   F  0.350000       110.000       0.00000    
         3      2613   F  0.350000       110.000       180.000    
         3      2617   F  0.350000       110.000       0.00000    
         3      2621   F  0.350000       110.000       180.000    
         3      2625   F  0.350000       110.000       0.00000    
         3      2629   F  0.350000       110.000       180.000    
         3      2633   F  0.350000       110.000       0.00000    
         3      2637   F  0.350000       110.000       180.000    
         3      2641   F  0.350000       110.000       0.00000    
         3      2645   F  0.350000       110.000       180.000    
         3      2649   F  0.350000       110.000       0.00000    
         3      2653   F  0.350000       110.000       180.000    
         3      2657   F  0.350000       110.000       0.00000    
         3      2661   F  0.350000       110.000       180.000    
         3      2665   F  0.350000       110.000       0.00000    
         3      2669   F  0.350000       110.000       180.000    
         3      2673   F  0.350000       110.000       0.00000    
         3      2677   F  0.350000       110.000       180.000    
         3      2681   F  0.350000       110.000       0.00000    
         3      2685   F  0.350000       110.000       180.000    
         3      2689   F  0.350000       110.000       0.00000    
         3      2693   F  0.350000       110.000       180.000    
         3      2697   F  0.350000       110.000       0.00000    
         3      2701   F  0.350000       110.000       180.000    
         3      2705   F  0.350000       110.000       0.00000    
         3      2709   F  0.350000       110.000       180.000    
         3      2713   F  0.350000       110.000       0.00000    
         3      2717   F  0.350000       110.000       180.000    
         3      2721   F  0.350000       110.000       0.00000    
         3      2725   F  0.350000       110.000       180.000    
         3      2729   F  0.350000       110.000       0.00000    
         3      2733   F  0.350000       110.000       180.000    
         3      2737   F  0.350000       110.000       0.00000    
         3      2741   F  0.350000       110.000       180.000    
         3      2745   F  0.350000       110.000       0.00000    
         3      2749   F  0.350000       110.000       180.000    
         3      2753   F  0.350000       110.000       0.00000    
         3      2757   F  0.350000       110.000       180.000    
         3      2761   F  0.350000       110.000       0.00000    
         3      2765   F  0.350000       110.000       180.000    
         3      2769   F  0.350000       110.000       0.00000    
         3      2773   F  0.350000       110.000       180.000    
         3      2777   F  0.350000       110.000       0.00000    
         3      2781   F  0.350000       110.000       180.000    
         3      2785   F  0.350000       110.000       0.00000    
         3      2789   F  0.350000       110.000       180.000    
         3      2793   F  0.350000       110.000       0.00000    
         3      2797   F  0.350000       110.000       180.000    
         3      2801   F  0.350000       110.000       0.00000    
         3      2805   F  0.350000       110.000       180.000    
         3      2809   F  0.350000       110.000       0.00000    
         3      2813   F  0.350000       110.000       180.000    
         3      2817   F  0.350000       110.000       0.00000    
         3      2821   F  0.350000       110.000       180.000    
         3      2825   F  0.350000       110.000       0.00000    
         3      2829   F  0.350000       110.000       180.000    
         3      2833   F  0.350000       110.000       0.00000    
         3      2837   F  0.350000       110.000       180.000    
         3      2841   F  0.350000       110.000       0.00000    
         3      2845   F  0.350000       110.000       180.000    
         3      2849   F  0.350000       110.000       0.00000    
         3      2853   F  0.350000       110.000       180.000    
         3      2857   F  0.350000       110.000       0.00000    
         3      2861   F  0.350000       110.000       180.000    
         3      2865   F  0.350000       110.000       0.00000    
         3      2869   F  0.350000       110.000       180.000    
         3      2873   F  0.350000       110.000       0.00000    
         3      2877   F  0.350000       110.000       180.000    
         3      2881   F  0.350000       110.000       0.00000    
         3      2885   F  0.350000       110.000       180.000    
         3      2889   F  0.350000       110.000       0.00000    
         3      2893   F  0.350000       110.000       180.000    
         3      2897   F  0.350000       110.000       0.00000    
         3      2901   F  0.350000       110.000       180.000    
         3      2905   F  0.350000       110.000       0.00000    
         3      2909   F  0.350000       110.000       180.000    
         3      2913   F  0.350000       110.000       0.00000    
         3      2917   F  0.350000       110.000       180.000    
         3      2921   F  0.350000       110.000       0.00000    
         3      2925   F  0.350000       110.000       180.000    
         3      2929   F  0.350000       110.000       0.00000    
         3      2933   F  0.350000       110.000       180.000    
         3      2937   F  0.350000       110.000       0.00000    
         3      2941   F  0.350000       110.000       180.000    
         3      2945   F  0.350000       110.000       0.00000    
         3      2949   F  0.350000       110.000       180.000    
         3      2953   F  0.350000       110.000       0.00000    
         3      2957   F  0.350000       110.000       180.000    
         3      2961   F  0.350000       110.000       0.00000    
         3      2965   F  0.350000       110.000       180.000    
         3      2969   F  0.350000       110.000       0.00000    
         3      2973   F  0.350000       110.000       180.000    
         3      2977   F  0.350000       110.000       0.00000    
         3      2981   F  0.350000       110.000       180.000    
         3      2985   F  0.350000       110.000       0.00000    
         3      2989   F  0.350000       110.000       180.000    
         3      2993   F  0.350000       110.000       0.00000    
         3      2997   F  0.350000       110.000       180.000    
         3      3001   F  0.350000       110.000       0.00000    
         3      3005   F  0.350000       110.000       180.000    
         3      3009   F  0.350000       110.000       0.00000    
         3      3013   F  0.350000       110.000       180.000    
         3      3017   F  0.350000       110.000       0.00000    
         3      3021   F  0.350000       110.000       180.000    
         3      3025   F  0.350000       110.000       0.00000    
         3      3029   F  0.350000       110.000       180.000    
         3      3033   F  0.350000       110.000       0.00000    
         3      3037   F  0.350000       110.000       180.000    
         3      3041   F  0.350000       110.000       0.00000    
         3      3045   F  0.350000       110.000       180.000    
         3      3049   F  0.350000       110.000       0.00000    
         3      3053   F  0.350000       110.000       180.000    
         3      3057   F  0.350000       110.000       0.00000    
         3      3061   F  0.350000       110.000       180.000    
         3      3065   F  0.350000       110.000       0.00000    
         3      3069   F  0.350000       110.000       180.000    
         3      3073   F  0.350000       110.000       0.00000    
         3      3077   F  0.350000       110.000       180.000    
         3      3081   F  0.350000       110.000       0.00000    
         3      3085   F  0.350000       110.000       180.000    
         3      3089   F  0.350000       110.000       0.00000    
         3      3093   F  0.350000       110.000       180.000    
         3      3097   F  0.350000       110.000       0.00000    
         3      3101   F  0.350000       110.000       180.000    
         3      3105   F  0.350000       110.000       0.00000    
         3      3109   F  0.350000       110.000       180.000    
         3      3113   F  0.350000       110.000       0.00000    
         3      3117   F  0.350000       110.000       180.000    
         3      3121   F  0.350000       110.000       0.00000    
         3      3125   F  0.350000       110.000       180.000    
         3      3129   F  0.350000       110.000       0.00000    
         3      3133   F  0.350000       110.000       180.000    
         3      3137   F  0.350000       110.000       0.00000    
         3      3141   F  0.350000       110.000       180.000    
         3      3145   F  0.350000       110.000       0.00000    
         3      3149   F  0.350000       110.000       180.000    
         3      3153   F  0.350000       110.000       0.00000    
         3      3157   F  0.350000       110.000       180.000    
         3      3161   F  0.350000       110.000       0.00000    
         3      3165   F  0.350000       110.000       180.000    
         3      3169   F  0.350000       110.000       0.00000    
         3      3173   F  0.350000       110.000       180.000    
         3      3177   F  0.350000       110.000       0.00000    
         3      3181   F  0.350000       110.000       180.000    
         3      3185   F  0.350000       110.000       0.00000    
         3      3189   F  0.350000       110.000       180.000    
         3      3193   F  0.350000       110.000       0.00000    
         3      3197   F  0.350000       110.000       180.000    
         3      3201   F  0.350000       110.000       0.00000    
         3      3205   F  0.350000       110.000       180.000    
         3      3209   F  0.350000       110.000       0.00000    
         3      3213   F  0.350000       110.000       180.000    
         3      3217   F  0.350000       110.000       0.00000    
         3      3221   F  0.350000       110.000       180.000    
         3      3225   F  0.350000       110.000       0.00000    
         3      3229   F  0.350000       110.000       180.000    
         3      3233   F  0.350000       110.000       0.00000    
         3      3237   F  0.350000       110.000       180.000    
         3      3241   F  0.350000       110.000       0.00000    
         3      3245   F  0.350000       110.000       180.000    
         3      3249   F  0.350000       110.000       0.00000    
         3      3253   F  0.350000       110.000       180.000    
         3      3257   F  0.350000       110.000       0.00000    
         3      3261   F  0.350000       110.000       180.000    
         3      3265   F  0.350000       110.000       0.00000    
         3      3269   F  0.350000       110.000       180.000    
         3      3273   F  0.350000       110.000       0.00000    
         3      3277   F  0.350000       110.000       180.000    
         3      3281   F  0.350000       110.000       0.00000    
         3      3285   F  0.350000       110.000       180.000    
         3      3289   F  0.350000       110.000       0.00000    
         3      3293   F  0.350000       110.000       180.000    
         3      3297   F  0.350000       110.000       0.00000    
         3      3301   F  0.350000       110.000       180.000    
         3      3305   F  0.350000       110.000       0.00000    
         3      3309   F  0.350000       110.000       180.000    
         3      3313   F  0.350000       110.000       0.00000    
         3      3317   F  0.350000       110.000       180.000    
         3      3321   F  0.350000       110.000       0.00000    
         3      3325   F  0.350000       110.000       180.000    
         3      3329   F  0.350000       110.000       0.00000    
         3      3333   F  0.350000       110.000       180.000    
         3      3337   F  0.350000       110.000       0.00000    
         3      3341   F  0.350000       110.000       180.000    
         3      3345   F  0.350000       110.000       0.00000    
         3      3349   F  0.350000       110.000       180.000    
         3      3353   F  0.350000       110.000       0.00000    
         3      3357   F  0.350000       110.000       180.000    
         3      3361   F  0.350000       110.000       0.00000    
         3      3365   F  0.350000       110.000       180.000    
         3      3369   F  0.350000       110.000       0.00000    
         3      3373   F  0.350000       110.000       180.000    
         3      3377   F  0.350000       110.000       0.00000    
         3      3381   F  0.350000       110.000       180.000    
         3      3385   F  0.350000       110.000       0.00000    
         3      3389   F  0.350000       110.000       180.000    
         3      3393   F  0.350000       110.000       0.00000    
         3      3397   F  0.350000       110.000       180.000    
         3      3401   F  0.350000       110.000       0.00000    
         3      3405   F  0.350000       110.000       180.000    
         3      3409   F  0.350000       110.000       0.00000    
         3      3413   F  0.350000       110.000       180.000    
         3      3417   F  0.350000       110.000       0.00000    
         3      3421   F  0.350000       110.000       180.000    
         3      3425   F  0.350000       110.000       0.00000    
         3      3429   F  0.350000       110.000       180.000    
         3      3433   F  0.350000       110.000       0.00000    
         3      3437   F  0.350000       110.000       180.000    
         3      3441   F  0.350000       110.000       0.00000    
         3      3445   F  0.350000       110.000       180.000    
         3      3449   F  0.350000       110.000       0.00000    
         3      3453   F  0.350000       110.000       180.000    
         3      3457   F  0.350000       110.000       0.00000    
         3      3461   F  0.350000       110.000       180.000    
         3      3465   F  0.350000       110.000       0.00000    
         3      3469   F  0.350000       110.000       180.000    
         3      3473   F  0.350000       110.000       0.00000    
         3      3477   F  0.350000       110.000       180.000    
         3      3481   F  0.350000       110.000       0.00000    
         3      3485   F  0.350000       110.000       180.000    
         3      3489   F  0.350000       110.000       0.00000    
         3      3493   F  0.350000       110.000       180.000    
         3      3497   F  0.350000       110.000       0.00000    
         3      3501   F  0.350000       110.000       180.000    
         3      3505   F  0.350000       110.000       0.00000    
         3      3509   F  0.350000       110.000       180.000    
         3      3513   F  0.350000       110.000       0.00000    
         3      3517   F  0.350000       110.000       180.000    
         3      3521   F  0.350000       110.000       0.00000    
         3      3525   F  0.350000       110.000       180.000    
         3      3529   F  0.350000       110.000       0.00000    
         3      3533   F  0.350000       110.000       180.000    
         3      3537   F  0.350000       110.000       0.00000    
         3      3541   F  0.350000       110.000       180.000    
         3      3545   F  0.350000       110.000       0.00000    
         3      3549   F  0.350000       110.000       180.000    
         3      3553   F  0.350000       110.000       0.00000    
         3      3557   F  0.350000       110.000       180.000    
         3      3561   F  0.350000       110.000       0.00000    
         3      3565   F  0.350000       110.000       180.000    
         3      3569   F  0.350000       110.000       0.00000    
         3      3573   F  0.350000       110.000       180.000    
         3      3577   F  0.350000       110.000       0.00000    
         3      3581   F  0.350000       110.000       180.000    
         3      3585   F  0.350000       110.000       0.00000    
         3      3589   F  0.350000       110.000       180.000    
         3      3593   F  0.350000       110.000       0.00000    
         3      3597   F  0.350000       110.000       180.000    
         3      3601   F  0.350000       110.000       0.00000    
         3      3605   F  0.350000       110.000       180.000    
         3      3609   F  0.350000       110.000       0.00000    
         3      3613   F  0.350000       110.000       180.000    
         3      3617   F  0.350000       110.000       0.00000    
         3      3621   F  0.350000       110.000       180.000    
         3      3625   F  0.350000       110.000       0.00000    
         3      3629   F  0.350000       110.000       180.000    
         3      3633   F  0.350000       110.000       0.00000    
         3      3637   F  0.350000       110.000       180.000    
         3      3641   F  0.350000       110.000       0.00000    
         3      3645   F  0.350000       110.000       180.000    
         3      3649   F  0.350000       110.000       0.00000    
         3      3653   F  0.350000       110.000       180.000    
         3      3657   F  0.350000       110.000       0.00000    
         3      3661   F  0.350000       110.000       180.000    
         3      3665   F  0.350000       110.000       0.00000    
         3      3669   F  0.350000       110.000       180.000    
         3      3673   F  0.350000       110.000       0.00000    
         3      3677   F  0.350000       110.000       180.000    
         3      3681   F  0.350000       110.000       0.00000    
         3      3685   F  0.350000       110.000       180.000    
         3      3689   F  0.350000       110.000       0.00000    
         3      3693   F  0.350000       110.000       180.000    
         3      3697   F  0.350000       110.000       0.00000    
         3      3701   F  0.350000       110.000       180.000    
         3      3705   F  0.350000       110.000       0.00000    
         3      3709   F  0.350000       110.000       180.000    
         3      3713   F  0.350000       110.000       0.00000    
         3      3717   F  0.350000       110.000       180.000    
         3      3721   F  0.350000       110.000       0.00000    
         3      3725   F  0.350000       110.000       180.000    
         3      3729   F  0.350000       110.000       0.00000    
         3      3733   F  0.350000       110.000       180.000    
         3      3737   F  0.350000       110.000       0.00000    
         3      3741   F  0.350000       110.000       180.000    
         3      3745   F  0.350000       110.000       0.00000    
         3      3749   F  0.350000       110.000       180.000    
         3      3753   F  0.350000       110.000       0.00000    
         3      3757   F  0.350000       110.000       180.000    
         3      3761   F  0.350000       110.000       0.00000    
         3      3765   F  0.350000       110.000       180.000    
         3      3769   F  0.350000       110.000       0.00000    
         3      3773   F  0.350000       110.000       180.000    
         3      3777   F  0.350000       110.000       0.00000    
         3      3781   F  0.350000       110.000       180.000    
         3      3785   F  0.350000       110.000       0.00000    
         3      3789   F  0.350000       110.000       180.000    
         3      3793   F  0.350000       110.000       0.00000    
         3      3797   F  0.350000       110.000       180.000    
         3      3801   F  0.350000       110.000       0.00000    
         3      3805   F  0.350000       110.000       180.000    
         3      3809   F  0.350000       110.000       0.00000    
         3      3813   F  0.350000       110.000       180.000    
         3      3817   F  0.350000       110.000       0.00000    
         3      3821   F  0.350000       110.000       180.000    
         3      3825   F  0.350000       110.000       0.00000    
         3      3829   F  0.350000       110.000       180.000    
         3      3833   F  0.350000       110.000       0.00000    
         3      3837   F  0.350000       110.000       180.000    
         3      3841   F  0.350000       110.000       0.00000    
         3      3845   F  0.350000       110.000       180.000    
         3      3849   F  0.350000       110.000       0.00000    
         3      3853   F  0.350000       110.000       180.000    
         3      3857   F  0.350000       110.000       0.00000    
         3      3861   F  0.350000       110.000       180.000    
         3      3865   F  0.350000       110.000       0.00000    
         3      3869   F  0.350000       110.000       180.000    
         3      3873   F  0.350000       110.000       0.00000    
         3      3877   F  0.350000       110.000       180.000    
         3      3881   F  0.350000       110.000       0.00000    
         3      3885   F  0.350000       110.000       180.000    
         3      3889   F  0.350000       110.000       0.00000    
         3      3893   F  0.350000       110.000       180.000    
         3      3897   F  0.350000       110.000       0.00000    
         3      3901   F  0.350000       110.000       180.000    
         3      3905   F  0.350000       110.000       0.00000    
         3      3909   F  0.350000       110.000       180.000    
         3      3913   F  0.350000       110.000       0.00000    
         3      3917   F  0.350000       110.000       180.000    
         3      3921   F  0.350000       110.000       0.00000    
         3      3925   F  0.350000       110.000       180.000    
         3      3929   F  0.350000       110.000       0.00000    
         3      3933   F  0.350000       110.000       180.000    
         3      3937   F  0.350000       110.000       0.00000    
         3      3941   F  0.350000       110.000       180.000    
         3      3945   F  0.350000       110.000       0.00000    
         3      3949   F  0.350000       110.000       180.000    
         3      3953   F  0.350000       110.000       0.00000    
         3      3957   F  0.350000       110.000       180.000    
         3      3961   F  0.350000       110.000       0.00000    
         3      3965   F  0.350000       110.000       180.000    
         3      3969   F  0.350000       110.000       0.00000    
         3      3973   F  0.350000       110.000       180.000    
         3      3977   F  0.350000       110.000       0.00000    
         3      3981   F  0.350000       110.000       180.000    
         3      3985   F  0.350000       110.000       0.00000    
         3      3989   F  0.350000       110.000       180.000    
         3      3993   F  0.350000       110.000       0.00000    
         3      3997   F  0.350000       110.000       180.000    
         3      4001   F  0.350000       110.000       0.00000    
         3      4005   F  0.350000       110.000       180.000    
         3      4009   F  0.350000       110.000       0.00000    
         3      4013   F  0.350000       110.000       180.000    
         3      4017   F  0.350000       110.000       0.00000    
         3      4021   F  0.350000       110.000       180.000    
         3      4025   F  0.350000       110.000       0.00000    
         3      4029   F  0.350000       110.000       180.000    
         3      4033   F  0.350000       110.000       0.00000    
         3      4037   F  0.350000       110.000       180.000    
         3      4041   F  0.350000       110.000       0.00000    
         3      4045   F  0.350000       110.000       180.000    
         3      4049   F  0.350000       110.000       0.00000    
         3      4053   F  0.350000       110.000       180.000    
         3      4057   F  0.350000       110.000       0.00000    
         3      4061   F  0.350000       110.000       180.000    
         3      4065   F  0.350000       110.000       0.00000    
         3      4069   F  0.350000       110.000       180.000    
         3      4073   F  0.350000       110.000       0.00000    
         3      4077   F  0.350000       110.000       180.000    
         3      4081   F  0.350000       110.000       0.00000    
         3      4085   F  0.350000       110.000       180.000    
         3      4089   F  0.350000       110.000       0.00000    
         3      4093   F  0.350000       110.000       180.000    
         3      4097   F  0.350000       110.000       0.00000    
         3      4101   F  0.350000       110.000       180.000    
         3      4105   F  0.350000       110.000       0.00000    
         3      4109   F  0.350000       110.000       180.000    
         3      4113   F  0.350000       110.000       0.00000    
         3      4117   F  0.350000       110.000       180.000    
         3      4121   F  0.350000       110.000       0.00000    
         3      4125   F  0.350000       110.000       180.000    
         3      4129   F  0.350000       110.000       0.00000    
         3      4133   F  0.350000       110.000       180.000    
         3      4137   F  0.350000       110.000       0.00000    
         3      4141   F  0.350000       110.000       180.000    
         3      4145   F  0.350000       110.000       0.00000    
         3      4149   F  0.350000       110.000       180.000    
         3      4153   F  0.350000       110.000       0.00000    
         3      4157   F  0.350000       110.000       180.000    
         3      4161   F  0.350000       110.000       0.00000    
         3      4165   F  0.350000       110.000       180.000    
         3      4169   F  0.350000       110.000       0.00000    
         3      4173   F  0.350000       110.000       180.000    
         3      4177   F  0.350000       110.000       0.00000    
         3      4181   F  0.350000       110.000       180.000    
         3      4185   F  0.350000       110.000       0.00000    
         3      4189   F  0.350000       110.000       180.000    
         3      4193   F  0.350000       110.000       0.00000    
         3      4197   F  0.350000       110.000       180.000    
         3      4201   F  0.350000       110.000       0.00000    
         3      4205   F  0.350000       110.000       180.000    
         3      4209   F  0.350000       110.000       0.00000    
         3      4213   F  0.350000       110.000       180.000    
         3      4217   F  0.350000       110.000       0.00000    
         3      4221   F  0.350000       110.000       180.000    
         3      4225   F  0.350000       110.000       0.00000    
         3      4229   F  0.350000       110.000       180.000    
         3      4233   F  0.350000       110.000       0.00000    
         3      4237   F  0.350000       110.000       180.000    
         3      4241   F  0.350000       110.000       0.00000    
         3      4245   F  0.350000       110.000       180.000    
         3      4249   F  0.350000       110.000       0.00000    
         3      4253   F  0.350000       110.000       180.000    
         3      4257   F  0.350000       110.000       0.00000    
         3      4261   F  0.350000       110.000       180.000    
         3      4265   F  0.350000       110.000       0.00000    
         3      4269   F  0.350000       110.000       180.000    
         3      4273   F  0.350000       110.000       0.00000    
         3      4277   F  0.350000       110.000       180.000    
         3      4281   F  0.350000       110.000       0.00000    
         3      4285   F  0.350000       110.000       180.000    
         3      4289   F  0.350000       110.000       0.00000    
         3      4293   F  0.350000       110.000       180.000    
         3      4297   F  0.350000       110.000       0.00000    
         3      4301   F  0.350000       110.000       180.000    
         3      4305   F  0.350000       110.000       0.00000    
         3      4309   F  0.350000       110.000       180.000    
         3      4313   F  0.350000       110.000       0.00000    
         3      4317   F  0.350000       110.000       180.000    
         3      4321   F  0.350000       110.000       0.00000    
         3      4325   F  0.350000       110.000       180.000    
         3      4329   F  0.350000       110.000       0.00000    
         3      4333   F  0.350000       110.000       180.000    
         3      4337   F  0.350000       110.000       0.00000    
         3      4341   F  0.350000       110.000       180.000    
         3      4345   F  0.350000       110.000       0.00000    
         3      4349   F  0.350000       110.000       180.000    
         3      4353   F  0.350000       110.000       0.00000    
         3      4357   F  0.350000       110.000       180.000    
         3      4361   F  0.350000       110.000       0.00000    
         3      4365   F  0.350000       110.000       180.000    
         3      4369   F  0.350000       110.000       0.00000    
         3      4373   F  0.350000       110.000       180.000    
         3      4377   F  0.350000       110.000       0.00000    
         3      4381   F  0.350000       110.000       180.000    
         3      4385   F  0.350000       110.000       0.00000    
         3      4389   F  0.350000       110.000       180.000    
         3      4393   F  0.350000       110.000       0.00000    
         3      4397   F  0.350000       110.000       180.000    
         3      4401   F  0.350000       110.000       0.00000    
         3      4405   F  0.350000       110.000       180.000    
         3      4409   F  0.350000       110.000       0.00000    
         3      4413   F  0.350000       110.000       180.000    
         3      4417   F  0.350000       110.000       0.00000    
         3      4421   F  0.350000       110.000       180.000    
         3      4425   F  0.350000       110.000       0.00000    
         3      4429   F  0.350000       110.000       180.000    
         3      4433   F  0.350000       110.000       0.00000    
         3      4437   F  0.350000       110.000       180.000    
         3      4441   F  0.350000       110.000       0.00000    
         3      4445   F  0.350000       110.000       180.000    
         3      4449   F  0.350000       110.000       0.00000    
         3      4453   F  0.350000       110.000       180.000    
         3      4457   F  0.350000       110.000       0.00000    
         3      4461   F  0.350000       110.000       180.000    
         3      4465   F  0.350000       110.000       0.00000    
         3      4469   F  0.350000       110.000       180.000    
         3      4473   F  0.350000       110.000       0.00000    
         3      4477   F  0.350000       110.000       180.000    
         3      4481   F  0.350000       110.000       0.00000    
         3      4485   F  0.350000       110.000       180.000    
         3      4489   F  0.350000       110.000       0.00000    
         3      4493   F  0.350000       110.000       180.000    
         3      4497   F  0.350000       110.000       0.00000    
         3      4501   F  0.350000       110.000       180.000    
         3      4505   F  0.350000       110.000       0.00000    
         3      4509   F  0.350000       110.000       180.000    
         3      4513   F  0.350000       110.000       0.00000    
         3      4517   F  0.350000       110.000       180.000    
         3      4521   F  0.350000       110.000       0.00000    
         3      4525   F  0.350000       110.000       180.000    
         3      4529   F  0.350000       110.000       0.00000    
         3      4533   F  0.350000       110.000       180.000    
         3      4537   F  0.350000       110.000       0.00000    
         3      4541   F  0.350000       110.000       180.000    
         3      4545   F  0.350000       110.000       0.00000    
         3      4549   F  0.350000       110.000       180.000    
         3      4553   F  0.350000       110.000       0.00000    
         3      4557   F  0.350000       110.000       180.000    
         3      4561   F  0.350000       110.000       0.00000    
         3      4565   F  0.350000       110.000       180.000    
         3      4569   F  0.350000       110.000       0.00000    
         3      4573   F  0.350000       110.000       180.000    
         3      4577   F  0.350000       110.000       0.00000    
         3      4581   F  0.350000       110.000       180.000    
         3      4585   F  0.350000       110.000       0.00000    
         3      4589   F  0.350000       110.000       180.000    
         3      4593   F  0.350000       110.000       0.00000    
         3      4597   F  0.350000       110.000       180.000    
         3      4601   F  0.350000       110.000       0.00000    
         3      4605   F  0.350000       110.000       180.000    
         3      4609   F  0.350000       110.000       0.00000    
         3      4613   F  0.350000       110.000       180.000    
         3      4617   F  0.350000       110.000       0.00000    
         3      4621   F  0.350000       110.000       180.000    
         3      4625   F  0.350000       110.000       0.00000    
         3      4629   F  0.350000       110.000       180.000    
         3      4633   F  0.350000       110.000       0.00000    
         3      4637   F  0.350000       110.000       180.000    
         3      4641   F  0.350000       110.000       0.00000    
         3      4645   F  0.350000       110.000       180.000    
         3      4649   F  0.350000       110.000       0.00000    
         3      4653   F  0.350000       110.000       180.000    
         3      4657   F  0.350000       110.000       0.00000    
         3      4661   F  0.350000       110.000       180.000    
         3      4665   F  0.350000       110.000       0.00000    
         3      4669   F  0.350000       110.000       180.000    
         3      4673   F  0.350000       110.000       0.00000    
         3      4677   F  0.350000       110.000       180.000    
         3      4681   F  0.350000       110.000       0.00000    
         3      4685   F  0.350000       110.000       180.000    
         3      4689   F  0.350000       110.000       0.00000    
         3      4693   F  0.350000       110.000       180.000    
         3      4697   F  0.350000       110.000       0.00000    
         3      4701   F  0.350000       110.000       180.000    
         3      4705   F  0.350000       110.000       0.00000    
         3      4709   F  0.350000       110.000       180.000    
         3      4713   F  0.350000       110.000       0.00000    
         3      4717   F  0.350000       110.000       180.000    
         3      4721   F  0.350000       110.000       0.00000    
         3      4725   F  0.350000       110.000       180.000    
         3      4729   F  0.350000       110.000       0.00000    
         3      4733   F  0.350000       110.000       180.000    
         3      4737   F  0.350000       110.000       0.00000    
         3      4741   F  0.350000       110.000       180.000    
         3      4745   F  0.350000       110.000       0.00000    
         3      4749   F  0.350000       110.000       180.000    
         3      4753   F  0.350000       110.000       0.00000    
         3      4757   F  0.350000       110.000       180.000    
         3      4761   F  0.350000       110.000       0.00000    
         3      4765   F  0.350000       110.000       180.000    
         3      4769   F  0.350000       110.000       0.00000    
         3      4773   F  0.350000       110.000       180.000    
         3      4777   F  0.350000       110.000       0.00000    
         3      4781   F  0.350000       110.000       180.000    
         3      4785   F  0.350000       110.000       0.00000    
         3      4789   F  0.350000       110.000       180.000    
         3      4793   F  0.350000       110.000       0.00000    
         3      4797   F  0.350000       110.000       180.000    
         3      4801   F  0.350000       110.000       0.00000    
         3      4805   F  0.350000       110.000       180.000    
         3      4809   F  0.350000       110.000       0.00000    
         3      4813   F  0.350000       110.000       180.000    
         3      4817   F  0.350000       110.000       0.00000    
         3      4821   F  0.350000       110.000       180.000    
         3      4825   F  0.350000       110.000       0.00000    
         3      4829   F  0.350000       110.000       180.000    
         3      4833   F  0.350000       110.000       0.00000    
         3      4837   F  0.350000       110.000       180.000    
         3      4841   F  0.350000       110.000       0.00000    
         3      4845   F  0.350000       110.000       180.000    
         3      4849   F  0.350000       110.000       0.00000    
         3      4853   F  0.350000       110.000       180.000    
         3      4857   F  0.350000       110.000       0.00000    
         3      4861   F  0.350000       110.000       180.000    
         3      4865   F  0.350000       110.000       0.00000    
         3      4869   F  0.350000       110.000       180.000    
         3      4873   F  0.350000       110.000       0.00000    
         3      4877   F  0.350000       110.000       180.000    
         3      4881   F  0.350000       110.000       0.00000    
         3      4885   F  0.350000       110.000       180.000    
         3      4889   F  0.350000       110.000       0.00000    
         3      4893   F  0.350000       110.000       180.000    
         3      4897   F  0.350000       110.000       0.00000    
         3      4901   F  0.350000       110.000       180.000    
         3      4905   F  0.350000       110.000       0.00000    
         3      4909   F  0.350000       110.000       180.000    
         3      4913   F  0.350000       110.000       0.00000    
         3      4917   F  0.350000       110.000       180.000    
         3      4921   F  0.350000       110.000       0.00000    
         3      4925   F  0.350000       110.000       180.000    
         3      4929   F  0.350000       110.000       0.00000    
         3      4933   F  0.350000       110.000       180.000    
         3      4937   F  0.350000       110.000       0.00000    
         3      4941   F  0.350000       110.000       180.000    
         3      4945   F  0.350000       110.000       0.00000    
         3      4949   F  0.350000       110.000       180.000    
         3      4953   F  0.350000       110.000       0.00000    
         3      4957   F  0.350000       110.000       180.000    
         3      4961   F  0.350000       110.000       0.00000    
         3      4965   F  0.350000       110.000       180.000    
         3      4969   F  0.350000       110.000       0.00000    
         3      4973   F  0.350000       110.000       180.000    
         3      4977   F  0.350000       110.000       0.00000    
         3      4981   F  0.350000       110.000       180.000    
         3      4985   F  0.350000       110.000       0.00000    
         3      4989   F  0.350000       110.000       180.000    
         3      4993   F  0.350000       110.000       0.00000    
         3      4997   F  0.350000       110.000       180.000    
         3      5001   F  0.350000       110.000       0.00000    
         3      5005   F  0.350000       110.000       180.000    
         3      5009   F  0.350000       110.000       0.00000    
         3      5013   F  0.350000       110.000       180.000    
         3      5017   F  0.350000       110.000       0.00000    
         3      5021   F  0.350000       110.000       180.000    
         3      5025   F  0.350000       110.000       0.00000    
         3      5029   F  0.350000       110.000       180.000    
         3      5033   F  0.350000       110.000       0.00000    
         3      5037   F  0.350000       110.000       180.000    
         3      5041   F  0.350000       110.000       0.00000    
         3      5045   F  0.350000       110.000       180.000    
         3      5049   F  0.350000       110.000       0.00000    
         3      5053   F  0.350000       110.000       180.000    
         3      5057   F  0.350000       110.000       0.00000    
         3      5061   F  0.350000       110.000       180.000    
         3      5065   F  0.350000       110.000       0.00000    
         3      5069   F  0.350000       110.000       180.000    
         3      5073   F  0.350000       110.000       0.00000    
         3      5077   F  0.350000       110.000       180.000    
         3      5081   F  0.350000       110.000       0.00000    
         3      5085   F  0.350000       110.000       180.000    
         3      5089   F  0.350000       110.000       0.00000    
         3      5093   F  0.350000       110.000       180.000    
         3      5097   F  0.350000       110.000       0.00000    
         3      5101   F  0.350000       110.000       180.000    
         3      5105   F  0.350000       110.000       0.00000    
         3      5109   F  0.350000       110.000       180.000    
         3      5113   F  0.350000       110.000       0.00000    
         3      5117   F  0.350000       110.000       180.000    
         3      5121   F  0.350000       110.000       0.00000    
         3      5125   F  0.350000       110.000       180.000    
         3      5129   F  0.350000       110.000       0.00000    
         3      5133   F  0.350000       110.000       180.000    
         3      5137   F  0.350000       110.000       0.00000    
         3      5141   F  0.350000       110.000       180.000    
         3      5145   F  0.350000       110.000       0.00000    
         3      5149   F  0.350000       110.000       180.000    
         3      5153   F  0.350000       110.000       0.00000    
         3      5157   F  0.350000       110.000       180.000    
         3      5161   F  0.350000       110.000       0.00000    
         3      5165   F  0.350000       110.000       180.000    
         3      5169   F  0.350000       110.000       0.00000    
         3      5173   F  0.350000       110.000       180.000    
         3      5177   F  0.350000       110.000       0.00000    
         3      5181   F  0.350000       110.000       180.000    
         3      5185   F  0.350000       110.000       0.00000    
         3      5189   F  0.350000       110.000       180.000    
         3      5193   F  0.350000       110.000       0.00000    
         3      5197   F  0.350000       110.000       180.000    
         3      5201   F  0.350000       110.000       0.00000    
         3      5205   F  0.350000       110.000       180.000    
         3      5209   F  0.350000       110.000       0.00000    
         3      5213   F  0.350000       110.000       180.000    
         3      5217   F  0.350000       110.000       0.00000    
         3      5221   F  0.350000       110.000       180.000    
         3      5225   F  0.350000       110.000       0.00000    
         3      5229   F  0.350000       110.000       180.000    
         3      5233   F  0.350000       110.000       0.00000    
         3      5237   F  0.350000       110.000       180.000    
         3      5241   F  0.350000       110.000       0.00000    
         3      5245   F  0.350000       110.000       180.000    
         3      5249   F  0.350000       110.000       0.00000    
         3      5253   F  0.350000       110.000       180.000    
         3      5257   F  0.350000       110.000       0.00000    
         3      5261   F  0.350000       110.000       180.000    
         3      5265   F  0.350000       110.000       0.00000    
         3      5269   F  0.350000       110.000       180.000    
         3      5273   F  0.350000       110.000       0.00000    
         3      5277   F  0.350000       110.000       180.000    
         3      5281   F  0.350000       110.000       0.00000    
         3      5285   F  0.350000       110.000       180.000    
         3      5289   F  0.350000       110.000       0.00000    
         3      5293   F  0.350000       110.000       180.000    
         3      5297   F  0.350000       110.000       0.00000    
         3      5301   F  0.350000       110.000       180.000    
         3      5305   F  0.350000       110.000       0.00000    
         3      5309   F  0.350000       110.000       180.000    
         3      5313   F  0.350000       110.000       0.00000    
         3      5317   F  0.350000       110.000       180.000    
         3      5321   F  0.350000       110.000       0.00000    
         3      5325   F  0.350000       110.000       180.000    
         3      5329   F  0.350000       110.000       0.00000    
         3      5333   F  0.350000       110.000       180.000    
         3      5337   F  0.350000       110.000       0.00000    
         3      5341   F  0.350000       110.000       180.000    
         3      5345   F  0.350000       110.000       0.00000    
         3      5349   F  0.350000       110.000       180.000    
         3      5353   F  0.350000       110.000       0.00000    
         3      5357   F  0.350000       110.000       180.000    
         3      5361   F  0.350000       110.000       0.00000    
         3      5365   F  0.350000       110.000       180.000    
         3      5369   F  0.350000       110.000       0.00000    
         3      5373   F  0.350000       110.000       180.000    
         3      5377   F  0.350000       110.000       0.00000    
         3      5381   F  0.350000       110.000       180.000    
         3      5385   F  0.350000       110.000       0.00000    
         3      5389   F  0.350000       110.000       180.000    
         3      5393   F  0.350000       110.000       0.00000    
         3      5397   F  0.350000       110.000       180.000    
         3      5401   F  0.350000       110.000       0.00000    
         3      5405   F  0.350000       110.000       180.000    
         3      5409   F  0.350000       110.000       0.00000    
         3      5413   F  0.350000       110.000       180.000    
         3      5417   F  0.350000       110.000       0.00000    
         3      5421   F  0.350000       110.000       180.000    
         3      5425   F  0.350000       110.000       0.00000    
         3      5429   F  0.350000       110.000       180.000    
         3      5433   F  0.350000       110.000       0.00000    
         3      5437   F  0.350000       110.000       180.000    
         3      5441   F  0.350000       110.000       0.00000    
         3      5445   F  0.350000       110.000       180.000    
         3      5449   F  0.350000       110.000       0.00000    
         3      5453   F  0.350000       110.000       180.000    
         3      5457   F  0.350000       110.000       0.00000    
         3      5461   F  0.350000       110.000       180.000    
         3      5465   F  0.350000       110.000       0.00000    
         3      5469   F  0.350000       110.000       180.000    
         3      5473   F  0.350000       110.000       0.00000    
         3      5477   F  0.350000       110.000       180.000    
         3      5481   F  0.350000       110.000       0.00000    
         3      5485   F  0.350000       110.000       180.000    
         3      5489   F  0.350000       110.000       0.00000    
         3      5493   F  0.350000       110.000       180.000    
         3      5497   F  0.350000       110.000       0.00000    
         3      5501   F  0.350000       110.000       180.000    
         3      5505   F  0.350000       110.000       0.00000    
         3      5509   F  0.350000       110.000       180.000    
         3      5513   F  0.350000       110.000       0.00000    
         3      5517   F  0.350000       110.000       180.000    
         3      5521   F  0.350000       110.000       0.00000    
         3      5525   F  0.350000       110.000       180.000    
         3      5529   F  0.350000       110.000       0.00000    
         3      5533   F  0.350000       110.000       180.000    
         3      5537   F  0.350000       110.000       0.00000    
         3      5541   F  0.350000       110.000       180.000    
         3      5545   F  0.350000       110.000       0.00000    
         3      5549   F  0.350000       110.000       180.000    
         3      5553   F  0.350000       110.000       0.00000    
         3      5557   F  0.350000       110.000       180.000    
         3      5561   F  0.350000       110.000       0.00000    
         3      5565   F  0.350000       110.000       180.000    
         3      5569   F  0.350000       110.000       0.00000    
         3      5573   F  0.350000       110.000       180.000    
         3      5577   F  0.350000       110.000       0.00000    
         3      5581   F  0.350000       110.000       180.000    
         3      5585   F  0.350000       110.000       0.00000    
         3      5589   F  0.350000       110.000       180.000    
         3      5593   F  0.350000       110.000       0.00000    
         3      5597   F  0.350000       110.000       180.000    
         3      5601   F  0.350000       110.000       0.00000    
         3      5605   F  0.350000       110.000       180.000    
         3      5609   F  0.350000       110.000       0.00000    
         3      5613   F  0.350000       110.000       180.000    
         3      5617   F  0.350000       110.000       0.00000    
         3      5621   F  0.350000       110.000       180.000    
         3      5625   F  0.350000       110.000       0.00000    
         3      5629   F  0.350000       110.000       180.000    
         3      5633   F  0.350000       110.000       0.00000    
         3      5637   F  0.350000       110.000       180.000    
         3      5641   F  0.350000       110.000       0.00000    
         3      5645   F  0.350000       110.000       180.000    
         3      5649   F  0.350000       110.000       0.00000    
         3      5653   F  0.350000       110.000       180.000    
         3      5657   F  0.350000       110.000       0.00000    
         3      5661   F  0.350000       110.000       180.000    
         3      5665   F  0.350000       110.000       0.00000    
         3      5669   F  0.350000       110.000       180.000    
         3      5673   F  0.350000       110.000       0.00000    
         3      5677   F  0.350000       110.000       180.000    
         3      5681   F  0.350000       110.000       0.00000    
         3      5685   F  0.350000       110.000       180.000    
         3      5689   F  0.350000       110.000       0.00000    
         3      5693   F  0.350000       110.000       180.000    
         3      5697   F  0.350000       110.000       0.00000    
         3      5701   F  0.350000       110.000       180.000    
         3      5705   F  0.350000       110.000       0.00000    
         3      5709   F  0.350000       110.000       180.000    
         3      5713   F  0.350000       110.000       0.00000    
         3      5717   F  0.350000       110.000       180.000    
         3      5721   F  0.350000       110.000       0.00000    
         3      5725   F  0.350000       110.000       180.000    
         3      5729   F  0.350000       110.000       0.00000    
         3      5733   F  0.350000       110.000       180.000    
         3      5737   F  0.350000       110.000       0.00000    
         3      5741   F  0.350000       110.000       180.000    
         3      5745   F  0.350000       110.000       0.00000    
         3      5749   F  0.350000       110.000       180.000    
         3      5753   F  0.350000       110.000       0.00000    
         3      5757   F  0.350000       110.000       180.000    
         3      5761   F  0.350000       110.000       0.00000    
         3      5765   F  0.350000       110.000       180.000    
         3      5769   F  0.350000       110.000       0.00000    
         3      5773   F  0.350000       110.000       180.000    
         3      5777   F  0.350000       110.000       0.00000    
         3      5781   F  0.350000       110.000       180.000    
         3      5785   F  0.350000       110.000       0.00000    
         3      5789   F  0.350000       110.000       180.000    
         3      5793   F  0.350000       110.000       0.00000    
         3      5797   F  0.350000       110.000       180.000    
         3      5801   F  0.350000       110.000       0.00000    
         3      5805   F  0.350000       110.000       180.000    
         3      5809   F  0.350000       110.000       0.00000    
         3      5813   F  0.350000       110.000       180.000    
         3      5817   F  0.350000       110.000       0.00000    
         3      5821   F  0.350000       110.000       180.000    
         3      5825   F  0.350000       110.000       0.00000    
         3      5829   F  0.350000       110.000       180.000    
         3      5833   F  0.350000       110.000       0.00000    
         3      5837   F  0.350000       110.000       180.000    
         3      5841   F  0.350000       110.000       0.00000    
         3      5845   F  0.350000       110.000       180.000    
         3      5849   F  0.350000       110.000       0.00000    
         3      5853   F  0.350000       110.000       180.000    
         3      5857   F  0.350000       110.000       0.00000    
         3      5861   F  0.350000       110.000       180.000    
         3      5865   F  0.350000       110.000       0.00000    
         3      5869   F  0.350000       110.000       180.000    
         3      5873   F  0.350000       110.000       0.00000    
         3      5877   F  0.350000       110.000       180.000    
         3      5881   F  0.350000       110.000       0.00000    
         3      5885   F  0.350000       110.000       180.000    
         3      5889   F  0.350000       110.000       0.00000    
         3      5893   F  0.350000       110.000       180.000    
         3      5897   F  0.350000       110.000       0.00000    
         3      5901   F  0.350000       110.000       180.000    
         3      5905   F  0.350000       110.000       0.00000    
         3      5909   F  0.350000       110.000       180.000    
         3      5913   F  0.350000       110.000       0.00000    
         3      5917   F  0.350000       110.000       180.000    
         3      5921   F  0.350000       110.000       0.00000    
         3      5925   F  0.350000       110.000       180.000    
         3      5929   F  0.350000       110.000       0.00000    
         3      5933   F  0.350000       110.000       180.000    
         3      5937   F  0.350000       110.000       0.00000    
         3      5941   F  0.350000       110.000       180.000    
         3      5945   F  0.350000       110.000       0.00000    
         3      5949   F  0.350000       110.000       180.000    
         3      5953   F  0.350000       110.000       0.00000    
         3      5957   F  0.350000       110.000       180.000    
         3      5961   F  0.350000       110.000       0.00000    
         3      5965   F  0.350000       110.000       180.000    
         3      5969   F  0.350000       110.000       0.00000    
         3      5973   F  0.350000       110.000       180.000    
         3      5977   F  0.350000       110.000       0.00000    
         3      5981   F  0.350000       110.000       180.000    
         3      5985   F  0.350000       110.000       0.00000    
         3      5989   F  0.350000       110.000       180.000    
         3      5993   F  0.350000       110.000       0.00000    
         3      5997   F  0.350000       110.000       180.000    
         3      6001   F  0.350000       110.000       0.00000    
         3      6005   F  0.350000       110.000       180.000    
         3      6009   F  0.350000       110.000       0.00000    
         3      6013   F  0.350000       110.000       180.000    
         3      6017   F  0.350000       110.000       0.00000    
         3      6021   F  0.350000       110.000       180.000    
         3      6025   F  0.350000       110.000       0.00000    
         3      6029   F  0.350000       110.000       180.000    
         3      6033   F  0.350000       110.000       0.00000    
         3      6037   F  0.350000       110.000       180.000    
         3      6041   F  0.350000       110.000       0.00000    
         3      6045   F  0.350000       110.000       180.000    
         3      6049   F  0.350000       110.000       0.00000    
         3      6053   F  0.350000       110.000       180.000    
         3      6057   F  0.350000       110.000       0.00000    
         3      6061   F  0.350000       110.000       180.000    
         3      6065   F  0.350000       110.000       0.00000    
         3      6069   F  0.350000       110.000       180.000    
         3      6073   F  0.350000       110.000       0.00000    
         3      6077   F  0.350000       110.000       180.000    
         3      6081   F  0.350000       110.000       0.00000    
         3      6085   F  0.350000       110.000       180.000    
         3      6089   F  0.350000       110.000       0.00000    
         3      6093   F  0.350000       110.000       180.000    
         3      6097   F  0.350000       110.000       0.00000    
         3      6101   F  0.350000       110.000       180.000    
         3      6105   F  0.350000       110.000       0.00000    
         3      6109   F  0.350000       110.000       180.000    
         3      6113   F  0.350000       110.000       0.00000    
         3      6117   F  0.350000       110.000       180.000    
         3      6121   F  0.350000       110.000       0.00000    
         3      6125   F  0.350000       110.000       180.000    
         3      6129   F  0.350000       110.000       0.00000    
         3      6133   F  0.350000       110.000       180.000    
         3      6137   F  0.350000       110.000       0.00000    
         3      6141   F  0.350000       110.000       180.000    
         3      6145   F  0.350000       110.000       0.00000    
         3      6149   F  0.350000       110.000       180.000    
         3      6153   F  0.350000       110.000       0.00000    
         3      6157   F  0.350000       110.000       180.000    
         3      6161   F  0.350000       110.000       0.00000    
         3      6165   F  0.350000       110.000       180.000    
         3      6169   F  0.350000       110.000       0.00000    
         3      6173   F  0.350000       110.000       180.000    
         3      6177   F  0.350000       110.000       0.00000    
         3      6181   F  0.350000       110.000       180.000    
         3      6185   F  0.350000       110.000       0.00000    
         3      6189   F  0.350000       110.000       180.000    
         3      6193   F  0.350000       110.000       0.00000    
         3      6197   F  0.350000       110.000       180.000    
         3      6201   F  0.350000       110.000       0.00000    
         3      6205   F  0.350000       110.000       180.000    
         3      6209   F  0.350000       110.000       0.00000    
         3      6213   F  0.350000       110.000       180.000    
         3      6217   F  0.350000       110.000       0.00000    
         3      6221   F  0.350000       110.000       180.000    
         3      6225   F  0.350000       110.000       0.00000    
         3      6229   F  0.350000       110.000       180.000    
         3      6233   F  0.350000       110.000       0.00000    
         3      6237   F  0.350000       110.000       180.000    
         3      6241   F  0.350000       110.000       0.00000    
         3      6245   F  0.350000       110.000       180.000    
         3      6249   F  0.350000       110.000       0.00000    
         3      6253   F  0.350000       110.000       180.000    
         3      6257   F  0.350000       110.000       0.00000    
         3      6261   F  0.350000       110.000       180.000    
         3      6265   F  0.350000       110.000       0.00000    
         3      6269   F  0.350000       110.000       180.000    
         3      6273   F  0.350000       110.000       0.00000    
         3      6277   F  0.350000       110.000       180.000    
         3      6281   F  0.350000       110.000       0.00000    
         3      6285   F  0.350000       110.000       180.000    
         3      6289   F  0.350000       110.000       0.00000    
         3      6293   F  0.350000       110.000       180.000    
         3      6297   F  0.350000       110.000       0.00000    
         3      6301   F  0.350000       110.000       180.000    
         3      6305   F  0.350000       110.000       0.00000    
         3      6309   F  0.350000       110.000       180.000    
         3      6313   F  0.350000       110.000       0.00000    
         3      6317   F  0.350000       110.000       180.000    
         3      6321   F  0.350000       110.000       0.00000    
         3      6325   F  0.350000       110.000       180.000    
         3      6329   F  0.350000       110.000       0.00000    
         3      6333   F  0.350000       110.000       180.000    
         3      6337   F  0.350000       110.000       0.00000    
         3      6341   F  0.350000       110.000       180.000    
         3      6345   F  0.350000       110.000       0.00000    
         3      6349   F  0.350000       110.000       180.000    
         3      6353   F  0.350000       110.000       0.00000    
         3      6357   F  0.350000       110.000       180.000    
         3      6361   F  0.350000       110.000       0.00000    
         3      6365   F  0.350000       110.000       180.000    
         3      6369   F  0.350000       110.000       0.00000    
         3      6373   F  0.350000       110.000       180.000    
         3      6377   F  0.350000       110.000       0.00000    
         3      6381   F  0.350000       110.000       180.000    
         3      6385   F  0.350000       110.000       0.00000    
         3      6389   F  0.350000       110.000       180.000    
         3      6393   F  0.350000       110.000       0.00000    
         3      6397   F  0.350000       110.000       180.000    
         3      6401   F  0.350000       110.000       0.00000    
         3      6405   F  0.350000       110.000       180.000    
         3      6409   F  0.350000       110.000       0.00000    
         3      6413   F  0.350000       110.000       180.000    
         3      6417   F  0.350000       110.000       0.00000    
         3      6421   F  0.350000       110.000       180.000    
         3      6425   F  0.350000       110.000       0.00000    
         3      6429   F  0.350000       110.000       180.000    
         3      6433   F  0.350000       110.000       0.00000    
         3      6437   F  0.350000       110.000       180.000    
         3      6441   F  0.350000       110.000       0.00000    
         3      6445   F  0.350000       110.000       180.000    
         3      6449   F  0.350000       110.000       0.00000    
         3      6453   F  0.350000       110.000       180.000    
         3      6457   F  0.350000       110.000       0.00000    
         3      6461   F  0.350000       110.000       180.000    
         3      6465   F  0.350000       110.000       0.00000    
         3      6469   F  0.350000       110.000       180.000    
         3      6473   F  0.350000       110.000       0.00000    
         3      6477   F  0.350000       110.000       180.000    
         3      6481   F  0.350000       110.000       0.00000    
         3      6485   F  0.350000       110.000       180.000    
         3      6489   F  0.350000       110.000       0.00000    
         3      6493   F  0.350000       110.000       180.000    
         3      6497   F  0.350000       110.000       0.00000    
         3      6501   F  0.350000       110.000       180.000    
         3      6505   F  0.350000       110.000       0.00000    
         3      6509   F  0.350000       110.000       180.000    
         3      6513   F  0.350000       110.000       0.00000    
         3      6517   F  0.350000       110.000       180.000    
         3      6521   F  0.350000       110.000       0.00000    
         3      6525   F  0.350000       110.000       180.000    
         3      6529   F  0.350000       110.000       0.00000    
         3      6533   F  0.350000       110.000       180.000    
         3      6537   F  0.350000       110.000       0.00000    
         3      6541   F  0.350000       110.000       180.000    
         3      6545   F  0.350000       110.000       0.00000    
         3      6549   F  0.350000       110.000       180.000    
         3      6553   F  0.350000       110.000       0.00000    
         3      6557   F  0.350000       110.000       180.000    
         3      6561   F  0.350000       110.000       0.00000    
         3      6565   F  0.350000       110.000       180.000    
         3      6569   F  0.350000       110.000       0.00000    
         3      6573   F  0.350000       110.000       180.000    
         3      6577   F  0.350000       110.000       0.00000    
         3      6581   F  0.350000       110.000       180.000    
         3      6585   F  0.350000       110.000       0.00000    
         3      6589   F  0.350000       110.000       180.000    
         3      6593   F  0.350000       110.000       0.00000    
         3      6597   F  0.350000       110.000       180.000    
         3      6601   F  0.350000       110.000       0.00000    
         3      6605   F  0.350000       110.000       180.000    
         3      6609   F  0.350000       110.000       0.00000    
         3      6613   F  0.350000       110.000       180.000    
         3      6617   F  0.350000       110.000       0.00000    
         3      6621   F  0.350000       110.000       180.000    
         3      6625   F  0.350000       110.000       0.00000    
         3      6629   F  0.350000       110.000       180.000    
         3      6633   F  0.350000       110.000       0.00000    
         3      6637   F  0.350000       110.000       180.000    
         3      6641   F  0.350000       110.000       0.00000    
         3      6645   F  0.350000       110.000       180.000    
         3      6649   F  0.350000       110.000       0.00000    
         3      6653   F  0.350000       110.000       180.000    
         3      6657   F  0.350000       110.000       0.00000    
         3      6661   F  0.350000       110.000       180.000    
         3      6665   F  0.350000       110.000       0.00000    
         3      6669   F  0.350000       110.000       180.000    
         3      6673   F  0.350000       110.000       0.00000    
         3      6677   F  0.350000       110.000       180.000    
         3      6681   F  0.350000       110.000       0.00000    
         3      6685   F  0.350000       110.000       180.000    
         3      6689   F  0.350000       110.000       0.00000    
         3      6693   F  0.350000       110.000       180.000    
         3      6697   F  0.350000       110.000       0.00000    
         3      6701   F  0.350000       110.000       180.000    
         3      6705   F  0.350000       110.000       0.00000    
         3      6709   F  0.350000       110.000       180.000    
         3      6713   F  0.350000       110.000       0.00000    
         3      6717   F  0.350000       110.000       180.000    
         3      6721   F  0.350000       110.000       0.00000    
         3      6725   F  0.350000       110.000       180.000    
         3      6729   F  0.350000       110.000       0.00000    
         3      6733   F  0.350000       110.000       180.000    
         3      6737   F  0.350000       110.000       0.00000    
         3      6741   F  0.350000       110.000       180.000    
         3      6745   F  0.350000       110.000       0.00000    
         3      6749   F  0.350000       110.000       180.000    
         3      6753   F  0.350000       110.000       0.00000    
         3      6757   F  0.350000       110.000       180.000    
         3      6761   F  0.350000       110.000       0.00000    
         3      6765   F  0.350000       110.000       180.000    
         3      6769   F  0.350000       110.000       0.00000    
         3      6773   F  0.350000       110.000       180.000    
         3      6777   F  0.350000       110.000       0.00000    
         3      6781   F  0.350000       110.000       180.000    
         3      6785   F  0.350000       110.000       0.00000    
         3      6789   F  0.350000       110.000       180.000    
         3      6793   F  0.350000       110.000       0.00000    
         3      6797   F  0.350000       110.000       180.000    
         3      6801   F  0.350000       110.000       0.00000    
         3      6805   F  0.350000       110.000       180.000    
         3      6809   F  0.350000       110.000       0.00000    
         3      6813   F  0.350000       110.000       180.000    
         3      6817   F  0.350000       110.000       0.00000    
         3      6821   F  0.350000       110.000       180.000    
         3      6825   F  0.350000       110.000       0.00000    
         3      6829   F  0.350000       110.000       180.000    
         3      6833   F  0.350000       110.000       0.00000    
         3      6837   F  0.350000       110.000       180.000    
         3      6841   F  0.350000       110.000       0.00000    
         3      6845   F  0.350000       110.000       180.000    
         3      6849   F  0.350000       110.000       0.00000    
         3      6853   F  0.350000       110.000       180.000    
         3      6857   F  0.350000       110.000       0.00000    
         3      6861   F  0.350000       110.000       180.000    
         3      6865   F  0.350000       110.000       0.00000    
         3      6869   F  0.350000       110.000       180.000    
         3      6873   F  0.350000       110.000       0.00000    
         3      6877   F  0.350000       110.000       180.000    
         3      6881   F  0.350000       110.000       0.00000    
         3      6885   F  0.350000       110.000       180.000    
         3      6889   F  0.350000       110.000       0.00000    
         3      6893   F  0.350000       110.000       180.000    
         3      6897   F  0.350000       110.000       0.00000    
         3      6901   F  0.350000       110.000       180.000    
         3      6905   F  0.350000       110.000       0.00000    
         3      6909   F  0.350000       110.000       180.000    
         3      6913   F  0.350000       110.000       0.00000    
         3      6917   F  0.350000       110.000       180.000    
         3      6921   F  0.350000       110.000       0.00000    
         3      6925   F  0.350000       110.000       180.000    
         3      6929   F  0.350000       110.000       0.00000    
         3      6933   F  0.350000       110.000       180.000    
         3      6937   F  0.350000       110.000       0.00000    
         3      6941   F  0.350000       110.000       180.000    
         3      6945   F  0.350000       110.000       0.00000    
         3      6949   F  0.350000       110.000       180.000    
         3      6953   F  0.350000       110.000       0.00000    
         3      6957   F  0.350000       110.000       180.000    
         3      6961   F  0.350000       110.000       0.00000    
         3      6965   F  0.350000       110.000       180.000    
         3      6969   F  0.350000       110.000       0.00000    
         3      6973   F  0.350000       110.000       180.000    
         3      6977   F  0.350000       110.000       0.00000    
         3      6981   F  0.350000       110.000       180.000    
         3      6985   F  0.350000       110.000       0.00000    
         3      6989   F  0.350000       110.000       180.000    
         3      6993   F  0.350000       110.000       0.00000    
         3      6997   F  0.350000       110.000       180.000    
         3      7001   F  0.350000       110.000       0.00000    
         3      7005   F  0.350000       110.000       180.000    
         3      7009   F  0.350000       110.000       0.00000    
         3      7013   F  0.350000       110.000       180.000    
         3      7017   F  0.350000       110.000       0.00000    
         3      7021   F  0.350000       110.000       180.000    
         3      7025   F  0.350000       110.000       0.00000    
         3      7029   F  0.350000       110.000       180.000    
         3      7033   F  0.350000       110.000       0.00000    
         3      7037   F  0.350000       110.000       180.000    
         3      7041   F  0.350000       110.000       0.00000    
         3      7045   F  0.350000       110.000       180.000    
         3      7049   F  0.350000       110.000       0.00000    
         3      7053   F  0.350000       110.000       180.000    
         3      7057   F  0.350000       110.000       0.00000    
         3      7061   F  0.350000       110.000       180.000    
         3      7065   F  0.350000       110.000       0.00000    
         3      7069   F  0.350000       110.000       180.000    
         3      7073   F  0.350000       110.000       0.00000    
         3      7077   F  0.350000       110.000       180.000    
         3      7081   F  0.350000       110.000       0.00000    
         3      7085   F  0.350000       110.000       180.000    
         3      7089   F  0.350000       110.000       0.00000    
         3      7093   F  0.350000       110.000       180.000    
         3      7097   F  0.350000       110.000       0.00000    
         3      7101   F  0.350000       110.000       180.000    
         3      7105   F  0.350000       110.000       0.00000    
         3      7109   F  0.350000       110.000       180.000    
         3      7113   F  0.350000       110.000       0.00000    
         3      7117   F  0.350000       110.000       180.000    
         3      7121   F  0.350000       110.000       0.00000    
         3      7125   F  0.350000       110.000       180.000    
         3      7129   F  0.350000       110.000       0.00000    
         3      7133   F  0.350000       110.000       180.000    
         3      7137   F  0.350000       110.000       0.00000    
         3      7141   F  0.350000       110.000       180.000    
         3      7145   F  0.350000       110.000       0.00000    
         3      7149   F  0.350000       110.000       180.000    
         3      7153   F  0.350000       110.000       0.00000    
         3      7157   F  0.350000       110.000       180.000    
         3      7161   F  0.350000       110.000       0.00000    
         3      7165   F  0.350000       110.000       180.000    
         3      7169   F  0.350000       110.000       0.00000    
         3      7173   F  0.350000       110.000       180.000    
         3      7177   F  0.350000       110.000       0.00000    
         3      7181   F  0.350000       110.000       180.000    
         3      7185   F  0.350000       110.000       0.00000    
         3      7189   F  0.350000       110.000       180.000    
         3      7193   F  0.350000       110.000       0.00000    
         3      7197   F  0.350000       110.000       180.000    
         3      7201   F  0.350000       110.000       0.00000    
         3      7205   F  0.350000       110.000       180.000    
         3      7209   F  0.350000       110.000       0.00000    
         3      7213   F  0.350000       110.000       180.000    
         3      7217   F  0.350000       110.000       0.00000    
         3      7221   F  0.350000       110.000       180.000    
         3      7225   F  0.350000       110.000       0.00000    
         3      7229   F  0.350000       110.000       180.000    
         3      7233   F  0.350000       110.000       0.00000    
         3      7237   F  0.350000       110.000       180.000    
         3      7241   F  0.350000       110.000       0.00000    
         3      7245   F  0.350000       110.000       180.000    
         3      7249   F  0.350000       110.000       0.00000    
         3      7253   F  0.350000       110.000       180.000    
         3      7257   F  0.350000       110.000       0.00000    
         3      7261   F  0.350000       110.000       180.000    
         3      7265   F  0.350000       110.000       0.00000    
         3      7269   F  0.350000       110.000       180.000    
         3      7273   F  0.350000       110.000       0.00000    
         3      7277   F  0.350000       110.000       180.000    
         3      7281   F  0.350000       110.000       0.00000    
         3      7285   F  0.350000       110.000       180.000    
         3      7289   F  0.350000       110.000       0.00000    
         3      7293   F  0.350000       110.000       180.000    
         3      7297   F  0.350000       110.000       0.00000    
         3      7301   F  0.350000       110.000       180.000    
         3      7305   F  0.350000       110.000       0.00000    
         3      7309   F  0.350000       110.000       180.000    
         3      7313   F  0.350000       110.000       0.00000    
         3      7317   F  0.350000       110.000       180.000    
         3      7321   F  0.350000       110.000       0.00000    
         3      7325   F  0.350000       110.000       180.000    
         3      7329   F  0.350000       110.000       0.00000    
         3      7333   F  0.350000       110.000       180.000    
         3      7337   F  0.350000       110.000       0.00000    
         3      7341   F  0.350000       110.000       180.000    
         3      7345   F  0.350000       110.000       0.00000    
         3      7349   F  0.350000       110.000       180.000    
         3      7353   F  0.350000       110.000       0.00000    
         3      7357   F  0.350000       110.000       180.000    
         3      7361   F  0.350000       110.000       0.00000    
         3      7365   F  0.350000       110.000       180.000    
         3      7369   F  0.350000       110.000       0.00000    
         3      7373   F  0.350000       110.000       180.000    
         3      7377   F  0.350000       110.000       0.00000    
         3      7381   F  0.350000       110.000       180.000    
         3      7385   F  0.350000       110.000       0.00000    
         3      7389   F  0.350000       110.000       180.000    
         3      7393   F  0.350000       110.000       0.00000    
         3      7397   F  0.350000       110.000       180.000    
         3      7401   F  0.350000       110.000       0.00000    
         3      7405   F  0.350000       110.000       180.000    
         3      7409   F  0.350000       110.000       0.00000    
         3      7413   F  0.350000       110.000       180.000    
         3      7417   F  0.350000       110.000       0.00000    
         3      7421   F  0.350000       110.000       180.000    
         3      7425   F  0.350000       110.000       0.00000    
         3      7429   F  0.350000       110.000       180.000    
         3      7433   F  0.350000       110.000       0.00000    
         3      7437   F  0.350000       110.000       180.000    
         3      7441   F  0.350000       110.000       0.00000    
         3      7445   F  0.350000       110.000       180.000    
         3      7449   F  0.350000       110.000       0.00000    
         3      7453   F  0.350000       110.000       180.000    
         3      7457   F  0.350000       110.000       0.00000    
         3      7461   F  0.350000       110.000       180.000    
         3      7465   F  0.350000       110.000       0.00000    
         3      7469   F  0.350000       110.000       180.000    
         3      7473   F  0.350000       110.000       0.00000    
         3      7477   F  0.350000       110.000       180.000    
         3      7481   F  0.350000       110.000       0.00000    
         3      7485   F  0.350000       110.000       180.000    
         3      7489   F  0.350000       110.000       0.00000    
         3      7493   F  0.350000       110.000       180.000    
         3      7497   F  0.350000       110.000       0.00000    
         3      7501   F  0.350000       110.000       180.000    
         3      7505   F  0.350000       110.000       0.00000    
         3      7509   F  0.350000       110.000       180.000    
         3      7513   F  0.350000       110.000       0.00000    
         3      7517   F  0.350000       110.000       180.000    
         3      7521   F  0.350000       110.000       0.00000    
         3      7525   F  0.350000       110.000       180.000    
         3      7529   F  0.350000       110.000       0.00000    
         3      7533   F  0.350000       110.000       180.000    
         3      7537   F  0.350000       110.000       0.00000    
         3      7541   F  0.350000       110.000       180.000    
         3      7545   F  0.350000       110.000       0.00000    
         3      7549   F  0.350000       110.000       180.000    
         3      7553   F  0.350000       110.000       0.00000    
         3      7557   F  0.350000       110.000       180.000    
         3      7561   F  0.350000       110.000       0.00000    
         3      7565   F  0.350000       110.000       180.000    
         3      7569   F  0.350000       110.000       0.00000    
         3      7573   F  0.350000       110.000       180.000    
         3      7577   F  0.350000       110.000       0.00000    
         3      7581   F  0.350000       110.000       180.000    
         3      7585   F  0.350000       110.000       0.00000    
         3      7589   F  0.350000       110.000       180.000    
         3      7593   F  0.350000       110.000       0.00000    
         3      7597   F  0.350000       110.000       180.000    
         3      7601   F  0.350000       110.000       0.00000    
         3      7605   F  0.350000       110.000       180.000    
         3      7609   F  0.350000       110.000       0.00000    
         3      7613   F  0.350000       110.000       180.000    
         3      7617   F  0.350000       110.000       0.00000    
         3      7621   F  0.350000       110.000       180.000    
         3      7625   F  0.350000       110.000       0.00000    
         3      7629   F  0.350000       110.000       180.000    
         3      7633   F  0.350000       110.000       0.00000    
         3      7637   F  0.350000       110.000       180.000    
         3      7641   F  0.350000       110.000       0.00000    
         3      7645   F  0.350000       110.000       180.000    
         3      7649   F  0.350000       110.000       0.00000    
         3      7653   F  0.350000       110.000       180.000    
         3      7657   F  0.350000       110.000       0.00000    
         3      7661   F  0.350000       110.000       180.000    
         3      7665   F  0.350000       110.000       0.00000    
         3      7669   F  0.350000       110.000       180.000    
         3      7673   F  0.350000       110.000       0.00000    
         3      7677   F  0.350000       110.000       180.000    
         3      7681   F  0.350000       110.000       0.00000    
         3      7685   F  0.350000       110.000       180.000    
         3      7689   F  0.350000       110.000       0.00000    
         3      7693   F  0.350000       110.000       180.000    
         3      7697   F  0.350000       110.000       0.00000    
         3      7701   F  0.350000       110.000       180.000    
         3      7705   F  0.350000       110.000       0.00000    
         3      7709   F  0.350000       110.000       180.000    
         3      7713   F  0.350000       110.000       0.00000    
         3      7717   F  0.350000       110.000       180.000    
         3      7721   F  0.350000       110.000       0.00000    
         3      7725   F  0.350000       110.000       180.000    
         3      7729   F  0.350000       110.000       0.00000    
         3      7733   F  0.350000       110.000       180.000    
         3      7737   F  0.350000       110.000       0.00000    
         3      7741   F  0.350000       110.000       180.000    
         3      7745   F  0.350000       110.000       0.00000    
         3      7749   F  0.350000       110.000       180.000    
         3      7753   F  0.350000       110.000       0.00000    
         3      7757   F  0.350000       110.000       180.000    
         3      7761   F  0.350000       110.000       0.00000    
         3      7765   F  0.350000       110.000       180.000    
         3      7769   F  0.350000       110.000       0.00000    
         3      7773   F  0.350000       110.000       180.000    
         3      7777   F  0.350000       110.000       0.00000    
         3      7781   F  0.350000       110.000       180.000    
         3      7785   F  0.350000       110.000       0.00000    
         3      7789   F  0.350000       110.000       180.000    
         3      7793   F  0.350000       110.000       0.00000    
         3      7797   F  0.350000       110.000       180.000    
         3      7801   F  0.350000       110.000       0.00000    
         3      7805   F  0.350000       110.000       180.000    
         3      7809   F  0.350000       110.000       0.00000    
         3      7813   F  0.350000       110.000       180.000    
         3      7817   F  0.350000       110.000       0.00000    
         3      7821   F  0.350000       110.000       180.000    
         3      7825   F  0.350000       110.000       0.00000    
         3      7829   F  0.350000       110.000       180.000    
         3      7833   F  0.350000       110.000       0.00000    
         3      7837   F  0.350000       110.000       180.000    
         3      7841   F  0.350000       110.000       0.00000    
         3      7845   F  0.350000       110.000       180.000    
         3      7849   F  0.350000       110.000       0.00000    
         3      7853   F  0.350000       110.000       180.000    
         3      7857   F  0.350000       110.000       0.00000    
         3      7861   F  0.350000       110.000       180.000    
         3      7865   F  0.350000       110.000       0.00000    
         3      7869   F  0.350000       110.000       180.000    
         3      7873   F  0.350000       110.000       0.00000    
         3      7877   F  0.350000       110.000       180.000    
         3      7881   F  0.350000       110.000       0.00000    
         3      7885   F  0.350000       110.000       180.000    
         3      7889   F  0.350000       110.000       0.00000    
         3      7893   F  0.350000       110.000       180.000    
         3      7897   F  0.350000       110.000       0.00000    
         3      7901   F  0.350000       110.000       180.000    
         3      7905   F  0.350000       110.000       0.00000    
         3      7909   F  0.350000       110.000       180.000    
         3      7913   F  0.350000       110.000       0.00000    
         3      7917   F  0.350000       110.000       180.000    
         3      7921   F  0.350000       110.000       0.00000    
         3      7925   F  0.350000       110.000       180.000    
         3      7929   F  0.350000       110.000       0.00000    
         3      7933   F  0.350000       110.000       180.000    
         3      7937   F  0.350000       110.000       0.00000    
         3      7941   F  0.350000       110.000       180.000    
         3      7945   F  0.350000       110.000       0.00000    
         3      7949   F  0.350000       110.000       180.000    
         3      7953   F  0.350000       110.000       0.00000    
         3      7957   F  0.350000       110.000       180.000    
         3      7961   F  0.350000       110.000       0.00000    
         3      7965   F  0.350000       110.000       180.000    
         3      7969   F  0.350000       110.000       0.00000    
         3      7973   F  0.350000       110.000       180.000    
         3      7977   F  0.350000       110.000       0.00000    
         3      7981   F  0.350000       110.000       180.000    
         3      7985   F  0.350000       110.000       0.00000    
         3      7989   F  0.350000       110.000       180.000    
         3      7993   F  0.350000       110.000       0.00000    
         3      7997   F  0.350000       110.000       180.000    
         3      8001   F  0.350000       110.000       0.00000    
         3      8005   F  0.350000       110.000       180.000    
         3      8009   F  0.350000       110.000       0.00000    
         3      8013   F  0.350000       110.000       180.000    
         3      8017   F  0.350000       110.000       0.00000    
         3      8021   F  0.350000       110.000       180.000    
         3      8025   F  0.350000       110.000       0.00000    
         3      8029   F  0.350000       110.000       180.000    
         3      8033   F  0.350000       110.000       0.00000    
         3      8037   F  0.350000       110.000       180.000    
         3      8041   F  0.350000       110.000       0.00000    
         3      8045   F  0.350000       110.000       180.000    
         3      8049   F  0.350000       110.000       0.00000    
         3      8053   F  0.350000       110.000       180.000    
         3      8057   F  0.350000       110.000       0.00000    
         3      8061   F  0.350000       110.000       180.000    
         3      8065   F  0.350000       110.000       0.00000    
         3      8069   F  0.350000       110.000       180.000    
         3      8073   F  0.350000       110.000       0.00000    
         3      8077   F  0.350000       110.000       180.000    
         3      8081   F  0.350000       110.000       0.00000    
         3      8085   F  0.350000       110.000       180.000    
         3      8089   F  0.350000       110.000       0.00000    
         3      8093   F  0.350000       110.000       180.000    
         3      8097   F  0.350000       110.000       0.00000    
         3      8101   F  0.350000       110.000       180.000    
         3      8105   F  0.350000       110.000       0.00000    
         3      8109   F  0.350000       110.000       180.000    
         3      8113   F  0.350000       110.000       0.00000    
         3      8117   F  0.350000       110.000       180.000    
         3      8121   F  0.350000       110.000       0.00000    
         3      8125   F  0.350000       110.000       180.000    
         3      8129   F  0.350000       110.000       0.00000    
         3      8133   F  0.350000       110.000       180.000    
         3      8137   F  0.350000       110.000       0.00000    
         3      8141   F  0.350000       110.000       180.000    
         3      8145   F  0.350000       110.000       0.00000    
         3      8149   F  0.350000       110.000       180.000    
         3      8153   F  0.350000       110.000       0.00000    
         3      8157   F  0.350000       110.000       180.000    
         3      8161   F  0.350000       110.000       0.00000    
         3      8165   F  0.350000       110.000       180.000    
         3      8169   F  0.350000       110.000       0.00000    
         3      8173   F  0.350000       110.000       180.000    
         3      8177   F  0.350000       110.000       0.00000    
         3      8181   F  0.350000       110.000       180.000    
         3      8185   F  0.350000       110.000       0.00000    
         3      8189   F  0.350000       110.000       180.000    
         3      8193   F  0.350000       110.000       0.00000    
         3      8197   F  0.350000       110.000       180.000    
         3      8201   F  0.350000       110.000       0.00000    
         3      8205   F  0.350000       110.000       180.000    
         3      8209   F  0.350000       110.000       0.00000    
         3      8213   F  0.350000       110.000       180.000    
         3      8217   F  0.350000       110.000       0.00000    
         3      8221   F  0.350000       110.000       180.000    
         3      8225   F  0.350000       110.000       0.00000    
         3      8229   F  0.350000       110.000       180.000    
         3      8233   F  0.350000       110.000       0.00000    
         3      8237   F  0.350000       110.000       180.000    
         3      8241   F  0.350000       110.000       0.00000    
         3      8245   F  0.350000       110.000       180.000    
         3      8249   F  0.350000       110.000       0.00000    
         3      8253   F  0.350000       110.000       180.000    
         3      8257   F  0.350000       110.000       0.00000    
         3      8261   F  0.350000       110.000       180.000    
         3      8265   F  0.350000       110.000       0.00000    
         3      8269   F  0.350000       110.000       180.000    
         3      8273   F  0.350000       110.000       0.00000    
         3      8277   F  0.350000       110.000       180.000    
         3      8281   F  0.350000       110.000       0.00000    
         3      8285   F  0.350000       110.000       180.000    
         3      8289   F  0.350000       110.000       0.00000    
         3      8293   F  0.350000       110.000       180.000    
         3      8297   F  0.350000       110.000       0.00000    
         3      8301   F  0.350000       110.000       180.000    
         3      8305   F  0.350000       110.000       0.00000    
         3      8309   F  0.350000       110.000       180.000    
         3      8313   F  0.350000       110.000       0.00000    
         3      8317   F  0.350000       110.000       180.000    
         3      8321   F  0.350000       110.000       0.00000    
         3      8325   F  0.350000       110.000       180.000    
         3      8329   F  0.350000       110.000       0.00000    
         3      8333   F  0.350000       110.000       180.000    
         3      8337   F  0.350000       110.000       0.00000    
         3      8341   F  0.350000       110.000       180.000    
         3      8345   F  0.350000       110.000       0.00000    
         3      8349   F  0.350000       110.000       180.000    
         3      8353   F  0.350000       110.000       0.00000    
         3      8357   F  0.350000       110.000       180.000    
         3      8361   F  0.350000       110.000       0.00000    
         3      8365   F  0.350000       110.000       180.000    
         3      8369   F  0.350000       110.000       0.00000    
         3      8373   F  0.350000       110.000       180.000    
         3      8377   F  0.350000       110.000       0.00000    
         3      8381   F  0.350000       110.000       180.000    
         3      8385   F  0.350000       110.000       0.00000    
         3      8389   F  0.350000       110.000       180.000    
         3      8393   F  0.350000       110.000       0.00000    
         3      8397   F  0.350000       110.000       180.000    
         3      8401   F  0.350000       110.000       0.00000    
         3      8405   F  0.350000       110.000       180.000    
         3      8409   F  0.350000       110.000       0.00000    
         3      8413   F  0.350000       110.000       180.000    
         3      8417   F  0.350000       110.000       0.00000    
         3      8421   F  0.350000       110.000       180.000    
         3      8425   F  0.350000       110.000       0.00000    
         3      8429   F  0.350000       110.000       180.000    
         3      8433   F  0.350000       110.000       0.00000    
         3      8437   F  0.350000       110.000       180.000    
         3      8441   F  0.350000       110.000       0.00000    
         3      8445   F  0.350000       110.000       180.000    
         3      8449   F  0.350000       110.000       0.00000    
         3      8453   F  0.350000       110.000       180.000    
         3      8457   F  0.350000       110.000       0.00000    
         3      8461   F  0.350000       110.000       180.000    
         3      8465   F  0.350000       110.000       0.00000    
         3      8469   F  0.350000       110.000       180.000    
         3      8473   F  0.350000       110.000       0.00000    
         3      8477   F  0.350000       110.000       180.000    
         3      8481   F  0.350000       110.000       0.00000    
         3      8485   F  0.350000       110.000       180.000    
         3      8489   F  0.350000       110.000       0.00000    
         3      8493   F  0.350000       110.000       180.000    
         3      8497   F  0.350000       110.000       0.00000    
         3      8501   F  0.350000       110.000       180.000    
         3      8505   F  0.350000       110.000       0.00000    
         3      8509   F  0.350000       110.000       180.000    
         3      8513   F  0.350000       110.000       0.00000    
         3      8517   F  0.350000       110.000       180.000    
         3      8521   F  0.350000       110.000       0.00000    
         3      8525   F  0.350000       110.000       180.000    
         3      8529   F  0.350000       110.000       0.00000    
         3      8533   F  0.350000       110.000       180.000    
         3      8537   F  0.350000       110.000       0.00000    
         3      8541   F  0.350000       110.000       180.000    
         3      8545   F  0.350000       110.000       0.00000    
         3      8549   F  0.350000       110.000       180.000    
         3      8553   F  0.350000       110.000       0.00000    
         3      8557   F  0.350000       110.000       180.000    
         3      8561   F  0.350000       110.000       0.00000    
         3      8565   F  0.350000       110.000       180.000    
         3      8569   F  0.350000       110.000       0.00000    
         3      8573   F  0.350000       110.000       180.000    
         3      8577   F  0.350000       110.000       0.00000    
         3      8581   F  0.350000       110.000       180.000    
         3      8585   F  0.350000       110.000       0.00000    
         3      8589   F  0.350000       110.000       180.000    
         3      8593   F  0.350000       110.000       0.00000    
         3      8597   F  0.350000       110.000       180.000    
         3      8601   F  0.350000       110.000       0.00000    
         3      8605   F  0.350000       110.000       180.000    
         3      8609   F  0.350000       110.000       0.00000    
         3      8613   F  0.350000       110.000       180.000    
         3      8617   F  0.350000       110.000       0.00000    
         3      8621   F  0.350000       110.000       180.000    
         3      8625   F  0.350000       110.000       0.00000    
         3      8629   F  0.350000       110.000       180.000    
         3      8633   F  0.350000       110.000       0.00000    
         3      8637   F  0.350000       110.000       180.000    
         3      8641   F  0.350000       110.000       0.00000    
         3      8645   F  0.350000       110.000       180.000    
         3      8649   F  0.350000       110.000       0.00000    
         3      8653   F  0.350000       110.000       180.000    
         3      8657   F  0.350000       110.000       0.00000    
         3      8661   F  0.350000       110.000       180.000    
         3      8665   F  0.350000       110.000       0.00000    
         3      8669   F  0.350000       110.000       180.000    
         3      8673   F  0.350000       110.000       0.00000    
         3      8677   F  0.350000       110.000       180.000    
         3      8681   F  0.350000       110.000       0.00000    
         3      8685   F  0.350000       110.000       180.000    
         3      8689   F  0.350000       110.000       0.00000    
         3      8693   F  0.350000       110.000       180.000    
         3      8697   F  0.350000       110.000       0.00000    
         3      8701   F  0.350000       110.000       180.000    
         3      8705   F  0.350000       110.000       0.00000    
         3      8709   F  0.350000       110.000       180.000    
         3      8713   F  0.350000       110.000       0.00000    
         3      8717   F  0.350000       110.000       180.000    
         3      8721   F  0.350000       110.000       0.00000    
         3      8725   F  0.350000       110.000       180.000    
         3      8729   F  0.350000       110.000       0.00000    
         3      8733   F  0.350000       110.000       180.000    
         3      8737   F  0.350000       110.000       0.00000    
         3      8741   F  0.350000       110.000       180.000    
         3      8745   F  0.350000       110.000       0.00000    
         3      8749   F  0.350000       110.000       180.000    
         3      8753   F  0.350000       110.000       0.00000    
         3      8757   F  0.350000       110.000       180.000    
         3      8761   F  0.350000       110.000       0.00000    
         3      8765   F  0.350000       110.000       180.000    
         3      8769   F  0.350000       110.000       0.00000    
         3      8773   F  0.350000       110.000       180.000    
         3      8777   F  0.350000       110.000       0.00000    
         3      8781   F  0.350000       110.000       180.000    
         3      8785   F  0.350000       110.000       0.00000    
         3      8789   F  0.350000       110.000       180.000    
         3      8793   F  0.350000       110.000       0.00000    
         3      8797   F  0.350000       110.000       180.000    
         3      8801   F  0.350000       110.000       0.00000    
         3      8805   F  0.350000       110.000       180.000    
         3      8809   F  0.350000       110.000       0.00000    
         3      8813   F  0.350000       110.000       180.000    
         3      8817   F  0.350000       110.000       0.00000    
         3      8821   F  0.350000       110.000       180.000    
         3      8825   F  0.350000       110.000       0.00000    
         3      8829   F  0.350000       110.000       180.000    
         3      8833   F  0.350000       110.000       0.00000    
         3      8837   F  0.350000       110.000       180.000    
         3      8841   F  0.350000       110.000       0.00000    
         3      8845   F  0.350000       110.000       180.000    
         3      8849   F  0.350000       110.000       0.00000    
         3      8853   F  0.350000       110.000       180.000    
         3      8857   F  0.350000       110.000       0.00000    
         3      8861   F  0.350000       110.000       180.000    
         3      8865   F  0.350000       110.000       0.00000    
         3      8869   F  0.350000       110.000       180.000    
         3      8873   F  0.350000       110.000       0.00000    
         3      8877   F  0.350000       110.000       180.000    
         3      8881   F  0.350000       110.000       0.00000    
         3      8885   F  0.350000       110.000       180.000    
         3      8889   F  0.350000       110.000       0.00000    
         3      8893   F  0.350000       110.000       180.000    
         3      8897   F  0.350000       110.000       0.00000    
         3      8901   F  0.350000       110.000       180.000    
         3      8905   F  0.350000       110.000       0.00000    
         3      8909   F  0.350000       110.000       180.000    
         3      8913   F  0.350000       110.000       0.00000    
         3      8917   F  0.350000       110.000       180.000    
         3      8921   F  0.350000       110.000       0.00000    
         3      8925   F  0.350000       110.000       180.000    
         3      8929   F  0.350000       110.000       0.00000    
         3      8933   F  0.350000       110.000       180.000    
         3      8937   F  0.350000       110.000       0.00000    
         3      8941   F  0.350000       110.000       180.000    
         3      8945   F  0.350000       110.000       0.00000    
         3      8949   F  0.350000       110.000       180.000    
         3      8953   F  0.350000       110.000       0.00000    
         3      8957   F  0.350000       110.000       180.000    
         3      8961   F  0.350000       110.000       0.00000    
         3      8965   F  0.350000       110.000       180.000    
         3      8969   F  0.350000       110.000       0.00000    
         3      8973   F  0.350000       110.000       180.000    
         3      8977   F  0.350000       110.000       0.00000    
         3      8981   F  0.350000       110.000       180.000    
         3      8985   F  0.350000       110.000       0.00000    
         3      8989   F  0.350000       110.000       180.000    
         3      8993   F  0.350000       110.000       0.00000    
         3      8997   F  0.350000       110.000       180.000    
         3      9001   F  0.350000       110.000       0.00000    
         3      9005   F  0.350000       110.000       180.000    
         3      9009   F  0.350000       110.000       0.00000    
         3      9013   F  0.350000       110.000       180.000    
         3      9017   F  0.350000       110.000       0.00000    
         3      9021   F  0.350000       110.000       180.000    
         3      9025   F  0.350000       110.000       0.00000    
         3      9029   F  0.350000       110.000       180.000    
         3      9033   F  0.350000       110.000       0.00000    
         3      9037   F  0.350000       110.000       180.000    
         3      9041   F  0.350000       110.000       0.00000    
         3      9045   F  0.350000       110.000       180.000    
         3      9049   F  0.350000       110.000       0.00000    
         3      9053   F  0.350000       110.000       180.000    
         3      9057   F  0.350000       110.000       0.00000    
         3      9061   F  0.350000       110.000       180.000    
         3      9065   F  0.350000       110.000       0.00000    
         3      9069   F  0.350000       110.000       180.000    
         3      9073   F  0.350000       110.000       0.00000    
         3      9077   F  0.350000       110.000       180.000    
         3      9081   F  0.350000       110.000       0.00000    
         3      9085   F  0.350000       110.000       180.000    
         3      9089   F  0.350000       110.000       0.00000    
         3      9093   F  0.350000       110.000       180.000    
         3      9097   F  0.350000       110.000       0.00000    
         3      9101   F  0.350000       110.000       180.000    
         3      9105   F  0.350000       110.000       0.00000    
         3      9109   F  0.350000       110.000       180.000    
         3      9113   F  0.350000       110.000       0.00000    
         3      9117   F  0.350000       110.000       180.000    
         3      9121   F  0.350000       110.000       0.00000    
         3      9125   F  0.350000       110.000       180.000    
         3      9129   F  0.350000       110.000       0.00000    
         3      9133   F  0.350000       110.000       180.000    
         3      9137   F  0.350000       110.000       0.00000    
         3      9141   F  0.350000       110.000       180.000    
         3      9145   F  0.350000       110.000       0.00000    
         3      9149   F  0.350000       110.000       180.000    
         3      9153   F  0.350000       110.000       0.00000    
         3      9157   F  0.350000       110.000       180.000    
         3      9161   F  0.350000       110.000       0.00000    
         3      9165   F  0.350000       110.000       180.000    
         3      9169   F  0.350000       110.000       0.00000    
         3      9173   F  0.350000       110.000       180.000    
         3      9177   F  0.350000       110.000       0.00000    
         3      9181   F  0.350000       110.000       180.000    
         3      9185   F  0.350000       110.000       0.00000    
         3      9189   F  0.350000       110.000       180.000    
         3      9193   F  0.350000       110.000       0.00000    
         3      9197   F  0.350000       110.000       180.000    
         3      9201   F  0.350000       110.000       0.00000    
         3      9205   F  0.350000       110.000       180.000    
         3      9209   F  0.350000       110.000       0.00000    
         3      9213   F  0.350000       110.000       180.000    
         3      9217   F  0.350000       110.000       0.00000    
         3      9221   F  0.350000       110.000       180.000    
         3      9225   F  0.350000       110.000       0.00000    
         3      9229   F  0.350000       110.000       180.000    
         3      9233   F  0.350000       110.000       0.00000    
         3      9237   F  0.350000       110.000       180.000    
         3      9241   F  0.350000       110.000       0.00000    
         3      9245   F  0.350000       110.000       180.000    
         3      9249   F  0.350000       110.000       0.00000    
         3      9253   F  0.350000       110.000       180.000    
         3      9257   F  0.350000       110.000       0.00000    
         3      9261   F  0.350000       110.000       180.000    
         3      9265   F  0.350000       110.000       0.00000    
         3      9269   F  0.350000       110.000       180.000    
         3      9273   F  0.350000       110.000       0.00000    
         3      9277   F  0.350000       110.000       180.000    
         3      9281   F  0.350000       110.000       0.00000    
         3      9285   F  0.350000       110.000       180.000    
         3      9289   F  0.350000       110.000       0.00000    
         3      9293   F  0.350000       110.000       180.000    
         3      9297   F  0.350000       110.000       0.00000    
         3      9301   F  0.350000       110.000       180.000    
         3      9305   F  0.350000       110.000       0.00000    
         3      9309   F  0.350000       110.000       180.000    
         3      9313   F  0.350000       110.000       0.00000    
         3      9317   F  0.350000       110.000       180.000    
         3      9321   F  0.350000       110.000       0.00000    
         3      9325   F  0.350000       110.000       180.000    
         3      9329   F  0.350000       110.000       0.00000    
         3      9333   F  0.350000       110.000       180.000    
         3      9337   F  0.350000       110.000       0.00000    
         3      9341   F  0.350000       110.000       180.000    
         3      9345   F  0.350000       110.000       0.00000    
         3      9349   F  0.350000       110.000       180.000    
         3      9353   F  0.350000       110.000       0.00000    
         3      9357   F  0.350000       110.000       180.000    
         3      9361   F  0.350000       110.000       0.00000    
         3      9365   F  0.350000       110.000       180.000    
         3      9369   F  0.350000       110.000       0.00000    
         3      9373   F  0.350000       110.000       180.000    
         3      9377   F  0.350000       110.000       0.00000    
         3      9381   F  0.350000       110.000       180.000    
         3      9385   F  0.350000       110.000       0.00000    
         3      9389   F  0.350000       110.000       180.000    
         3      9393   F  0.350000       110.000       0.00000    
         3      9397   F  0.350000       110.000       180.000    
         3      9401   F  0.350000       110.000       0.00000    
         3      9405   F  0.350000       110.000       180.000    
         3      9409   F  0.350000       110.000       0.00000    
         3      9413   F  0.350000       110.000       180.000    
         3      9417   F  0.350000       110.000       0.00000    
         3      9421   F  0.350000       110.000       180.000    
         3      9425   F  0.350000       110.000       0.00000    
         3      9429   F  0.350000       110.000       180.000    
         3      9433   F  0.350000       110.000       0.00000    
         3      9437   F  0.350000       110.000       180.000    
         3      9441   F  0.350000       110.000       0.00000    
         3      9445   F  0.350000       110.000       180.000    
         3      9449   F  0.350000       110.000       0.00000    
         3      9453   F  0.350000       110.000       180.000    
         3      9457   F  0.350000       110.000       0.00000    
         3      9461   F  0.350000       110.000       180.000    
         3      9465   F  0.350000       110.000       0.00000    
         3      9469   F  0.350000       110.000       180.000    
         3      9473   F  0.350000       110.000       0.00000    
         3      9477   F  0.350000       110.000       180.000    
         3      9481   F  0.350000       110.000       0.00000    
         3      9485   F  0.350000       110.000       180.000    
         3      9489   F  0.350000       110.000       0.00000    
         3      9493   F  0.350000       110.000       180.000    
         3      9497   F  0.350000       110.000       0.00000    
         3      9501   F  0.350000       110.000       180.000    
         3      9505   F  0.350000       110.000       0.00000    
         3      9509   F  0.350000       110.000       180.000    
         3      9513   F  0.350000       110.000       0.00000    
         3      9517   F  0.350000       110.000       180.000    
         3      9521   F  0.350000       110.000       0.00000    
         3      9525   F  0.350000       110.000       180.000    
         3      9529   F  0.350000       110.000       0.00000    
         3      9533   F  0.350000       110.000       180.000    
         3      9537   F  0.350000       110.000       0.00000    
         3      9541   F  0.350000       110.000       180.000    
         3      9545   F  0.350000       110.000       0.00000    
         3      9549   F  0.350000       110.000       180.000    
         3      9553   F  0.350000       110.000       0.00000    
         3      9557   F  0.350000       110.000       180.000    
         3      9561   F  0.350000       110.000       0.00000    
         3      9565   F  0.350000       110.000       180.000    
         3      9569   F  0.350000       110.000       0.00000    
         3      9573   F  0.350000       110.000       180.000    
         3      9577   F  0.350000       110.000       0.00000    
         3      9581   F  0.350000       110.000       180.000    
         3      9585   F  0.350000       110.000       0.00000    
         3      9589   F  0.350000       110.000       180.000    
         3      9593   F  0.350000       110.000       0.00000    
         3      9597   F  0.350000       110.000       180.000    
         3      9601   F  0.350000       110.000       0.00000    
         3      9605   F  0.350000       110.000       180.000    
         3      9609   F  0.350000       110.000       0.00000    
         3      9613   F  0.350000       110.000       180.000    
         3      9617   F  0.350000       110.000       0.00000    
         3      9621   F  0.350000       110.000       180.000    
         3      9625   F  0.350000       110.000       0.00000    
         3      9629   F  0.350000       110.000       180.000    
         3      9633   F  0.350000       110.000       0.00000    
         3      9637   F  0.350000       110.000       180.000    
         3      9641   F  0.350000       110.000       0.00000    
         3      9645   F  0.350000       110.000       180.000    
         3      9649   F  0.350000       110.000       0.00000    
         3      9653   F  0.350000       110.000       180.000    
         3      9657   F  0.350000       110.000       0.00000    
         3      9661   F  0.350000       110.000       180.000    
         3      9665   F  0.350000       110.000       0.00000    
         3      9669   F  0.350000       110.000       180.000    
         3      9673   F  0.350000       110.000       0.00000    
         3      9677   F  0.350000       110.000       180.000    
         3      9681   F  0.350000       110.000       0.00000    
         3      9685   F  0.350000       110.000       180.000    
         3      9689   F  0.350000       110.000       0.00000    
         3      9693   F  0.350000       110.000       180.000    
         3      9697   F  0.350000       110.000       0.00000    
         3      9701   F  0.350000       110.000       180.000    
         3      9705   F  0.350000       110.000       0.00000    
         3      9709   F  0.350000       110.000       180.000    
         3      9713   F  0.350000       110.000       0.00000    
         3      9717   F  0.350000       110.000       180.000    
         3      9721   F  0.350000       110.000       0.00000    
         3      9725   F  0.350000       110.000       180.000    
         3      9729   F  0.350000       110.000       0.00000    
         3      9733   F  0.350000       110.000       180.000    
         3      9737   F  0.350000       110.000       0.00000    
         3      9741   F  0.350000       110.000       180.000    
         3      9745   F  0.350000       110.000       0.00000    
         3      9749   F  0.350000       110.000       180.000    
         3      9753   F  0.350000       110.000       0.00000    
         3      9757   F  0.350000       110.000       180.000    
         3      9761   F  0.350000       110.000       0.00000    
         3      9765   F  0.350000       110.000       180.000    
         3      9769   F  0.350000       110.000       0.00000    
         3      9773   F  0.350000       110.000       180.000    
         3      9777   F  0.350000       110.000       0.00000    
         3      9781   F  0.350000       110.000       180.000    
         3      9785   F  0.350000       110.000       0.00000    
         3      9789   F  0.350000       110.000       180.000    
         3      9793   F  0.350000       110.000       0.00000    
         3      9797   F  0.350000       110.000       180.000    
         3      9801   F  0.350000       110.000       0.00000    
         3      9805   F  0.350000       110.000       180.000    
         3      9809   F  0.350000       110.000       0.00000    
         3      9813   F  0.350000       110.000       180.000    
         3      9817   F  0.350000       110.000       0.00000    
         3      9821   F  0.350000       110.000       180.000    
         3      9825   F  0.350000       110.000       0.00000    
         3      9829   F  0.350000       110.000       180.000    
         3      9833   F  0.350000       110.000       0.00000    
         3      9837   F  0.350000       110.000       180.000    
         3      9841   F  0.350000       110.000       0.00000    
         3      9845   F  0.350000       110.000       180.000    
         3      9849   F  0.350000       110.000       0.00000    
         3      9853   F  0.350000       110.000       180.000    
         3      9857   F  0.350000       110.000       0.00000    
         3      9861   F  0.350000       110.000       180.000    
         3      9865   F  0.350000       110.000       0.00000    
         3      9869   F  0.350000       110.000       180.000    
         3      9873   F  0.350000       110.000       0.00000    
         3      9877   F  0.350000       110.000       180.000    
         3      9881   F  0.350000       110.000       0.00000    
         3      9885   F  0.350000       110.000       180.000    
         3      9889   F  0.350000       110.000       0.00000    
         3      9893   F  0.350000       110.000       180.000    
         3      9897   F  0.350000       110.000       0.00000    
         3      9901   F  0.350000       110.000       180.000    
         3      9905   F  0.350000       110.000       0.00000    
         3      9909   F  0.350000       110.000       180.000    
         3      9913   F  0.350000       110.000       0.00000    
         3      9917   F  0.350000       110.000       180.000    
         3      9921   F  0.350000       110.000       0.00000    
         3      9925   F  0.350000       110.000       180.000    
         3      9929   F  0.350000       110.000       0.00000    
         3      9933   F  0.350000       110.000       180.000    
         3      9937   F  0.350000       110.000       0.00000    
         3      9941   F  0.350000       110.000       180.000    
         3      9945   F  0.350000       110.000       0.00000    
         3      9949   F  0.350000       110.000       180.000    
         3      9953   F  0.350000       110.000       0.00000    
         3      9957   F  0.350000       110.000       180.000    
         3      9961   F  0.350000       110.000       0.00000    
         3      9965   F  0.350000       110.000       180.000    
         3      9969   F  0.350000       110.000       0.00000    
         3      9973   F  0.350000       110.000       180.000    
         3      9977   F  0.350000       110.000       0.00000    
         3      9981   F  0.350000       110.000       180.000    
         3      9985   F  0.350000       110.000       0.00000    
         3      9989   F  0.350000       110.000       180.000    
         3      9993   F  0.350000       110.000       0.00000    
         3      9997   F  0.350000       110.000       180.000    
         3     10001   F -0.300000       179.990       179.990    
         3     10005   F -0.300000       179.990       179.990    
         3     10009   F -0.300000       179.990       179.990    
         3     10013   F -0.300000       179.990       179.990    
         3     10017   F -0.300000       179.990       179.990    
         3     10021   F -0.300000       179.990       179.990    
         3     10025   F -0.300000       179.990       179.990    
         3     10029   F -0.300000       179.990       179.990    
         3     10033   F -0.300000       179.990       179.990    
         3     10037   F -0.300000       179.990       179.990    
         3     10041   F -0.300000       179.990       179.990    
         3     10045   F -0.300000       179.990       179.990    
         3     10049   F -0.300000       179.990       179.990    
         3     10053   F -0.300000       179.990       179.990    
         3     10057   F -0.300000       179.990       179.990    
         3     10061   F -0.300000       179.990       179.990    
         3     10065   F -0.300000       179.990       179.990    
         3     10069   F -0.300000       179.990       179.990    
         3     10073   F -0.300000       179.990       179.990    
         3     10077   F -0.300000       179.990       179.990    
         3     10081   F -0.300000       179.990       179.990    
         3     10085   F -0.300000       179.990       179.990    
         3     10089   F -0.300000       179.990       179.990    
         3     10093   F -0.300000       179.990       179.990    
         3     10097   F -0.300000       179.990       179.990    
         3     10101   F -0.300000       179.990       179.990    
         3     10105   F -0.300000       179.990       179.990    
         3     10109   F -0.300000       179.990       179.990    
         3     10113   F -0.300000       179.990       179.990    
         3     10117   F -0.300000       179.990       179.990    
         3     10121   F -0.300000       179.990       179.990    
         3     10125   F -0.300000       179.990       179.990    
         3     10129   F -0.300000       179.990       179.990    
         3     10133   F -0.300000       179.990       179.990    
         3     10137   F -0.300000       179.990       179.990    
         3     10141   F -0.300000       179.990       179.990    
         3     10145   F -0.300000       179.990       179.990    
         3     10149   F -0.300000       179.990       179.990    
         3     10153   F -0.300000       179.990       179.990    
         3     10157   F -0.300000       179.990       179.990    
         3     10161   F -0.300000       179.990       179.990    
         3     10165   F -0.300000       179.990       179.990    
         3     10169   F -0.300000       179.990       179.990    
         3     10173   F -0.300000       179.990       179.990    
         3     10177   F -0.300000       179.990       179.990    
         3     10181   F -0.300000       179.990       179.990    
         3     10185   F -0.300000       179.990       179.990    
         3     10189   F -0.300000       179.990       179.990    
         3     10193   F -0.300000       179.990       179.990    
         3     10197   F -0.300000       179.990       179.990    
         3     10201   F  0.350000       110.000       0.00000    
         3     10205   F  0.350000       110.000       180.000    
         3     10209   F -0.350000       110.000       90.0000    
         3     10213   F -0.350000       110.000       270.000    
         3     10217   F  0.350000       110.000       0.00000    
         3     10221   F  0.350000       110.000       180.000    
         3     10225   F -0.350000       110.000       90.0000    
         3     10229   F -0.350000       110.000       270.000    
         3     10233   F  0.350000       110.000       0.00000    
         3     10237   F  0.350000       110.000       180.000    
         3     10241   F -0.350000       110.000       90.0000    
         3     10245   F -0.350000       110.000       270.000    
         3     10249   F  0.350000       110.000       0.00000    
         3     10253   F  0.350000       110.000       180.000    
         3     10257   F -0.350000       110.000       90.0000    
         3     10261   F -0.350000       110.000       270.000    
         3     10265   F  0.350000       110.000       0.00000    
         3     10269   F  0.350000       110.000       180.000    
         3     10273   F -0.350000       110.000       90.0000    
         3     10277   F -0.350000       110.000       270.000    
         3     10281   F  0.350000       110.000       0.00000    
         3     10285   F  0.350000       110.000       180.000    
         3     10289   F -0.350000       110.000       90.0000    
         3     10293   F -0.350000       110.000       270.000    
         3     10297   F  0.350000       110.000       0.00000    
         3     10301   F  0.350000       110.000       180.000    
         3     10305   F -0.350000       110.000       90.0000    
         3     10309   F -0.350000       110.000       270.000    
         3     10313   F  0.350000       110.000       0.00000    
         3     10317   F  0.350000       110.000       180.000    
         3     10321   F -0.350000       110.000       90.0000    
         3     10325   F -0.350000       110.000       270.000    
         3     10329   F  0.350000       110.000       0.00000    
         3     10333   F  0.350000       110.000       180.000    
         3     10337   F -0.350000       110.000       90.0000    
         3     10341   F -0.350000       110.000       270.000    
         3     10345   F  0.350000       110.000       0.00000    
         3     10349   F  0.350000       110.000       180.000    
         3     10353   F -0.350000       110.000       90.0000    
         3     10357   F -0.350000       110.000       270.000    
         3     10361   F  0.350000       110.000       0.00000    
         3     10365   F  0.350000       110.000       180.000    
         3     10369   F -0.350000       110.000       90.0000    
         3     10373   F -0.350000       110.000       270.000    
         3     10377   F  0.350000       110.000       0.00000    
         3     10381   F  0.350000       110.000       180.000    
         3     10385   F -0.350000       110.000       90.0000    
         3     10389   F -0.350000       110.000       270.000    
         3     10393   F  0.350000       110.000       0.00000    
         3     10397   F  0.350000       110.000       180.000    
         3     10401   F -0.350000       110.000       90.0000    
         3     10405   F -0.350000       110.000       270.000    
         3     10409   F  0.350000       110.000       0.00000    
         3     10413   F  0.350000       110.000       180.000    
         3     10417   F -0.350000       110.000       90.0000    
         3     10421   F -0.350000       110.000       270.000    
         3     10425   F  0.350000       110.000       0.00000    
         3     10429   F  0.350000       110.000       180.000    
         3     10433   F -0.350000       110.000       90.0000    
         3     10437   F -0.350000       110.000       270.000    
         3     10441   F  0.350000       110.000       0.00000    
         3     10445   F  0.350000       110.000       180.000    
         3     10449   F -0.350000       110.000       90.0000    
         3     10453   F -0.350000       110.000       270.000    
         3     10457   F  0.350000       110.000       0.00000    
         3     10461   F  0.350000       110.000       180.000    
         3     10465   F -0.350000       110.000       90.0000    
         3     10469   F -0.350000       110.000       270.000    
         3     10473   F  0.350000       110.000       0.00000    
         3     10477   F  0.350000       110.000       180.000    
         3     10481   F -0.350000       110.000       90.0000    
         3     10485   F -0.350000       110.000       270.000    
         3     10489   F  0.350000       110.000       0.00000    
         3     10493   F  0.350000       110.000       180.000    
         3     10497   F -0.350000       110.000       90.0000    
         3     10501   F -0.350000       110.000       270.000    
         3     10505   F  0.350000       110.000       0.00000    
         3     10509   F  0.350000       110.000       180.000    
         3     10513   F -0.350000       110.000       90.0000    
         3     10517   F -0.350000       110.000       270.000    
         3     10521   F  0.350000       110.000       0.00000    
         3     10525   F  0.350000       110.000       180.000    
         3     10529   F -0.350000       110.000       90.0000    
         3     10533   F -0.350000       110.000       270.000    
         3     10537   F  0.350000       110.000       0.00000    
         3     10541   F  0.350000       110.000       180.000    
         3     10545   F -0.350000       110.000       90.0000    
         3     10549   F -0.350000       110.000       270.000    
         3     10553   F  0.350000       110.000       0.00000    
         3     10557   F  0.350000       110.000       180.000    
         3     10561   F -0.350000       110.000       90.0000    
         3     10565   F -0.350000       110.000       270.000    
         3     10569   F  0.350000       110.000       0.00000    
         3     10573   F  0.350000       110.000       180.000    
         3     10577   F -0.350000       110.000       90.0000    
         3     10581   F -0.350000       110.000       270.000    
         3     10585   F  0.350000       110.000       0.00000    
         3     10589   F  0.350000       110.000       180.000    
         3     10593   F -0.350000       110.000       90.0000    
         3     10597   F -0.350000       110.000       270.000    
         3     10601   F  0.350000       110.000       0.00000    
         3     10605   F  0.350000       110.000       180.000    
         3     10609   F -0.350000       110.000       90.0000    
         3     10613   F -0.350000       110.000       270.000    
         3     10617   F  0.350000       110.000       0.00000    
         3     10621   F  0.350000       110.000       180.000    
         3     10625   F -0.350000       110.000       90.0000    
         3     10629   F -0.350000       110.000       270.000    
         3     10633   F  0.350000       110.000       0.00000    
         3     10637   F  0.350000       110.000       180.000    
         3     10641   F -0.350000       110.000       90.0000    
         3     10645   F -0.350000       110.000       270.000    
         3     10649   F  0.350000       110.000       0.00000    
         3     10653   F  0.350000       110.000       180.000    
         3     10657   F -0.350000       110.000       90.0000    
         3     10661   F -0.350000       110.000       270.000    
         3     10665   F  0.350000       110.000       0.00000    
         3     10669   F  0.350000       110.000       180.000    
         3     10673   F -0.350000       110.000       90.0000    
         3     10677   F -0.350000       110.000       270.000    
         3     10681   F  0.350000       110.000       0.00000    
         3     10685   F  0.350000       110.000       180.000    
         3     10689   F -0.350000       110.000       90.0000    
         3     10693   F -0.350000       110.000       270.000    
         3     10697   F  0.350000       110.000       0.00000    
         3     10701   F  0.350000       110.000       180.000    
         3     10705   F -0.350000       110.000       90.0000    
         3     10709   F -0.350000       110.000       270.000    
         3     10713   F  0.350000       110.000       0.00000    
         3     10717   F  0.350000       110.000       180.000    
         3     10721   F -0.350000       110.000       90.0000    
         3     10725   F -0.350000       110.000       270.000    
         3     10729   F  0.350000       110.000       0.00000    
         3     10733   F  0.350000       110.000       180.000    
         3     10737   F -0.350000       110.000       90.0000    
         3     10741   F -0.350000       110.000       270.000    
         3     10745   F  0.350000       110.000       0.00000    
         3     10749   F  0.350000       110.000       180.000    
         3     10753   F -0.350000       110.000       90.0000    
         3     10757   F -0.350000       110.000       270.000    
         3     10761   F  0.350000       110.000       0.00000    
         3     10765   F  0.350000       110.000       180.000    
         3     10769   F -0.350000       110.000       90.0000    
         3     10773   F -0.350000       110.000       270.000    
         3     10777   F  0.350000       110.000       0.00000    
         3     10781   F  0.350000       110.000       180.000    
         3     10785   F -0.350000       110.000       90.0000    
         3     10789   F -0.350000       110.000       270.000    
         3     10793   F  0.350000       110.000       0.00000    
         3     10797   F  0.350000       110.000       180.000    
         3     10801   F -0.350000       110.000       90.0000    
         3     10805   F -0.350000       110.000       270.000    
         3     10809   F  0.350000       110.000       0.00000    
         3     10813   F  0.350000       110.000       180.000    
         3     10817   F -0.350000       110.000       90.0000    
         3     10821   F -0.350000       110.000       270.000    
         3     10825   F  0.350000       110.000       0.00000    
         3     10829   F  0.350000       110.000       180.000    
         3     10833   F -0.350000       110.000       90.0000    
         3     10837   F -0.350000       110.000       270.000    
         3     10841   F  0.350000       110.000       0.00000    
         3     10845   F  0.350000       110.000       180.000    
         3     10849   F -0.350000       110.000       90.0000    
         3     10853   F -0.350000       110.000       270.000    
         3     10857   F  0.350000       110.000       0.00000    
         3     10861   F  0.350000       110.000       180.000    
         3     10865   F -0.350000       110.000       90.0000    
         3     10869   F -0.350000       110.000       270.000    
         3     10873   F  0.350000       110.000       0.00000    
         3     10877   F  0.350000       110.000       180.000    
         3     10881   F -0.350000       110.000       90.0000    
         3     10885   F -0.350000       110.000       270.000    
         3     10889   F  0.350000       110.000       0.00000    
         3     10893   F  0.350000       110.000       180.000    
         3     10897   F -0.350000       110.000       90.0000    
         3     10901   F -0.350000       110.000       270.000    
         3     10905   F  0.350000       110.000       0.00000    
         3     10909   F  0.350000       110.000       180.000    
         3     10913   F -0.350000       110.000       90.0000    
         3     10917   F -0.350000       110.000       270.000    
         3     10921   F  0.350000       110.000       0.00000    
         3     10925   F  0.350000       110.000       180.000    
         3     10929   F -0.350000       110.000       90.0000    
         3     10933   F -0.350000       110.000       270.000    
         3     10937   F  0.350000       110.000       0.00000    
         3     10941   F  0.350000       110.000       180.000    
         3     10945   F -0.350000       110.000       90.0000    
         3     10949   F -0.350000       110.000       270.000    
         3     10953   F  0.350000       110.000       0.00000    
         3     10957   F  0.350000       110.000       180.000    
         3     10961   F -0.350000       110.000       90.0000    
         3     10965   F -0.350000       110.000       270.000    
         3     10969   F  0.350000       110.000       0.00000    
         3     10973   F  0.350000       110.000       180.000    
         3     10977   F -0.350000       110.000       90.0000    
         3     10981   F -0.350000       110.000       270.000    
         3     10985   F  0.350000       110.000       0.00000    
         3     10989   F  0.350000       110.000       180.000    
         3     10993   F -0.350000       110.000       90.0000    
         3     10997   F -0.350000       110.000       270.000    
        20        17        14        11        40        37        34        31
        60        57        54        51        80        77        74        71
       100        97        94        91       120       117       114       111
       140       137       134       131       160       157       154       151
       180       177       174       171       200       197       194       191
       220       217       214       211       240       237       234       231
       260       257       254       251       280       277       274       271
       300       297       294       291       320       317       314       311
       340       337       334       331       360       357       354       351
       380       377       374       371       400       397       394       391
       420       417       414       411       440       437       434       431
       460       457       454       451       480       477       474       471
       500       497       494       491       520       517       514       511
       540       537       534       531       560       557       554       551
       580       577       574       571       600       597       594       591
       620       617       614       611       640       637       634       631
       660       657       654       651       680       677       674       671
       700       697       694       691       720       717       714       711
       740       737       734       731       760       757       754       751
       780       777       774       771       800       797       794       791
       820       817       814       811       840       837       834       831
       860       857       854       851       880       877       874       871
       900       897       894       891       920       917       914       911
       940       937       934       931       960       957       954       951
       980       977       974       971      1000       997       994       991
      1020      1017      1014      1011      1040      1037      1034      1031
      1060      1057      1054      1051      1080      1077      1074      1071
      1100      1097      1094      1091      1120      1117      1114      1111
      1140      1137      1134      1131      1160      1157      1154      1151
      1180      1177      1174      1171      1200      1197      1194      1191
      1220      1217      1214      1211      1240      1237      1234      1231
      1260      1257      1254      1251      1280      1277      1274      1271
      1300      1297      1294      1291      1320      1317      1314      1311
      1340      1337      1334      1331      1360      1357      1354      1351
      1380      1377      1374      1371      1400      1397      1394      1391
      1420      1417      1414      1411      1440      1437      1434      1431
      1460      1457      1454      1451      1480      1477      1474      1471
      1500      1497      1494      1491      1520      1517      1514      1511
      1540      1537      1534      1531      1560      1557      1554      1551
      1580      1577      1574      1571      1600      1597      1594      1591
      1620      1617      1614      1611      1640      1637      1634      1631
      1660      1657      1654      1651      1680      1677      1674      1671
      1700      1697      1694      1691      1720      1717      1714      1711
      1740      1737      1734      1731      1760      1757      1754      1751
      1780      1777      1774      1771      1800      1797      1794      1791
      1820      1817      1814      1811      1840      1837      1834      1831
      1860      1857      1854      1851      1880      1877      1874      1871
      1900      1897      1894      1891      1920      1917      1914      1911
      1940      1937      1934      1931      1960      1957      1954      1951
      1980      1977      1974      1971      2000      1997      1994      1991
      2020      2017      2014      2011      2040      2037      2034      2031
      2060      2057      2054      2051      2080      2077      2074      2071
      2100      2097      2094      2091      2120      2117      2114      2111
      2140      2137      2134      2131      2160      2157      2154      2151
      2180      2177      2174      2171      2200      2197      2194      2191
      2220      2217      2214      2211      2240      2237      2234      2231
      2260      2257      2254      2251      2280      2277      2274      2271
      2300      2297      2294      2291      2320      2317      2314      2311
      2340      2337      2334      2331      2360      2357      2354      2351
      2380      2377      2374      2371      2400      2397      2394      2391
      2420      2417      2414      2411      2440      2437      2434      2431
      2460      2457      2454      2451      2480      2477      2474      2471
      2500      2497      2494      2491      2520      2517      2514      2511
      2540      2537      2534      2531      2560      2557      2554      2551
      2580      2577      2574      2571      2600      2597      2594      2591
      2620      2617      2614      2611      2640      2637      2634      2631
      2660      2657      2654      2651      2680      2677      2674      2671
      2700      2697      2694      2691      2720      2717      2714      2711
      2740      2737      2734      2731      2760      2757      2754      2751
      2780      2777      2774      2771      2800      2797      2794      2791
      2820      2817      2814      2811      2840      2837      2834      2831
      2860      2857      2854      2851      2880      2877      2874      2871
      2900      2897      2894      2891      2920      2917      2914      2911
      2940      2937      2934      2931      2960      2957      2954      2951
      2980      2977      2974      2971      3000      2997      2994      2991
      3020      3017      3014      3011      3040      3037      3034      3031
      3060      3057      3054      3051      3080      3077      3074      3071
      3100      3097      3094      3091      3120      3117      3114      3111
      3140      3137      3134      3131      3160      3157      3154      3151
      3180      3177      3174      3171      3200      3197      3194      3191
      3220      3217      3214      3211      3240      3237      3234      3231
      3260      3257      3254      3251      3280      3277      3274      3271
      3300      3297      3294      3291      3320      3317      3314      3311
      3340      3337      3334      3331      3360      3357      3354      3351
      3380      3377      3374      3371      3400      3397      3394      3391
      3420      3417      3414      3411      3440      3437      3434      3431
      3460      3457      3454      3451      3480      3477      3474      3471
      3500      3497      3494      3491      3520      3517      3514      3511
      3540      3537      3534      3531      3560      3557      3554      3551
      3580      3577      3574      3571      3600      3597      3594      3591
      3620      3617      3614      3611      3640      3637      3634      3631
      3660      3657      3654      3651      3680      3677      3674      3671
      3700      3697      3694      3691      3720      3717      3714      3711
      3740      3737      3734      3731      3760      3757      3754      3751
      3780      3777      3774      3771      3800      3797      3794      3791
      3820      3817      3814      3811      3840      3837      3834      3831
      3860      3857      3854      3851      3880      3877      3874      3871
      3900      3897      3894      3891      3920      3917      3914      3911
      3940      3937      3934      3931      3960      3957      3954      3951
      3980      3977      3974      3971      4000      3997      3994      3991
      4020      4017      4014      4011      4040      4037      4034      4031
      4060      4057      4054      4051      4080      4077      4074      4071
      4100      4097      4094      4091      4120      4117      4114      4111
      4140      4137      4134      4131      4160      4157      4154      4151
      4180      4177      4174      4171      4200      4197      4194      4191
      4220      4217      4214      4211      4240      4237      4234      4231
      4260      4257      4254      4251      4280      4277      4274      4271
      4300      4297      4294      4291      4320      4317      4314      4311
      4340      4337      4334      4331      4360      4357      4354      4351
      4380      4377      4374      4371      4400      4397      4394      4391
      4420      4417      4414      4411      4440      4437      4434      4431
      4460      4457      4454      4451      4480      4477      4474      4471
      4500      4497      4494      4491      4520      4517      4514      4511
      4540      4537      4534      4531      4560      4557      4554      4551
      4580      4577      4574      4571      4600      4597      4594      4591
      4620      4617      4614      4611      4640      4637      4634      4631
      4660      4657      4654      4651      4680      4677      4674      4671
      4700      4697      4694      4691      4720      4717      4714      4711
      4740      4737      4734      4731      4760      4757      4754      4751
      4780      4777      4774      4771      4800      4797      4794      4791
      4820      4817      4814      4811      4840      4837      4834      4831
      4860      4857      4854      4851      4880      4877      4874      4871
      4900      4897      4894      4891      4920      4917      4914      4911
      4940      4937      4934      4931      4960      4957      4954      4951
      4980      4977      4974      4971      5000      4997      4994      4991
      5020      5017      5014      5011      5040      5037      5034      5031
      5060      5057      5054      5051      5080      5077      5074      5071
      5100      5097      5094      5091      5120      5117      5114      5111
      5140      5137      5134      5131      5160      5157      5154      5151
      5180      5177      5174      5171      5200      5197      5194      5191
      5220      5217      5214      5211      5240      5237      5234      5231
      5260      5257      5254      5251      5280      5277      5274      5271
      5300      5297      5294      5291      5320      5317      5314      5311
      5340      5337      5334      5331      5360      5357      5354      5351
      5380      5377      5374      5371      5400      5397      5394      5391
      5420      5417      5414      5411      5440      5437      5434      5431
      5460      5457      5454      5451      5480      5477      5474      5471
      5500      5497      5494      5491      5520      5517      5514      5511
      5540      5537      5534      5531      5560      5557      5554      5551
      5580      5577      5574      5571      5600      5597      5594      5591
      5620      5617      5614      5611      5640      5637      5634      5631
      5660      5657      5654      5651      5680      5677      5674      5671
      5700      5697      5694      5691      5720      5717      5714      5711
      5740      5737      5734      5731      5760      5757      5754      5751
      5780      5777      5774      5771      5800      5797      5794      5791
      5820      5817      5814      5811      5840      5837      5834      5831
      5860      5857      5854      5851      5880      5877      5874      5871
      5900      5897      5894      5891      5920      5917      5914      5911
      5940      5937      5934      5931      5960      5957      5954      5951
      5980      5977      5974      5971      6000      5997      5994      5991
      6020      6017      6014      6011      6040      6037      6034      6031
      6060      6057      6054      6051      6080      6077      6074      6071
      6100      6097      6094      6091      6120      6117      6114      6111
      6140      6137      6134      6131      6160      6157      6154      6151
      6180      6177      6174      6171      6200      6197      6194      6191
      6220      6217      6214      6211      6240      6237      6234      6231
      6260      6257      6254      6251      6280      6277      6274      6271
      6300      6297      6294      6291      6320      6317      6314      6311
      6340      6337      6334      6331      6360      6357      6354      6351
      6380      6377      6374      6371      6400      6397      6394      6391
      6420      6417      6414      6411      6440      6437      6434      6431
      6460      6457      6454      6451      6480      6477      6474      6471
      6500      6497      6494      6491      6520      6517      6514      6511
      6540      6537      6534      6531      6560      6557      6554      6551
      6580      6577      6574      6571      6600      6597      6594      6591
      6620      6617      6614      6611      6640      6637      6634      6631
      6660      6657      6654      6651      6680      6677      6674      6671
      6700      6697      6694      6691      6720      6717      6714      6711
      6740      6737      6734      6731      6760      6757      6754      6751
      6780      6777      6774      6771      6800      6797      6794      6791
      6820      6817      6814      6811      6840      6837      6834      6831
      6860      6857      6854      6851      6880      6877      6874      6871
      6900      6897      6894      6891      6920      6917      6914      6911
      6940      6937      6934      6931      6960      6957      6954      6951
      6980      6977      6974      6971      7000      6997      6994      6991
      7020      7017      7014      7011      7040      7037      7034      7031
      7060      7057      7054      7051      7080      7077      7074      7071
      7100      7097      7094      7091      7120      7117      7114      7111
      7140      7137      7134      7131      7160      7157      7154      7151
      7180      7177      7174      7171      7200      7197      7194      7191
      7220      7217      7214      7211      7240      7237      7234      7231
      7260      7257      7254      7251      7280      7277      7274      7271
      7300      7297      7294      7291      7320      7317      7314      7311
      7340      7337      7334      7331      7360      7357      7354      7351
      7380      7377      7374      7371      7400      7397      7394      7391
      7420      7417      7414      7411      7440      7437      7434      7431
      7460      7457      7454      7451      7480      7477      7474      7471
      7500      7497      7494      7491      7520      7517      7514      7511
      7540      7537      7534      7531      7560      7557      7554      7551
      7580      7577      7574      7571      7600      7597      7594      7591
      7620      7617      7614      7611      7640      7637      7634      7631
      7660      7657      7654      7651      7680      7677      7674      7671
      7700      7697      7694      7691      7720      7717      7714      7711
      7740      7737      7734      7731      7760      7757      7754      7751
      7780      7777      7774      7771      7800      7797      7794      7791
      7820      7817      7814      7811      7840      7837      7834      7831
      7860      7857      7854      7851      7880      7877      7874      7871
      7900      7897      7894      7891      7920      7917      7914      7911
      7940      7937      7934      7931      7960      7957      7954      7951
      7980      7977      7974      7971      8000      7997      7994      7991
      8020      8017      8014      8011      8040      8037      8034      8031
      8060      8057      8054      8051      8080      8077      8074      8071
      8100      8097      8094      8091      8120      8117      8114      8111
      8140      8137      8134      8131      8160      8157      8154      8151
      8180      8177      8174      8171      8200      8197      8194      8191
      8220      8217      8214      8211      8240      8237      8234      8231
      8260      8257      8254      8251      8280      8277      8274      8271
      8300      8297      8294      8291      8320      8317      8314      8311
      8340      8337      8334      8331      8360      8357      8354      8351
      8380      8377      8374      8371      8400      8397      8394      8391
      8420      8417      8414      8411      8440      8437      8434      8431
      8460      8457      8454      8451      8480      8477      8474      8471
      8500      8497      8494      8491      8520      8517      8514      8511
      8540      8537      8534      8531      8560      8557      8554      8551
      8580      8577      8574      8571      8600      8597      8594      8591
      8620      8617      8614      8611      8640      8637      8634      8631
      8660      8657      8654      8651      8680      8677      8674      8671
      8700      8697      8694      8691      8720      8717      8714      8711
      8740      8737      8734      8731      8760      8757      8754      8751
      8780      8777      8774      8771      8800      8797      8794      8791
      8820      8817      8814      8811      8840      8837      8834      8831
      8860      8857      8854      8851      8880      8877      8874      8871
      8900      8897      8894      8891      8920      8917      8914      8911
      8940      8937      8934      8931      8960      8957      8954      8951
      8980      8977      8974      8971      9000      8997      8994      8991
      9020      9017      9014      9011      9040      9037      9034      9031
      9060      9057      9054      9051      9080      9077      9074      9071
      9100      9097      9094      9091      9120      9117      9114      9111
      9140      9137      9134      9131      9160      9157      9154      9151
      9180      9177      9174      9171      9200      9197      9194      9191
      9220      9217      9214      9211      9240      9237      9234      9231
      9260      9257      9254      9251      9280      9277      9274      9271
      9300      9297      9294      9291      9320      9317      9314      9311
      9340      9337      9334      9331      9360      9357      9354      9351
      9380      9377      9374      9371      9400      9397      9394      9391
      9420      9417      9414      9411      9440      9437      9434      9431
      9460      9457      9454      9451      9480      9477      9474      9471
      9500      9497      9494      9491      9520      9517      9514      9511
      9540      9537      9534      9531      9560      9557      9554      9551
      9580      9577      9574      9571      9600      9597      9594      9591
      9620      9617      9614      9611      9640      9637      9634      9631
      9660      9657      9654      9651      9680      9677      9674      9671
      9700      9697      9694      9691      9720      9717      9714      9711
      9740      9737      9734      9731      9760      9757      9754      9751
      9780      9777      9774      9771      9800      9797      9794      9791
      9820      9817      9814      9811      9840      9837      9834      9831
      9860      9857      9854      9851      9880      9877      9874      9871
      9900      9897      9894      9891      9920      9917      9914      9911
      9940      9937      9934      9931      9960      9957      9954      9951
      9980      9977      9974      9971     10000      9997      9994      9991
     10009     10004     10001     10006     10010     10004     10001     10006
     10011     10006     10001     10004     10012     10006     10001     10004
     10021     10016     10013     10018     10022     10016     10013     10018
     10023     10018     10013     10016     10024     10018     10013     10016
     10033     10028     10025     10030     10034     10028     10025     10030
     10035     10030     10025     10028     10036     10030     10025     10028
     10045     10040     10037     10042     10046     10040     10037     10042
     10047     10042     10037     10040     10048     10042     10037     10040
     10057     10052     10049     10054     10058     10052     10049     10054
     10059     10054     10049     10052     10060     10054     10049     10052
     10069     10064     10061     10066     10070     10064     10061     10066
     10071     10066     10061     10064     10072     10066     10061     10064
     10081     10076     10073     10078     10082     10076     10073     10078
     10083     10078     10073     10076     10084     10078     10073     10076
     10093     10088     10085     10090     10094     10088     10085     10090
     10095     10090     10085     10088     10096     10090     10085     10088
     10105     10100     10097     10102     10106     10100     10097     10102
     10107     10102     10097     10100     10108     10102     10097     10100
     10117     10112     10109     10114     10118     10112     10109     10114
     10119     10114     10109     10112     10120     10114     10109     10112
     10129     10124     10121     10126     10130     10124     10121     10126
     10131     10126     10121     10124     10132     10126     10121     10124
     10141     10136     10133     10138     10142     10136     10133     10138
     10143     10138     10133     10136     10144     10138     10133     10136
     10153     10148     10145     10150     10154     10148     10145     10150
     10155     10150     10145     10148     10156     10150     10145     10148
     10165     10160     10157     10162     10166     10160     10157     10162
     10167     10162     10157     10160     10168     10162     10157     10160
     10177     10172     10169     10174     10178     10172     10169     10174
     10179     10174     10169     10172     10180     10174     10169     10172
     10189     10184     10181     10186     10190     10184     10181     10186
     10191     10186     10181     10184     10192     10186     10181     10184
     10201     10196     10193     10198     10202     10196     10193     10198
     10203     10198     10193     10196     10204     10198     10193     10196
     10213     10208     10205     10210     10214     10208     10205     10210
     10215     10210     10205     10208     10216     10210     10205     10208
     10225     10220     10217     10222     10226     10220     10217     10222
     10227     10222     10217     10220     10228     10222     10217     10220
     10237     10232     10229     10234     10238     10232     10229     10234
     10239     10234     10229     10232     10240     10234     10229     10232
     10249     10244     10241     10246     10250     10244     10241     10246
     10251     10246     10241     10244     10252     10246     10241     10244
     10261     10256     10253     10258     10262     10256     10253     10258
     10263     10258     10253     10256     10264     10258     10253     10256
     10273     10268     10265     10270     10274     10268     10265     10270
     10275     10270     10265     10268     10276     10270     10265     10268
     10285     10280     10277     10282     10286     10280     10277     10282
     10287     10282     10277     10280     10288     10282     10277     10280
     10297     10292     10289     10294     10298     10292     10289     10294
     10299     10294     10289     10292     10300     10294     10289     10292
     10309     10304     10301     10306     10310     10304     10301     10306
     10311     10306     10301     10304     10312     10306     10301     10304
     10321     10316     10313     10318     10322     10316     10313     10318
     10323     10318     10313     10316     10324     10318     10313     10316
     10333     10328     10325     10330     10334     10328     10325     10330
     10335     10330     10325     10328     10336     10330     10325     10328
     10345     10340     10337     10342     10346     10340     10337     10342
     10347     10342     10337     10340     10348     10342     10337     10340
     10357     10352     10349     10354     10358     10352     10349     10354
     10359     10354     10349     10352     10360     10354     10349     10352
     10369     10364     10361     10366     10370     10364     10361     10366
     10371     10366     10361     10364     10372     10366     10361     10364
     10381     10376     10373     10378     10382     10376     10373     10378
     10383     10378     10373     10376     10384     10378     10373     10376
     10393     10388     10385     10390     10394     10388     10385     10390
     10395     10390     10385     10388     10396     10390     10385     10388
     10405     10400     10397     10402     10406     10400     10397     10402
     10407     10402     10397     10400     10408     10402     10397     10400
     10417     10412     10409     10414     10418     10412     10409     10414
     10419     10414     10409     10412     10420     10414     10409     10412
     10429     10424     10421     10426     10430     10424     10421     10426
     10431     10426     10421     10424     10432     10426     10421     10424
     10441     10436     10433     10438     10442     10436     10433     10438
     10443     10438     10433     10436     10444     10438     10433     10436
     10453     10448     10445     10450     10454     10448     10445     10450
     10455     10450     10445     10448     10456     10450     10445     10448
     10465     10460     10457     10462     10466     10460     10457     10462
     10467     10462     10457     10460     10468     10462     10457     10460
     10477     10472     10469     10474     10478     10472     10469     10474
     10479     10474     10469     10472     10480     10474     10469     10472
     10489     10484     10481     10486     10490     10484     10481     10486
     10491     10486     10481     10484     10492     10486     10481     10484
     10501     10496     10493     10498     10502     10496     10493     10498
     10503     10498     10493     10496     10504     10498     10493     10496
     10513     10508     10505     10510     10514     10508     10505     10510
     10515     10510     10505     10508     10516     10510     10505     10508
     10525     10520     10517     10522     10526     10520     10517     10522
     10527     10522     10517     10520     10528     10522     10517     10520
     10537     10532     10529     10534     10538     10532     10529     10534
     10539     10534     10529     10532     10540     10534     10529     10532
     10549     10544     10541     10546     10550     10544     10541     10546
     10551     10546     10541     10544     10552     10546     10541     10544
     10561     10556     10553     10558     10562     10556     10553     10558
     10563     10558     10553     10556     10564     10558     10553     10556
     10573     10568     10565     10570     10574     10568     10565     10570
     10575     10570     10565     10568     10576     10570     10565     10568
     10585     10580     10577     10582     10586     10580     10577     10582
     10587     10582     10577     10580     10588     10582     10577     10580
     10597     10592     10589     10594     10598     10592     10589     10594
     10599     10594     10589     10592     10600     10594     10589     10592
     10609     10604     10601     10606     10610     10604     10601     10606
     10611     10606     10601     10604     10612     10606     10601     10604
     10621     10616     10613     10618     10622     10616     10613     10618
     10623     10618     10613     10616     10624     10618     10613     10616
     10633     10628     10625     10630     10634     10628     10625     10630
     10635     10630     10625     10628     10636     10630     10625     10628
     10645     10640     10637     10642     10646     10640     10637     10642
     10647     10642     10637     10640     10648     10642     10637     10640
     10657     10652     10649     10654     10658     10652     10649     10654
     10659     10654     10649     10652     10660     10654     10649     10652
     10669     10664     10661     10666     10670     10664     10661     10666
     10671     10666     10661     10664     10672     10666     10661     10664
     10681     10676     10673     10678     10682     10676     10673     10678
     10683     10678     10673     10676     10684     10678     10673     10676
     10693     10688     10685     10690     10694     10688     10685     10690
     10695     10690     10685     10688     10696     10690     10685     10688
     10705     10700     10697     10702     10706     10700     10697     10702
     10707     10702     10697     10700     10708     10702     10697     10700
     10717     10712     10709     10714     10718     10712     10709     10714
     10719     10714     10709     10712     10720     10714     10709     10712
     10729     10724     10721     10726     10730     10724     10721     10726
     10731     10726     10721     10724     10732     10726     10721     10724
     10741     10736     10733     10738     10742     10736     10733     10738
     10743     10738     10733     10736     10744     10738     10733     10736
     10753     10748     10745     10750     10754     10748     10745     10750
     10755     10750     10745     10748     10756     10750     10745     10748
     10765     10760     10757     10762     10766     10760     10757     10762
     10767     10762     10757     10760     10768     10762     10757     10760
     10777     10772     10769     10774     10778     10772     10769     10774
     10779     10774     10769     10772     10780     10774     10769     10772
     10789     10784     10781     10786     10790     10784     10781     10786
     10791     10786     10781     10784     10792     10786     10781     10784
     10801     10796     10793     10798     10802     10796     10793     10798
     10803     10798     10793     10796     10804     10798     10793     10796
     10813     10808     10805     10810     10814     10808     10805     10810
     10815     10810     10805     10808     10816     10810     10805     10808
     10825     10820     10817     10822     10826     10820     10817     10822
     10827     10822     10817     10820     10828     10822     10817     10820
     10837     10832     10829     10834     10838     10832     10829     10834
     10839     10834     10829     10832     10840     10834     10829     10832
     10849     10844     10841     10846     10850     10844     10841     10846
     10851     10846     10841     10844     10852     10846     10841     10844
     10861     10856     10853     10858     10862     10856     10853     10858
     10863     10858     10853     10856     10864     10858     10853     10856
     10873     10868     10865     10870     10874     10868     10865     10870
     10875     10870     10865     10868     10876     10870     10865     10868
     10885     10880     10877     10882     10886     10880     10877     10882
     10887     10882     10877     10880     10888     10882     10877     10880
     10897     10892     10889     10894     10898     10892     10889     10894
     10899     10894     10889     10892     10900     10894     10889     10892
     10909     10904     10901     10906     10910     10904     10901     10906
     10911     10906     10901     10904     10912     10906     10901     10904
     10921     10916     10913     10918     10922     10916     10913     10918
     10923     10918     10913     10916     10924     10918     10913     10916
     10933     10928     10925     10930     10934     10928     10925     10930
     10935     10930     10925     10928     10936     10930     10925     10928
     10945     10940     10937     10942     10946     10940     10937     10942
     10947     10942     10937     10940     10948     10942     10937     10940
     10957     10952     10949     10954     10958     10952     10949     10954
     10959     10954     10949     10952     10960     10954     10949     10952
     10969     10964     10961     10966     10970     10964     10961     10966
     10971     10966     10961     10964     10972     10966     10961     10964
     10981     10976     10973     10978     10982     10976     10973     10978
     10983     10978     10973     10976     10984     10978     10973     10976
     10993     10988     10985     10990     10994     10988     10985     10990
     10995     10990     10985     10988     10996     10990     10985     10988
     11005     11000     10997     11002     11006     11000     10997     11002
     11007     11002     10997     11000     11008     11002     10997     11000
     11017     11012     11009     11014     11018     11012     11009     11014
     11019     11014     11009     11012     11020     11014     11009     11012
     11029     11024     11021     11026     11030     11024     11021     11026
     11031     11026     11021     11024     11032     11026     11021     11024
     11041     11036     11033     11038     11042     11036     11033     11038
     11043     11038     11033     11036     11044     11038     11033     11036
     11053     11048     11045     11050     11054     11048     11045     11050
     11055     11050     11045     11048     11056     11050     11045     11048
     11065     11060     11057     11062     11066     11060     11057     11062
     11067     11062     11057     11060     11068     11062     11057     11060
     11077     11072     11069     11074     11078     11072     11069     11074
     11079     11074     11069     11072     11080     11074     11069     11072
     11089     11084     11081     11086     11090     11084     11081     11086
     11091     11086     11081     11084     11092     11086     11081     11084
     11101     11096     11093     11098     11102     11096     11093     11098
     11103     11098     11093     11096     11104     11098     11093     11096
     11113     11108     11105     11110     11114     11108     11105     11110
     11115     11110     11105     11108     11116     11110     11105     11108
     11125     11120     11117     11122     11126     11120     11117     11122
     11127     11122     11117     11120     11128     11122     11117     11120
     11137     11132     11129     11134     11138     11132     11129     11134
     11139     11134     11129     11132     11140     11134     11129     11132
     11149     11144     11141     11146     11150     11144     11141     11146
     11151     11146     11141     11144     11152     11146     11141     11144
     11161     11156     11153     11158     11162     11156     11153     11158
     11163     11158     11153     11156     11164     11158     11153     11156
     11173     11168     11165     11170     11174     11168     11165     11170
     11175     11170     11165     11168     11176     11170     11165     11168
     11185     11180     11177     11182     11186     11180     11177     11182
     11187     11182     11177     11180     11188     11182     11177     11180
     11197     11192     11189     11194     11198     11192     11189     11194
     11199     11194     11189     11192     11200     11194     11189     11192
     11209     11204     11201     11206     11210     11204     11201     11206
     11211     11206     11201     11204     11212     11206     11201     11204
     11221     11216     11213     11218     11222     11216     11213     11218
     11223     11218     11213     11216     11224     11218     11213     11216
     11233     11228     11225     11230     11234     11228     11225     11230
     11235     11230     11225     11228     11236     11230     11225     11228
     11245     11240     11237     11242     11246     11240     11237     11242
     11247     11242     11237     11240     11248     11242     11237     11240
     11257     11252     11249     11254     11258     11252     11249     11254
     11259     11254     11249     11252     11260     11254     11249     11252
     11269     11264     11261     11266     11270     11264     11261     11266
     11271     11266     11261     11264     11272     11266     11261     11264
     11281     11276     11273     11278     11282     11276     11273     11278
     11283     11278     11273     11276     11284     11278     11273     11276
     11293     11288     11285     11290     11294     11288     11285     11290
     11295     11290     11285     11288     11296     11290     11285     11288
     11305     11300     11297     11302     11306     11300     11297     11302
     11307     11302     11297     11300     11308     11302     11297     11300
     11317     11312     11309     11314     11318     11312     11309     11314
     11319     11314     11309     11312     11320     11314     11309     11312
     11329     11324     11321     11326     11330     11324     11321     11326
     11331     11326     11321     11324     11332     11326     11321     11324
     11341     11336     11333     11338     11342     11336     11333     11338
     11343     11338     11333     11336     11344     11338     11333     11336
     11353     11348     11345     11350     11354     11348     11345     11350
     11355     11350     11345     11348     11356     11350     11345     11348
     11365     11360     11357     11362     11366     11360     11357     11362
     11367     11362     11357     11360     11368     11362     11357     11360
     11377     11372     11369     11374     11378     11372     11369     11374
     11379     11374     11369     11372     11380     11374     11369     11372
     11389     11384     11381     11386     11390     11384     11381     11386
     11391     11386     11381     11384     11392     11386     11381     11384
     11401     11396     11393     11398     11402     11396     11393     11398
     11403     11398     11393     11396     11404     11398     11393     11396
     11413     11408     11405     11410     11414     11408     11405     11410
     11415     11410     11405     11408     11416     11410     11405     11408
     11425     11420     11417     11422     11426     11420     11417     11422
     11427     11422     11417     11420     11428     11422     11417     11420
     11437     11432     11429     11434     11438     11432     11429     11434
     11439     11434     11429     11432     11440     11434     11429     11432
     11449     11444     11441     11446     11450     11444     11441     11446
     11451     11446     11441     11444     11452     11446     11441     11444
     11461     11456     11453     11458     11462     11456     11453     11458
     11463     11458     11453     11456     11464     11458     11453     11456
     11473     11468     11465     11470     11474     11468     11465     11470
     11475     11470     11465     11468     11476     11470     11465     11468
     11485     11480     11477     11482     11486     11480     11477     11482
     11487     11482     11477     11480     11488     11482     11477     11480
     11497     11492     11489     11494     11498     11492     11489     11494
     11499     11494     11489     11492     11500     11494     11489     11492
     11509     11504     11501     11506     11510     11504     11501     11506
     11511     11506     11501     11504     11512     11506     11501     11504
     11521     11516     11513     11518     11522     11516     11513     11518
     11523     11518     11513     11516     11524     11518     11513     11516
     11533     11528     11525     11530     11534     11528     11525     11530
     11535     11530     11525     11528     11536     11530     11525     11528
     11545     11540     11537     11542     11546     11540     11537     11542
     11547     11542     11537     11540     11548     11542     11537     11540
     11557     11552     11549     11554     11558     11552     11549     11554
     11559     11554     11549     11552     11560     11554     11549     11552
     11569     11564     11561     11566     11570     11564     11561     11566
     11571     11566     11561     11564     11572     11566     11561     11564
     11581     11576     11573     11578     11582     11576     11573     11578
     11583     11578     11573     11576     11584     11578     11573     11576
     11593     11588     11585     11590     11594     11588     11585     11590
     11595     11590     11585     11588     11596     11590     11585     11588
     11605     11600     11597     11602     11606     11600     11597     11602
     11607     11602     11597     11600     11608     11602     11597     11600
     11617     11612     11609     11614     11618     11612     11609     11614
     11619     11614     11609     11612     11620     11614     11609     11612
     11629     11624     11621     11626     11630     11624     11621     11626
     11631     11626     11621     11624     11632     11626     11621     11624
     11641     11636     11633     11638     11642     11636     11633     11638
     11643     11638     11633     11636     11644     11638     11633     11636
     11653     11648     11645     11650     11654     11648     11645     11650
     11655     11650     11645     11648     11656     11650     11645     11648
     11665     11660     11657     11662     11666     11660     11657     11662
     11667     11662     11657     11660     11668     11662     11657     11660
     11677     11672     11669     11674     11678     11672     11669     11674
     11679     11674     11669     11672     11680     11674     11669     11672
     11689     11684     11681     11686     11690     11684     11681     11686
     11691     11686     11681     11684     11692     11686     11681     11684
     11701     11696     11693     11698     11702     11696     11693     11698
     11703     11698     11693     11696     11704     11698     11693     11696
     11713     11708     11705     11710     11714     11708     11705     11710
     11715     11710     11705     11708     11716     11710     11705     11708
     11725     11720     11717     11722     11726     11720     11717     11722
     11727     11722     11717     11720     11728     11722     11717     11720
     11737     11732     11729     11734     11738     11732     11729     11734
     11739     11734     11729     11732     11740     11734     11729     11732
     11749     11744     11741     11746     11750     11744     11741     11746
     11751     11746     11741     11744     11752     11746     11741     11744
     11761     11756     11753     11758     11762     11756     11753     11758
     11763     11758     11753     11756     11764     11758     11753     11756
     11773     11768     11765     11770     11774     11768     11765     11770
     11775     11770     11765     11768     11776     11770     11765     11768
     11785     11780     11777     11782     11786     11780     11777     11782
     11787     11782     11777     11780     11788     11782     11777     11780
     11797     11792     11789     11794     11798     11792     11789     11794
     11799     11794     11789     11792     11800     11794     11789     11792
     11809     11804     11801     11806     11810     11804     11801     11806
     11811     11806     11801     11804     11812     11806     11801     11804
     11821     11816     11813     11818     11822     11816     11813     11818
     11823     11818     11813     11816     11824     11818     11813     11816
     11833     11828     11825     11830     11834     11828     11825     11830
     11835     11830     11825     11828     11836     11830     11825     11828
     11845     11840     11837     11842     11846     11840     11837     11842
     11847     11842     11837     11840     11848     11842     11837     11840
     11857     11852     11849     11854     11858     11852     11849     11854
     11859     11854     11849     11852     11860     11854     11849     11852
     11869     11864     11861     11866     11870     11864     11861     11866
     11871     11866     11861     11864     11872     11866     11861     11864
     11881     11876     11873     11878     11882     11876     11873     11878
     11883     11878     11873     11876     11884     11878     11873     11876
     11893     11888     11885     11890     11894     11888     11885     11890
     11895     11890     11885     11888     11896     11890     11885     11888
     11905     11900     11897     11902     11906     11900     11897     11902
     11907     11902     11897     11900     11908     11902     11897     11900
     11917     11912     11909     11914     11918     11912     11909     11914
     11919     11914     11909     11912     11920     11914     11909     11912
     11929     11924     11921     11926     11930     11924     11921     11926
     11931     11926     11921     11924     11932     11926     11921     11924
     11941     11936     11933     11938     11942     11936     11933     11938
     11943     11938     11933     11936     11944     11938     11933     11936
     11953     11948     11945     11950     11954     11948     11945     11950
     11955     11950     11945     11948     11956     11950     11945     11948
     11965     11960     11957     11962     11966     11960     11957     11962
     11967     11962     11957     11960     11968     11962     11957     11960
     11977     11972     11969     11974     11978     11972     11969     11974
     11979     11974     11969     11972     11980     11974     11969     11972
     11989     11984     11981     11986     11990     11984     11981     11986
     11991     11986     11981     11984     11992     11986     11981     11984
     12001     11996     11993     11998     12002     11996     11993     11998
     12003     11998     11993     11996     12004     11998     11993     11996
     12013     12008     12005     12010     12014     12008     12005     12010
     12015     12010     12005     12008     12016     12010     12005     12008
     12025     12020     12017     12022     12026     12020     12017     12022
     12027     12022     12017     12020     12028     12022     12017     12020
     12037     12032     12029     12034     12038     12032     12029     12034
     12039     12034     12029     12032     12040     12034     12029     12032
     12049     12044     12041     12046     12050     12044     12041     12046
     12051     12046     12041     12044     12052     12046     12041     12044
     12061     12056     12053     12058     12062     12056     12053     12058
     12063     12058     12053     12056     12064     12058     12053     12056
     12073     12068     12065     12070     12074     12068     12065     12070
     12075     12070     12065     12068     12076     12070     12065     12068
     12085     12080     12077     12082     12086     12080     12077     12082
     12087     12082     12077     12080     12088     12082     12077     12080
     12097     12092     12089     12094     12098     12092     12089     12094
     12099     12094     12089     12092     12100     12094     12089     12092
     12109     12104     12101     12106     12110     12104     12101     12106
     12111     12106     12101     12104     12112     12106     12101     12104
     12121     12116     12113     12118     12122     12116     12113     12118
     12123     12118     12113     12116     12124     12118     12113     12116
     12133     12128     12125     12130     12134     12128     12125     12130
     12135     12130     12125     12128     12136     12130     12125     12128
     12145     12140     12137     12142     12146     12140     12137     12142
     12147     12142     12137     12140     12148     12142     12137     12140
     12157     12152     12149     12154     12158     12152     12149     12154
     12159     12154     12149     12152     12160     12154     12149     12152
     12169     12164     12161     12166     12170     12164     12161     12166
     12171     12166     12161     12164     12172     12166     12161     12164
     12181     12176     12173     12178     12182     12176     12173     12178
     12183     12178     12173     12176     12184     12178     12173     12176
     12193     12188     12185     12190     12194     12188     12185     12190
     12195     12190     12185     12188     12196     12190     12185     12188
     12205     12200     12197     12202     12206     12200     12197     12202
     12207     12202     12197     12200     12208     12202     12197     12200
     12217     12212     12209     12214     12218     12212     12209     12214
     12219     12214     12209     12212     12220     12214     12209     12212
     12229     12224     12221     12226     12230     12224     12221     12226
     12231     12226     12221     12224     12232     12226     12221     12224
     12241     12236     12233     12238     12242     12236     12233     12238
     12243     12238     12233     12236     12244     12238     12233     12236
     12253     12248     12245     12250     12254     12248     12245     12250
     12255     12250     12245     12248     12256     12250     12245     12248
     12265     12260     12257     12262     12266     12260     12257     12262
     12267     12262     12257     12260     12268     12262     12257     12260
     12277     12272     12269     12274     12278     12272     12269     12274
     12279     12274     12269     12272     12280     12274     12269     12272
     12289     12284     12281     12286     12290     12284     12281     12286
     12291     12286     12281     12284     12292     12286     12281     12284
     12301     12296     12293     12298     12302     12296     12293     12298
     12303     12298     12293     12296     12304     12298     12293     12296
     12313     12308     12305     12310     12314     12308     12305     12310
     12315     12310     12305     12308     12316     12310     12305     12308
     12325     12320     12317     12322     12326     12320     12317     12322
     12327     12322     12317     12320     12328     12322     12317     12320
     12337     12332     12329     12334     12338     12332     12329     12334
     12339     12334     12329     12332     12340     12334     12329     12332
     12349     12344     12341     12346     12350     12344     12341     12346
     12351     12346     12341     12344     12352     12346     12341     12344
     12361     12356     12353     12358     12362     12356     12353     12358
     12363     12358     12353     12356     12364     12358     12353     12356
     12373     12368     12365     12370     12374     12368     12365     12370
     12375     12370     12365     12368     12376     12370     12365     12368
     12385     12380     12377     12382     12386     12380     12377     12382
     12387     12382     12377     12380     12388     12382     12377     12380
     12397     12392     12389     12394     12398     12392     12389     12394
     12399     12394     12389     12392     12400     12394     12389     12392
     12409     12404     12401     12406     12410     12404     12401     12406
     12411     12406     12401     12404     12412     12406     12401     12404
     12421     12416     12413     12418     12422     12416     12413     12418
     12423     12418     12413     12416     12424     12418     12413     12416
     12433     12428     12425     12430     12434     12428     12425     12430
     12435     12430     12425     12428     12436     12430     12425     12428
     12445     12440     12437     12442     12446     12440     12437     12442
     12447     12442     12437     12440     12448     12442     12437     12440
     12457     12452     12449     12454     12458     12452     12449     12454
     12459     12454     12449     12452     12460     12454     12449     12452
     12469     12464     12461     12466     12470     12464     12461     12466
     12471     12466     12461     12464     12472     12466     12461     12464
     12481     12476     12473     12478     12482     12476     12473     12478
     12483     12478     12473     12476     12484     12478     12473     12476
     12493     12488     12485     12490     12494     12488     12485     12490
     12495     12490     12485     12488     12496     12490     12485     12488
     12505     12500     12497     12502     12506     12500     12497     12502
     12507     12502     12497     12500     12508     12502     12497     12500
     12517     12512     12509     12514     12518     12512     12509     12514
     12519     12514     12509     12512     12520     12514     12509     12512
     12529     12524     12521     12526     12530     12524     12521     12526
     12531     12526     12521     12524     12532     12526     12521     12524
     12541     12536     12533     12538     12542     12536     12533     12538
     12543     12538     12533     12536     12544     12538     12533     12536
     12553     12548     12545     12550     12554     12548     12545     12550
     12555     12550     12545     12548     12556     12550     12545     12548
     12565     12560     12557     12562     12566     12560     12557     12562
     12567     12562     12557     12560     12568     12562     12557     12560
     12577     12572     12569     12574     12578     12572     12569     12574
     12579     12574     12569     12572     12580     12574     12569     12572
     12589     12584     12581     12586     12590     12584     12581     12586
     12591     12586     12581     12584     12592     12586     12581     12584
     12601     12596     12593     12598     12602     12596     12593     12598
     12603     12598     12593     12596     12604     12598     12593     12596
     12613     12608     12605     12610     12614     12608     12605     12610
     12615     12610     12605     12608     12616     12610     12605     12608
     12625     12620     12617     12622     12626     12620     12617     12622
     12627     12622     12617     12620     12628     12622     12617     12620
     12637     12632     12629     12634     12638     12632     12629     12634
     12639     12634     12629     12632     12640     12634     12629     12632
     12649     12644     12641     12646     12650     12644     12641     12646
     12651     12646     12641     12644     12652     12646     12641     12644
     12661     12656     12653     12658     12662     12656     12653     12658
     12663     12658     12653     12656     12664     12658     12653     12656
     12673     12668     12665     12670     12674     12668     12665     12670
     12675     12670     12665     12668     12676     12670     12665     12668
     12685     12680     12677     12682     12686     12680     12677     12682
     12687     12682     12677     12680     12688     12682     12677     12680
     12697     12692     12689     12694     12698     12692     12689     12694
     12699     12694     12689     12692     12700     12694     12689     12692
     12709     12704     12701     12706     12710     12704     12701     12706
     12711     12706     12701     12704     12712     12706     12701     12704
     12721     12716     12713     12718     12722     12716     12713     12718
     12723     12718     12713     12716     12724     12718     12713     12716
     12733     12728     12725     12730     12734     12728     12725     12730
     12735     12730     12725     12728     12736     12730     12725     12728
     12745     12740     12737     12742     12746     12740     12737     12742
     12747     12742     12737     12740     12748     12742     12737     12740
     12757     12752     12749     12754     12758     12752     12749     12754
     12759     12754     12749     12752     12760     12754     12749     12752
     12769     12764     12761     12766     12770     12764     12761     12766
     12771     12766     12761     12764     12772     12766     12761     12764
     12781     12776     12773     12778     12782     12776     12773     12778
     12783     12778     12773     12776     12784     12778     12773     12776
     12793     12788     12785     12790     12794     12788     12785     12790
     12795     12790     12785     12788     12796     12790     12785     12788
     12805     12800     12797     12802     12806     12800     12797     12802
     12807     12802     12797     12800     12808     12802     12797     12800
     12817     12812     12809     12814     12818     12812     12809     12814
     12819     12814     12809     12812     12820     12814     12809     12812
     12829     12824     12821     12826     12830     12824     12821     12826
     12831     12826     12821     12824     12832     12826     12821     12824
     12841     12836     12833     12838     12842     12836     12833     12838
     12843     12838     12833     12836     12844     12838     12833     12836
     12853     12848     12845     12850     12854     12848     12845     12850
     12855     12850     12845     12848     12856     12850     12845     12848
     12865     12860     12857     12862     12866     12860     12857     12862
     12867     12862     12857     12860     12868     12862     12857     12860
     12877     12872     12869     12874     12878     12872     12869     12874
     12879     12874     12869     12872     12880     12874     12869     12872
     12889     12884     12881     12886     12890     12884     12881     12886
     12891     12886     12881     12884     12892     12886     12881     12884
     12901     12896     12893     12898     12902     12896     12893     12898
     12903     12898     12893     12896     12904     12898     12893     12896
     12913     12908     12905     12910     12914     12908     12905     12910
     12915     12910     12905     12908     12916     12910     12905     12908
     12925     12920     12917     12922     12926     12920     12917     12922
     12927     12922     12917     12920     12928     12922     12917     12920
     12937     12932     12929     12934     12938     12932     12929     12934
     12939     12934     12929     12932     12940     12934     12929     12932
     12949     12944     12941     12946     12950     12944     12941     12946
     12951     12946     12941     12944     12952     12946     12941     12944
     12961     12956     12953     12958     12962     12956     12953     12958
     12963     12958     12953     12956     12964     12958     12953     12956
     12973     12968     12965     12970     12974     12968     12965     12970
     12975     12970     12965     12968     12976     12970     12965     12968
     12985     12980     12977     12982     12986     12980     12977     12982
     12987     12982     12977     12980     12988     12982     12977     12980
     12997     12992     12989     12994     12998     12992     12989     12994
     12999     12994     12989     12992     13000     12994     12989     12992
     13009     13004     13001     13006     13010     13004     13001     13006
     13011     13006     13001     13004     13012     13006     13001     13004
     13021     13016     13013     13018     13022     13016     13013     13018
     13023     13018     13013     13016     13024     13018     13013     13016
     13033     13028     13025     13030     13034     13028     13025     13030
     13035     13030     13025     13028     13036     13030     13025     13028
     13045     13040     13037     13042     13046     13040     13037     13042
     13047     13042     13037     13040     13048     13042     13037     13040
     13057     13052     13049     13054     13058     13052     13049     13054
     13059     13054     13049     13052     13060     13054     13049     13052
     13069     13064     13061     13066     13070     13064     13061     13066
     13071     13066     13061     13064     13072     13066     13061     13064
     13081     13076     13073     13078     13082     13076     13073     13078
     13083     13078     13073     13076     13084     13078     13073     13076
     13093     13088     13085     13090     13094     13088     13085     13090
     13095     13090     13085     13088     13096     13090     13085     13088
     13105     13100     13097     13102     13106     13100     13097     13102
     13107     13102     13097     13100     13108     13102     13097     13100
     13117     13112     13109     13114     13118     13112     13109     13114
     13119     13114     13109     13112     13120     13114     13109     13112
     13129     13124     13121     13126     13130     13124     13121     13126
     13131     13126     13121     13124     13132     13126     13121     13124
     13141     13136     13133     13138     13142     13136     13133     13138
     13143     13138     13133     13136     13144     13138     13133     13136
     13153     13148     13145     13150     13154     13148     13145     13150
     13155     13150     13145     13148     13156     13150     13145     13148
     13165     13160     13157     13162     13166     13160     13157     13162
     13167     13162     13157     13160     13168     13162     13157     13160
     13177     13172     13169     13174     13178     13172     13169     13174
     13179     13174     13169     13172     13180     13174     13169     13172
     13189     13184     13181     13186     13190     13184     13181     13186
     13191     13186     13181     13184     13192     13186     13181     13184
     13201     13196     13193     13198     13202     13196     13193     13198
     13203     13198     13193     13196     13204     13198     13193     13196
     13213     13208     13205     13210     13214     13208     13205     13210
     13215     13210     13205     13208     13216     13210     13205     13208
     13225     13220     13217     13222     13226     13220     13217     13222
     13227     13222     13217     13220     13228     13222     13217     13220
     13237     13232     13229     13234     13238     13232     13229     13234
     13239     13234     13229     13232     13240     13234     13229     13232
     13249     13244     13241     13246     13250     13244     13241     13246
     13251     13246     13241     13244     13252     13246     13241     13244
     13261     13256     13253     13258     13262     13256     13253     13258
     13263     13258     13253     13256     13264     13258     13253     13256
     13273     13268     13265     13270     13274     13268     13265     13270
     13275     13270     13265     13268     13276     13270     13265     13268
     13285     13280     13277     13282     13286     13280     13277     13282
     13287     13282     13277     13280     13288     13282     13277     13280
     13297     13292     13289     13294     13298     13292     13289     13294
     13299     13294     13289     13292     13300     13294     13289     13292
     13309     13304     13301     13306     13310     13304     13301     13306
     13311     13306     13301     13304     13312     13306     13301     13304
     13321     13316     13313     13318     13322     13316     13313     13318
     13323     13318     13313     13316     13324     13318     13313     13316
     13333     13328     13325     13330     13334     13328     13325     13330
     13335     13330     13325     13328     13336     13330     13325     13328
     13345     13340     13337     13342     13346     13340     13337     13342
     13347     13342     13337     13340     13348     13342     13337     13340
     13357     13352     13349     13354     13358     13352     13349     13354
     13359     13354     13349     13352     13360     13354     13349     13352
     13369     13364     13361     13366     13370     13364     13361     13366
     13371     13366     13361     13364     13372     13366     13361     13364
     13381     13376     13373     13378     13382     13376     13373     13378
     13383     13378     13373     13376     13384     13378     13373     13376
     13393     13388     13385     13390     13394     13388     13385     13390
     13395     13390     13385     13388     13396     13390     13385     13388
     13405     13400     13397     13402     13406     13400     13397     13402
     13407     13402     13397     13400     13408     13402     13397     13400
     13417     13412     13409     13414     13418     13412     13409     13414
     13419     13414     13409     13412     13420     13414     13409     13412
     13429     13424     13421     13426     13430     13424     13421     13426
     13431     13426     13421     13424     13432     13426     13421     13424
     13441     13436     13433     13438     13442     13436     13433     13438
     13443     13438     13433     13436     13444     13438     13433     13436
     13453     13448     13445     13450     13454     13448     13445     13450
     13455     13450     13445     13448     13456     13450     13445     13448
     13465     13460     13457     13462     13466     13460     13457     13462
     13467     13462     13457     13460     13468     13462     13457     13460
     13477     13472     13469     13474     13478     13472     13469     13474
     13479     13474     13469     13472     13480     13474     13469     13472
     13489     13484     13481     13486     13490     13484     13481     13486
     13491     13486     13481     13484     13492     13486     13481     13484
     13501     13496     13493     13498     13502     13496     13493     13498
     13503     13498     13493     13496     13504     13498     13493     13496
     13513     13508     13505     13510     13514     13508     13505     13510
     13515     13510     13505     13508     13516     13510     13505     13508
     13525     13520     13517     13522     13526     13520     13517     13522
     13527     13522     13517     13520     13528     13522     13517     13520
     13537     13532     13529     13534     13538     13532     13529     13534
     13539     13534     13529     13532     13540     13534     13529     13532
     13549     13544     13541     13546     13550     13544     13541     13546
     13551     13546     13541     13544     13552     13546     13541     13544
     13561     13556     13553     13558     13562     13556     13553     13558
     13563     13558     13553     13556     13564     13558     13553     13556
     13573     13568     13565     13570     13574     13568     13565     13570
     13575     13570     13565     13568     13576     13570     13565     13568
     13585     13580     13577     13582     13586     13580     13577     13582
     13587     13582     13577     13580     13588     13582     13577     13580
     13597     13592     13589     13594     13598     13592     13589     13594
     13599     13594     13589     13592     13600     13594     13589     13592
     13609     13604     13601     13606     13610     13604     13601     13606
     13611     13606     13601     13604     13612     13606     13601     13604
     13621     13616     13613     13618     13622     13616     13613     13618
     13623     13618     13613     13616     13624     13618     13613     13616
     13633     13628     13625     13630     13634     13628     13625     13630
     13635     13630     13625     13628     13636     13630     13625     13628
     13645     13640     13637     13642     13646     13640     13637     13642
     13647     13642     13637     13640     13648     13642     13637     13640
     13657     13652     13649     13654     13658     13652     13649     13654
     13659     13654     13649     13652     13660     13654     13649     13652
     13669     13664     13661     13666     13670     13664     13661     13666
     13671     13666     13661     13664     13672     13666     13661     13664
     13681     13676     13673     13678     13682     13676     13673     13678
     13683     13678     13673     13676     13684     13678     13673     13676
     13693     13688     13685     13690     13694     13688     13685     13690
     13695     13690     13685     13688     13696     13690     13685     13688
     13705     13700     13697     13702     13706     13700     13697     13702
     13707     13702     13697     13700     13708     13702     13697     13700
     13717     13712     13709     13714     13718     13712     13709     13714
     13719     13714     13709     13712     13720     13714     13709     13712
     13729     13724     13721     13726     13730     13724     13721     13726
     13731     13726     13721     13724     13732     13726     13721     13724
     13741     13736     13733     13738     13742     13736     13733     13738
     13743     13738     13733     13736     13744     13738     13733     13736
     13753     13748     13745     13750     13754     13748     13745     13750
     13755     13750     13745     13748     13756     13750     13745     13748
     13765     13760     13757     13762     13766     13760     13757     13762
     13767     13762     13757     13760     13768     13762     13757     13760
     13777     13772     13769     13774     13778     13772     13769     13774
     13779     13774     13769     13772     13780     13774     13769     13772
     13789     13784     13781     13786     13790     13784     13781     13786
     13791     13786     13781     13784     13792     13786     13781     13784
     13801     13796     13793     13798     13802     13796     13793     13798
     13803     13798     13793     13796     13804     13798     13793     13796
     13813     13808     13805     13810     13814     13808     13805     13810
     13815     13810     13805     13808     13816     13810     13805     13808
     13825     13820     13817     13822     13826     13820     13817     13822
     13827     13822     13817     13820     13828     13822     13817     13820
     13837     13832     13829     13834     13838     13832     13829     13834
     13839     13834     13829     13832     13840     13834     13829     13832
     13849     13844     13841     13846     13850     13844     13841     13846
     13851     13846     13841     13844     13852     13846     13841     13844
     13861     13856     13853     13858     13862     13856     13853     13858
     13863     13858     13853     13856     13864     13858     13853     13856
     13873     13868     13865     13870     13874     13868     13865     13870
     13875     13870     13865     13868     13876     13870     13865     13868
     13885     13880     13877     13882     13886     13880     13877     13882
     13887     13882     13877     13880     13888     13882     13877     13880
     13897     13892     13889     13894     13898     13892     13889     13894
     13899     13894     13889     13892     13900     13894     13889     13892
     13909     13904     13901     13906     13910     13904     13901     13906
     13911     13906     13901     13904     13912     13906     13901     13904
     13921     13916     13913     13918     13922     13916     13913     13918
     13923     13918     13913     13916     13924     13918     13913     13916
     13933     13928     13925     13930     13934     13928     13925     13930
     13935     13930     13925     13928     13936     13930     13925     13928
     13945     13940     13937     13942     13946     13940     13937     13942
     13947     13942     13937     13940     13948     13942     13937     13940
     13957     13952     13949     13954     13958     13952     13949     13954
     13959     13954     13949     13952     13960     13954     13949     13952
     13969     13964     13961     13966     13970     13964     13961     13966
     13971     13966     13961     13964     13972     13966     13961     13964
     13981     13976     13973     13978     13982     13976     13973     13978
     13983     13978     13973     13976     13984     13978     13973     13976
     13993     13988     13985     13990     13994     13988     13985     13990
     13995     13990     13985     13988     13996     13990     13985     13988
     14005     14000     13997     14002     14006     14000     13997     14002
     14007     14002     13997     14000     14008     14002     13997     14000
     14017     14012     14009     14014     14018     14012     14009     14014
     14019     14014     14009     14012     14020     14014     14009     14012
     14029     14024     14021     14026     14030     14024     14021     14026
     14031     14026     14021     14024     14032     14026     14021     14024
     14041     14036     14033     14038     14042     14036     14033     14038
     14043     14038     14033     14036     14044     14038     14033     14036
     14053     14048     14045     14050     14054     14048     14045     14050
     14055     14050     14045     14048     14056     14050     14045     14048
     14065     14060     14057     14062     14066     14060     14057     14062
     14067     14062     14057     14060     14068     14062     14057     14060
     14077     14072     14069     14074     14078     14072     14069     14074
     14079     14074     14069     14072     14080     14074     14069     14072
     14089     14084     14081     14086     14090     14084     14081     14086
     14091     14086     14081     14084     14092     14086     14081     14084
     14101     14096     14093     14098     14102     14096     14093     14098
     14103     14098     14093     14096     14104     14098     14093     14096
     14113     14108     14105     14110     14114     14108     14105     14110
     14115     14110     14105     14108     14116     14110     14105     14108
     14125     14120     14117     14122     14126     14120     14117     14122
     14127     14122     14117     14120     14128     14122     14117     14120
     14137     14132     14129     14134     14138     14132     14129     14134
     14139     14134     14129     14132     14140     14134     14129     14132
     14149     14144     14141     14146     14150     14144     14141     14146
     14151     14146     14141     14144     14152     14146     14141     14144
     14161     14156     14153     14158     14162     14156     14153     14158
     14163     14158     14153     14156     14164     14158     14153     14156
     14173     14168     14165     14170     14174     14168     14165     14170
     14175     14170     14165     14168     14176     14170     14165     14168
     14185     14180     14177     14182     14186     14180     14177     14182
     14187     14182     14177     14180     14188     14182     14177     14180
     14197     14192     14189     14194     14198     14192     14189     14194
     14199     14194     14189     14192     14200     14194     14189     14192
     14209     14204     14201     14206     14210     14204     14201     14206
     14211     14206     14201     14204     14212     14206     14201     14204
     14221     14216     14213     14218     14222     14216     14213     14218
     14223     14218     14213     14216     14224     14218     14213     14216
     14233     14228     14225     14230     14234     14228     14225     14230
     14235     14230     14225     14228     14236     14230     14225     14228
     14245     14240     14237     14242     14246     14240     14237     14242
     14247     14242     14237     14240     14248     14242     14237     14240
     14257     14252     14249     14254     14258     14252     14249     14254
     14259     14254     14249     14252     14260     14254     14249     14252
     14269     14264     14261     14266     14270     14264     14261     14266
     14271     14266     14261     14264     14272     14266     14261     14264
     14281     14276     14273     14278     14282     14276     14273     14278
     14283     14278     14273     14276     14284     14278     14273     14276
     14293     14288     14285     14290     14294     14288     14285     14290
     14295     14290     14285     14288     14296     14290     14285     14288
     14305     14300     14297     14302     14306     14300     14297     14302
     14307     14302     14297     14300     14308     14302     14297     14300
     14317     14312     14309     14314     14318     14312     14309     14314
     14319     14314     14309     14312     14320     14314     14309     14312
     14329     14324     14321     14326     14330     14324     14321     14326
     14331     14326     14321     14324     14332     14326     14321     14324
     14341     14336     14333     14338     14342     14336     14333     14338
     14343     14338     14333     14336     14344     14338     14333     14336
     14353     14348     14345     14350     14354     14348     14345     14350
     14355     14350     14345     14348     14356     14350     14345     14348
     14365     14360     14357     14362     14366     14360     14357     14362
     14367     14362     14357     14360     14368     14362     14357     14360
     14377     14372     14369     14374     14378     14372     14369     14374
     14379     14374     14369     14372     14380     14374     14369     14372
     14389     14384     14381     14386     14390     14384     14381     14386
     14391     14386     14381     14384     14392     14386     14381     14384
     14401     14396     14393     14398     14402     14396     14393     14398
     14403     14398     14393     14396     14404     14398     14393     14396
     14413     14408     14405     14410     14414     14408     14405     14410
     14415     14410     14405     14408     14416     14410     14405     14408
     14425     14420     14417     14422     14426     14420     14417     14422
     14427     14422     14417     14420     14428     14422     14417     14420
     14437     14432     14429     14434     14438     14432     14429     14434
     14439     14434     14429     14432     14440     14434     14429     14432
     14449     14444     14441     14446     14450     14444     14441     14446
     14451     14446     14441     14444     14452     14446     14441     14444
     14461     14456     14453     14458     14462     14456     14453     14458
     14463     14458     14453     14456     14464     14458     14453     14456
     14473     14468     14465     14470     14474     14468     14465     14470
     14475     14470     14465     14468     14476     14470     14465     14468
     14485     14480     14477     14482     14486     14480     14477     14482
     14487     14482     14477     14480     14488     14482     14477     14480
     14497     14492     14489     14494     14498     14492     14489     14494
     14499     14494     14489     14492     14500     14494     14489     14492
     14509     14504     14501     14506     14510     14504     14501     14506
     14511     14506     14501     14504     14512     14506     14501     14504
     14521     14516     14513     14518     14522     14516     14513     14518
     14523     14518     14513     14516     14524     14518     14513     14516
     14533     14528     14525     14530     14534     14528     14525     14530
     14535     14530     14525     14528     14536     14530     14525     14528
     14545     14540     14537     14542     14546     14540     14537     14542
     14547     14542     14537     14540     14548     14542     14537     14540
     14557     14552     14549     14554     14558     14552     14549     14554
     14559     14554     14549     14552     14560     14554     14549     14552
     14569     14564     14561     14566     14570     14564     14561     14566
     14571     14566     14561     14564     14572     14566     14561     14564
     14581     14576     14573     14578     14582     14576     14573     14578
     14583     14578     14573     14576     14584     14578     14573     14576
     14593     14588     14585     14590     14594     14588     14585     14590
     14595     14590     14585     14588     14596     14590     14585     14588
     14605     14600     14597     14602     14606     14600     14597     14602
     14607     14602     14597     14600     14608     14602     14597     14600
     14617     14612     14609     14614     14618     14612     14609     14614
     14619     14614     14609     14612     14620     14614     14609     14612
     14629     14624     14621     14626     14630     14624     14621     14626
     14631     14626     14621     14624     14632     14626     14621     14624
     14641     14636     14633     14638     14642     14636     14633     14638
     14643     14638     14633     14636     14644     14638     14633     14636
     14653     14648     14645     14650     14654     14648     14645     14650
     14655     14650     14645     14648     14656     14650     14645     14648
     14665     14660     14657     14662     14666     14660     14657     14662
     14667     14662     14657     14660     14668     14662     14657     14660
     14677     14672     14669     14674     14678     14672     14669     14674
     14679     14674     14669     14672     14680     14674     14669     14672
     14689     14684     14681     14686     14690     14684     14681     14686
     14691     14686     14681     14684     14692     14686     14681     14684
     14701     14696     14693     14698     14702     14696     14693     14698
     14703     14698     14693     14696     14704     14698     14693     14696
     14713     14708     14705     14710     14714     14708     14705     14710
     14715     14710     14705     14708     14716     14710     14705     14708
     14725     14720     14717     14722     14726     14720     14717     14722
     14727     14722     14717     14720     14728     14722     14717     14720
     14737     14732     14729     14734     14738     14732     14729     14734
     14739     14734     14729     14732     14740     14734     14729     14732
     14749     14744     14741     14746     14750     14744     14741     14746
     14751     14746     14741     14744     14752     14746     14741     14744
     14761     14756     14753     14758     14762     14756     14753     14758
     14763     14758     14753     14756     14764     14758     14753     14756
     14773     14768     14765     14770     14774     14768     14765     14770
     14775     14770     14765     14768     14776     14770     14765     14768
     14785     14780     14777     14782     14786     14780     14777     14782
     14787     14782     14777     14780     14788     14782     14777     14780
     14797     14792     14789     14794     14798     14792     14789     14794
     14799     14794     14789     14792     14800     14794     14789     14792
     14809     14804     14801     14806     14810     14804     14801     14806
     14811     14806     14801     14804     14812     14806     14801     14804
     14821     14816     14813     14818     14822     14816     14813     14818
     14823     14818     14813     14816     14824     14818     14813     14816
     14833     14828     14825     14830     14834     14828     14825     14830
     14835     14830     14825     14828     14836     14830     14825     14828
     14845     14840     14837     14842     14846     14840     14837     14842
     14847     14842     14837     14840     14848     14842     14837     14840
     14857     14852     14849     14854     14858     14852     14849     14854
     14859     14854     14849     14852     14860     14854     14849     14852
     14869     14864     14861     14866     14870     14864     14861     14866
     14871     14866     14861     14864     14872     14866     14861     14864
     14881     14876     14873     14878     14882     14876     14873     14878
     14883     14878     14873     14876     14884     14878     14873     14876
     14893     14888     14885     14890     14894     14888     14885     14890
     14895     14890     14885     14888     14896     14890     14885     14888
     14905     14900     14897     14902     14906     14900     14897     14902
     14907     14902     14897     14900     14908     14902     14897     14900
     14917     14912     14909     14914     14918     14912     14909     14914
     14919     14914     14909     14912     14920     14914     14909     14912
     14929     14924     14921     14926     14930     14924     14921     14926
     14931     14926     14921     14924     14932     14926     14921     14924
     14941     14936     14933     14938     14942     14936     14933     14938
     14943     14938     14933     14936     14944     14938     14933     14936
     14953     14948     14945     14950     14954     14948     14945     14950
     14955     14950     14945     14948     14956     14950     14945     14948
     14965     14960     14957     14962     14966     14960     14957     14962
     14967     14962     14957     14960     14968     14962     14957     14960
     14977     14972     14969     14974     14978     14972     14969     14974
     14979     14974     14969     14972     14980     14974     14969     14972
     14989     14984     14981     14986     14990     14984     14981     14986
     14991     14986     14981     14984     14992     14986     14981     14984
     15001     14996     14993     14998     15002     14996     14993     14998
     15003     14998     14993     14996     15004     14998     14993     14996
     15013     15008     15005     15010     15014     15008     15005     15010
     15015     15010     15005     15008     15016     15010     15005     15008
     15025     15020     15017     15022     15026     15020     15017     15022
     15027     15022     15017     15020     15028     15022     15017     15020
     15037     15032     15029     15034     15038     15032     15029     15034
     15039     15034     15029     15032     15040     15034     15029     15032
     15049     15044     15041     15046     15050     15044     15041     15046
     15051     15046     15041     15044     15052     15046     15041     15044
     15061     15056     15053     15058     15062     15056     15053     15058
     15063     15058     15053     15056     15064     15058     15053     15056
     15073     15068     15065     15070     15074     15068     15065     15070
     15075     15070     15065     15068     15076     15070     15065     15068
     15085     15080     15077     15082     15086     15080     15077     15082
     15087     15082     15077     15080     15088     15082     15077     15080
     15097     15092     15089     15094     15098     15092     15089     15094
     15099     15094     15089     15092     15100     15094     15089     15092
     15109     15104     15101     15106     15110     15104     15101     15106
     15111     15106     15101     15104     15112     15106     15101     15104
     15121     15116     15113     15118     15122     15116     15113     15118
     15123     15118     15113     15116     15124     15118     15113     15116
     15133     15128     15125     15130     15134     15128     15125     15130
     15135     15130     15125     15128     15136     15130     15125     15128
     15145     15140     15137     15142     15146     15140     15137     15142
     15147     15142     15137     15140     15148     15142     15137     15140
     15157     15152     15149     15154     15158     15152     15149     15154
     15159     15154     15149     15152     15160     15154     15149     15152
     15169     15164     15161     15166     15170     15164     15161     15166
     15171     15166     15161     15164     15172     15166     15161     15164
     15181     15176     15173     15178     15182     15176     15173     15178
     15183     15178     15173     15176     15184     15178     15173     15176
     15193     15188     15185     15190     15194     15188     15185     15190
     15195     15190     15185     15188     15196     15190     15185     15188
     15205     15200     15197     15202     15206     15200     15197     15202
     15207     15202     15197     15200     15208     15202     15197     15200
     15217     15212     15209     15214     15218     15212     15209     15214
     15219     15214     15209     15212     15220     15214     15209     15212
     15229     15224     15221     15226     15230     15224     15221     15226
     15231     15226     15221     15224     15232     15226     15221     15224
     15241     15236     15233     15238     15242     15236     15233     15238
     15243     15238     15233     15236     15244     15238     15233     15236
     15253     15248     15245     15250     15254     15248     15245     15250
     15255     15250     15245     15248     15256     15250     15245     15248
     15265     15260     15257     15262     15266     15260     15257     15262
     15267     15262     15257     15260     15268     15262     15257     15260
     15277     15272     15269     15274     15278     15272     15269     15274
     15279     15274     15269     15272     15280     15274     15269     15272
     15289     15284     15281     15286     15290     15284     15281     15286
     15291     15286     15281     15284     15292     15286     15281     15284
     15301     15296     15293     15298     15302     15296     15293     15298
     15303     15298     15293     15296     15304     15298     15293     15296
     15313     15308     15305     15310     15314     15308     15305     15310
     15315     15310     15305     15308     15316     15310     15305     15308
     15325     15320     15317     15322     15326     15320     15317     15322
     15327     15322     15317     15320     15328     15322     15317     15320
     15337     15332     15329     15334     15338     15332     15329     15334
     15339     15334     15329     15332     15340     15334     15329     15332
     15349     15344     15341     15346     15350     15344     15341     15346
     15351     15346     15341     15344     15352     15346     15341     15344
     15361     15356     15353     15358     15362     15356     15353     15358
     15363     15358     15353     15356     15364     15358     15353     15356
     15373     15368     15365     15370     15374     15368     15365     15370
     15375     15370     15365     15368     15376     15370     15365     15368
     15385     15380     15377     15382     15386     15380     15377     15382
     15387     15382     15377     15380     15388     15382     15377     15380
     15397     15392     15389     15394     15398     15392     15389     15394
     15399     15394     15389     15392     15400     15394     15389     15392
     15409     15404     15401     15406     15410     15404     15401     15406
     15411     15406     15401     15404     15412     15406     15401     15404
     15421     15416     15413     15418     15422     15416     15413     15418
     15423     15418     15413     15416     15424     15418     15413     15416
     15433     15428     15425     15430     15434     15428     15425     15430
     15435     15430     15425     15428     15436     15430     15425     15428
     15445     15440     15437     15442     15446     15440     15437     15442
     15447     15442     15437     15440     15448     15442     15437     15440
     15457     15452     15449     15454     15458     15452     15449     15454
     15459     15454     15449     15452     15460     15454     15449     15452
     15469     15464     15461     15466     15470     15464     15461     15466
     15471     15466     15461     15464     15472     15466     15461     15464
     15481     15476     15473     15478     15482     15476     15473     15478
     15483     15478     15473     15476     15484     15478     15473     15476
     15493     15488     15485     15490     15494     15488     15485     15490
     15495     15490     15485     15488     15496     15490     15485     15488
     15505     15500     15497     15502     15506     15500     15497     15502
     15507     15502     15497     15500     15508     15502     15497     15500
     15517     15512     15509     15514     15518     15512     15509     15514
     15519     15514     15509     15512     15520     15514     15509     15512
     15529     15524     15521     15526     15530     15524     15521     15526
     15531     15526     15521     15524     15532     15526     15521     15524
     15541     15536     15533     15538     15542     15536     15533     15538
     15543     15538     15533     15536     15544     15538     15533     15536
     15553     15548     15545     15550     15554     15548     15545     15550
     15555     15550     15545     15548     15556     15550     15545     15548
     15565     15560     15557     15562     15566     15560     15557     15562
     15567     15562     15557     15560     15568     15562     15557     15560
     15577     15572     15569     15574     15578     15572     15569     15574
     15579     15574     15569     15572     15580     15574     15569     15572
     15589     15584     15581     15586     15590     15584     15581     15586
     15591     15586     15581     15584     15592     15586     15581     15584
     15601     15596     15593     15598     15602     15596     15593     15598
     15603     15598     15593     15596     15604     15598     15593     15596
     15613     15608     15605     15610     15614     15608     15605     15610
     15615     15610     15605     15608     15616     15610     15605     15608
     15625     15620     15617     15622     15626     15620     15617     15622
     15627     15622     15617     15620     15628     15622     15617     15620
     15637     15632     15629     15634     15638     15632     15629     15634
     15639     15634     15629     15632     15640     15634     15629     15632
     15649     15644     15641     15646     15650     15644     15641     15646
     15651     15646     15641     15644     15652     15646     15641     15644
     15661     15656     15653     15658     15662     15656     15653     15658
     15663     15658     15653     15656     15664     15658     15653     15656
     15673     15668     15665     15670     15674     15668     15665     15670
     15675     15670     15665     15668     15676     15670     15665     15668
     15685     15680     15677     15682     15686     15680     15677     15682
     15687     15682     15677     15680     15688     15682     15677     15680
     15697     15692     15689     15694     15698     15692     15689     15694
     15699     15694     15689     15692     15700     15694     15689     15692
     15709     15704     15701     15706     15710     15704     15701     15706
     15711     15706     15701     15704     15712     15706     15701     15704
     15721     15716     15713     15718     15722     15716     15713     15718
     15723     15718     15713     15716     15724     15718     15713     15716
     15733     15728     15725     15730     15734     15728     15725     15730
     15735     15730     15725     15728     15736     15730     15725     15728
     15745     15740     15737     15742     15746     15740     15737     15742
     15747     15742     15737     15740     15748     15742     15737     15740
     15757     15752     15749     15754     15758     15752     15749     15754
     15759     15754     15749     15752     15760     15754     15749     15752
     15769     15764     15761     15766     15770     15764     15761     15766
     15771     15766     15761     15764     15772     15766     15761     15764
     15781     15776     15773     15778     15782     15776     15773     15778
     15783     15778     15773     15776     15784     15778     15773     15776
     15793     15788     15785     15790     15794     15788     15785     15790
     15795     15790     15785     15788     15796     15790     15785     15788
     15805     15800     15797     15802     15806     15800     15797     15802
     15807     15802     15797     15800     15808     15802     15797     15800
     15817     15812     15809     15814     15818     15812     15809     15814
     15819     15814     15809     15812     15820     15814     15809     15812
     15829     15824     15821     15826     15830     15824     15821     15826
     15831     15826     15821     15824     15832     15826     15821     15824
     15841     15836     15833     15838     15842     15836     15833     15838
     15843     15838     15833     15836     15844     15838     15833     15836
     15853     15848     15845     15850     15854     15848     15845     15850
     15855     15850     15845     15848     15856     15850     15845     15848
     15865     15860     15857     15862     15866     15860     15857     15862
     15867     15862     15857     15860     15868     15862     15857     15860
     15877     15872     15869     15874     15878     15872     15869     15874
     15879     15874     15869     15872     15880     15874     15869     15872
     15889     15884     15881     15886     15890     15884     15881     15886
     15891     15886     15881     15884     15892     15886     15881     15884
     15901     15896     15893     15898     15902     15896     15893     15898
     15903     15898     15893     15896     15904     15898     15893     15896
     15913     15908     15905     15910     15914     15908     15905     15910
     15915     15910     15905     15908     15916     15910     15905     15908
     15925     15920     15917     15922     15926     15920     15917     15922
     15927     15922     15917     15920     15928     15922     15917     15920
     15937     15932     15929     15934     15938     15932     15929     15934
     15939     15934     15929     15932     15940     15934     15929     15932
     15949     15944     15941     15946     15950     15944     15941     15946
     15951     15946     15941     15944     15952     15946     15941     15944
     15961     15956     15953     15958     15962     15956     15953     15958
     15963     15958     15953     15956     15964     15958     15953     15956
     15973     15968     15965     15970     15974     15968     15965     15970
     15975     15970     15965     15968     15976     15970     15965     15968
     15985     15980     15977     15982     15986     15980     15977     15982
     15987     15982     15977     15980     15988     15982     15977     15980
     15997     15992     15989     15994     15998     15992     15989     15994
     15999     15994     15989     15992     16000     15994     15989     15992
     16020     16017     16014     16011     16040     16037     16034     16031
     16060     16057     16054     16051     16080     16077     16074     16071
     16100     16097     16094     16091     16120     16117     16114     16111
     16140     16137     16134     16131     16160     16157     16154     16151
     16180     16177     16174     16171     16200     16197     16194     16191
     16220     16217     16214     16211     16240     16237     16234     16231
     16260     16257     16254     16251     16280     16277     16274     16271
     16300     16297     16294     16291     16320     16317     16314     16311
     16340     16337     16334     16331     16360     16357     16354     16351
     16380     16377     16374     16371     16400     16397     16394     16391
     16420     16417     16414     16411     16440     16437     16434     16431
     16460     16457     16454     16451     16480     16477     16474     16471
     16500     16497     16494     16491     16520     16517     16514     16511
     16540     16537     16534     16531     16560     16557     16554     16551
     16580     16577     16574     16571     16600     16597     16594     16591
     16620     16617     16614     16611     16640     16637     16634     16631
     16660     16657     16654     16651     16680     16677     16674     16671
     16700     16697     16694     16691     16720     16717     16714     16711
     16740     16737     16734     16731     16760     16757     16754     16751
     16780     16777     16774     16771     16800     16797     16794     16791
     16820     16817     16814     16811     16840     16837     16834     16831
     16860     16857     16854     16851     16880     16877     16874     16871
     16900     16897     16894     16891     16920     16917     16914     16911
     16940     16937     16934     16931     16960     16957     16954     16951
     16980     16977     16974     16971     17000     16997     16994     16991
     17009     17004     17001     17006     17010     17004     17001     17006
     17011     17006     17001     17008     17012     17006     17001     17008
     17021     17016     17013     17018     17022     17016     17013     17018
     17023     17018     17013     17020     17024     17018     17013     17020
     17033     17028     17025     17030     17034     17028     17025     17030
     17035     17030     17025     17032     17036     17030     17025     17032
     17045     17040     17037     17042     17046     17040     17037     17042
     17047     17042     17037     17044     17048     17042     17037     17044
     17057     17052     17049     17054     17058     17052     17049     17054
     17059     17054     17049     17056     17060     17054     17049     17056
     17069     17064     17061     17066     17070     17064     17061     17066
     17071     17066     17061     17068     17072     17066     17061     17068
     17081     17076     17073     17078     17082     17076     17073     17078
     17083     17078     17073     17080     17084     17078     17073     17080
     17093     17088     17085     17090     17094     17088     17085     17090
     17095     17090     17085     17092     17096     17090     17085     17092
     17105     17100     17097     17102     17106     17100     17097     17102
     17107     17102     17097     17104     17108     17102     17097     17104
     17117     17112     17109     17114     17118     17112     17109     17114
     17119     17114     17109     17116     17120     17114     17109     17116
     17129     17124     17121     17126     17130     17124     17121     17126
     17131     17126     17121     17128     17132     17126     17121     17128
     17141     17136     17133     17138     17142     17136     17133     17138
     17143     17138     17133     17140     17144     17138     17133     17140
     17153     17148     17145     17150     17154     17148     17145     17150
     17155     17150     17145     17152     17156     17150     17145     17152
     17165     17160     17157     17162     17166     17160     17157     17162
     17167     17162     17157     17164     17168     17162     17157     17164
     17177     17172     17169     17174     17178     17172     17169     17174
     17179     17174     17169     17176     17180     17174     17169     17176
     17189     17184     17181     17186     17190     17184     17181     17186
     17191     17186     17181     17188     17192     17186     17181     17188
     17201     17196     17193     17198     17202     17196     17193     17198
     17203     17198     17193     17200     17204     17198     17193     17200
     17213     17208     17205     17210     17214     17208     17205     17210
     17215     17210     17205     17212     17216     17210     17205     17212
     17225     17220     17217     17222     17226     17220     17217     17222
     17227     17222     17217     17224     17228     17222     17217     17224
     17237     17232     17229     17234     17238     17232     17229     17234
     17239     17234     17229     17236     17240     17234     17229     17236
     17249     17244     17241     17246     17250     17244     17241     17246
     17251     17246     17241     17248     17252     17246     17241     17248
     17261     17256     17253     17258     17262     17256     17253     17258
     17263     17258     17253     17260     17264     17258     17253     17260
     17273     17268     17265     17270     17274     17268     17265     17270
     17275     17270     17265     17272     17276     17270     17265     17272
     17285     17280     17277     17282     17286     17280     17277     17282
     17287     17282     17277     17284     17288     17282     17277     17284
     17297     17292     17289     17294     17298     17292     17289     17294
     17299     17294     17289     17296     17300     17294     17289     17296
     17309     17304     17301     17306     17310     17304     17301     17306
     17311     17306     17301     17308     17312     17306     17301     17308
     17321     17316     17313     17318     17322     17316     17313     17318
     17323     17318     17313     17320     17324     17318     17313     17320
     17333     17328     17325     17330     17334     17328     17325     17330
     17335     17330     17325     17332     17336     17330     17325     17332
     17345     17340     17337     17342     17346     17340     17337     17342
     17347     17342     17337     17344     17348     17342     17337     17344
     17357     17352     17349     17354     17358     17352     17349     17354
     17359     17354     17349     17356     17360     17354     17349     17356
     17369     17364     17361     17366     17370     17364     17361     17366
     17371     17366     17361     17368     17372     17366     17361     17368
     17381     17376     17373     17378     17382     17376     17373     17378
     17383     17378     17373     17380     17384     17378     17373     17380
     17393     17388     17385     17390     17394     17388     17385     17390
     17395     17390     17385     17392     17396     17390     17385     17392
     17405     17400     17397     17402     17406     17400     17397     17402
     17407     17402     17397     17404     17408     17402     17397     17404
     17417     17412     17409     17414     17418     17412     17409     17414
     17419     17414     17409     17416     17420     17414     17409     17416
     17429     17424     17421     17426     17430     17424     17421     17426
     17431     17426     17421     17428     17432     17426     17421     17428
     17441     17436     17433     17438     17442     17436     17433     17438
     17443     17438     17433     17440     17444     17438     17433     17440
     17453     17448     17445     17450     17454     17448     17445     17450
     17455     17450     17445     17452     17456     17450     17445     17452
     17465     17460     17457     17462     17466     17460     17457     17462
     17467     17462     17457     17464     17468     17462     17457     17464
     17477     17472     17469     17474     17478     17472     17469     17474
     17479     17474     17469     17476     17480     17474     17469     17476
     17489     17484     17481     17486     17490     17484     17481     17486
     17491     17486     17481     17488     17492     17486     17481     17488
     17501     17496     17493     17498     17502     17496     17493     17498
     17503     17498     17493     17500     17504     17498     17493     17500
     17513     17508     17505     17510     17514     17508     17505     17510
     17515     17510     17505     17512     17516     17510     17505     17512
     17525     17520     17517     17522     17526     17520     17517     17522
     17527     17522     17517     17524     17528     17522     17517     17524
     17537     17532     17529     17534     17538     17532     17529     17534
     17539     17534     17529     17536     17540     17534     17529     17536
     17549     17544     17541     17546     17550     17544     17541     17546
     17551     17546     17541     17548     17552     17546     17541     17548
     17561     17556     17553     17558     17562     17556     17553     17558
     17563     17558     17553     17560     17564     17558     17553     17560
     17573     17568     17565     17570     17574     17568     17565     17570
     17575     17570     17565     17572     17576     17570     17565     17572
     17585     17580     17577     17582     17586     17580     17577     17582
     17587     17582     17577     17584     17588     17582     17577     17584
     17597     17592     17589     17594     17598     17592     17589     17594
     17599     17594     17589     17596     17600     17594     17589     17596

         0 !NUMANISO

         0 !NCRTERM: cross-terms

