PSF EXT CMAP CHEQ DRUDE XPLOR

         4 !NTITLE
*~~~~~~~~~~~~~~~~~~~~~~~~~~~~~~~~~~~~~~~~~~~~~~~~~~~~~~~~~~~~~~~~~~~~~~~        
*~ MINIMIZATION OF PACKMOL STRUCTURE                                            
*~~~~~~~~~~~~~~~~~~~~~~~~~~~~~~~~~~~~~~~~~~~~~~~~~~~~~~~~~~~~~~~~~~~~~~~        
*  DATE:     1/13/23     17: 4: 0      CREATED BY USER: marta                   

      2700 !NATOM
         1 MEOH2    1        MEOH2    C1       CD33B     2.31610       11.6110           0  -1.00000       1.30000    
         2 MEOH2    1        MEOH2    DC1      DRUD     -2.45410      0.400000           0   0.00000       0.00000    
         3 MEOH2    1        MEOH2    O1       OD31H     2.48830       15.5990           0  -1.02800       1.30000    
         4 MEOH2    1        MEOH2    DO1      DRUD     -2.48830      0.400000           0   0.00000       0.00000    
         5 MEOH2    1        MEOH2    HO1      HDP1A    0.481000       1.00800           0   0.00000       0.00000    
         6 MEOH2    1        MEOH2    HO2      HDP1A    0.481000       1.00800           0   0.00000       0.00000    
         7 MEOH2    1        MEOH2    H1A      HDA3B    0.194000       1.00800           0   0.00000       0.00000    
         8 MEOH2    1        MEOH2    H1B      HDA3B    0.194000       1.00800           0   0.00000       0.00000    
         9 MEOH2    1        MEOH2    H1C      HDA3B    0.194000       1.00800           0   0.00000       0.00000    
        10 MEOH2    1        MEOH2    LP1A     LPD     -0.203000       0.00000          -1   0.00000       0.00000    
        11 MEOH2    1        MEOH2    LP1B     LPD     -0.203000       0.00000          -1   0.00000       0.00000    
        12 MEOH2    2        MEOH2    C1       CD33B     2.31610       11.6110           0  -1.00000       1.30000    
        13 MEOH2    2        MEOH2    DC1      DRUD     -2.45410      0.400000           0   0.00000       0.00000    
        14 MEOH2    2        MEOH2    O1       OD31H     2.48830       15.5990           0  -1.02800       1.30000    
        15 MEOH2    2        MEOH2    DO1      DRUD     -2.48830      0.400000           0   0.00000       0.00000    
        16 MEOH2    2        MEOH2    HO1      HDP1A    0.481000       1.00800           0   0.00000       0.00000    
        17 MEOH2    2        MEOH2    HO2      HDP1A    0.481000       1.00800           0   0.00000       0.00000    
        18 MEOH2    2        MEOH2    H1A      HDA3B    0.194000       1.00800           0   0.00000       0.00000    
        19 MEOH2    2        MEOH2    H1B      HDA3B    0.194000       1.00800           0   0.00000       0.00000    
        20 MEOH2    2        MEOH2    H1C      HDA3B    0.194000       1.00800           0   0.00000       0.00000    
        21 MEOH2    2        MEOH2    LP1A     LPD     -0.203000       0.00000          -1   0.00000       0.00000    
        22 MEOH2    2        MEOH2    LP1B     LPD     -0.203000       0.00000          -1   0.00000       0.00000    
        23 MEOH2    3        MEOH2    C1       CD33B     2.31610       11.6110           0  -1.00000       1.30000    
        24 MEOH2    3        MEOH2    DC1      DRUD     -2.45410      0.400000           0   0.00000       0.00000    
        25 MEOH2    3        MEOH2    O1       OD31H     2.48830       15.5990           0  -1.02800       1.30000    
        26 MEOH2    3        MEOH2    DO1      DRUD     -2.48830      0.400000           0   0.00000       0.00000    
        27 MEOH2    3        MEOH2    HO1      HDP1A    0.481000       1.00800           0   0.00000       0.00000    
        28 MEOH2    3        MEOH2    HO2      HDP1A    0.481000       1.00800           0   0.00000       0.00000    
        29 MEOH2    3        MEOH2    H1A      HDA3B    0.194000       1.00800           0   0.00000       0.00000    
        30 MEOH2    3        MEOH2    H1B      HDA3B    0.194000       1.00800           0   0.00000       0.00000    
        31 MEOH2    3        MEOH2    H1C      HDA3B    0.194000       1.00800           0   0.00000       0.00000    
        32 MEOH2    3        MEOH2    LP1A     LPD     -0.203000       0.00000          -1   0.00000       0.00000    
        33 MEOH2    3        MEOH2    LP1B     LPD     -0.203000       0.00000          -1   0.00000       0.00000    
        34 MEOH2    4        MEOH2    C1       CD33B     2.31610       11.6110           0  -1.00000       1.30000    
        35 MEOH2    4        MEOH2    DC1      DRUD     -2.45410      0.400000           0   0.00000       0.00000    
        36 MEOH2    4        MEOH2    O1       OD31H     2.48830       15.5990           0  -1.02800       1.30000    
        37 MEOH2    4        MEOH2    DO1      DRUD     -2.48830      0.400000           0   0.00000       0.00000    
        38 MEOH2    4        MEOH2    HO1      HDP1A    0.481000       1.00800           0   0.00000       0.00000    
        39 MEOH2    4        MEOH2    HO2      HDP1A    0.481000       1.00800           0   0.00000       0.00000    
        40 MEOH2    4        MEOH2    H1A      HDA3B    0.194000       1.00800           0   0.00000       0.00000    
        41 MEOH2    4        MEOH2    H1B      HDA3B    0.194000       1.00800           0   0.00000       0.00000    
        42 MEOH2    4        MEOH2    H1C      HDA3B    0.194000       1.00800           0   0.00000       0.00000    
        43 MEOH2    4        MEOH2    LP1A     LPD     -0.203000       0.00000          -1   0.00000       0.00000    
        44 MEOH2    4        MEOH2    LP1B     LPD     -0.203000       0.00000          -1   0.00000       0.00000    
        45 MEOH2    5        MEOH2    C1       CD33B     2.31610       11.6110           0  -1.00000       1.30000    
        46 MEOH2    5        MEOH2    DC1      DRUD     -2.45410      0.400000           0   0.00000       0.00000    
        47 MEOH2    5        MEOH2    O1       OD31H     2.48830       15.5990           0  -1.02800       1.30000    
        48 MEOH2    5        MEOH2    DO1      DRUD     -2.48830      0.400000           0   0.00000       0.00000    
        49 MEOH2    5        MEOH2    HO1      HDP1A    0.481000       1.00800           0   0.00000       0.00000    
        50 MEOH2    5        MEOH2    HO2      HDP1A    0.481000       1.00800           0   0.00000       0.00000    
        51 MEOH2    5        MEOH2    H1A      HDA3B    0.194000       1.00800           0   0.00000       0.00000    
        52 MEOH2    5        MEOH2    H1B      HDA3B    0.194000       1.00800           0   0.00000       0.00000    
        53 MEOH2    5        MEOH2    H1C      HDA3B    0.194000       1.00800           0   0.00000       0.00000    
        54 MEOH2    5        MEOH2    LP1A     LPD     -0.203000       0.00000          -1   0.00000       0.00000    
        55 MEOH2    5        MEOH2    LP1B     LPD     -0.203000       0.00000          -1   0.00000       0.00000    
        56 MEOH2    6        MEOH2    C1       CD33B     2.31610       11.6110           0  -1.00000       1.30000    
        57 MEOH2    6        MEOH2    DC1      DRUD     -2.45410      0.400000           0   0.00000       0.00000    
        58 MEOH2    6        MEOH2    O1       OD31H     2.48830       15.5990           0  -1.02800       1.30000    
        59 MEOH2    6        MEOH2    DO1      DRUD     -2.48830      0.400000           0   0.00000       0.00000    
        60 MEOH2    6        MEOH2    HO1      HDP1A    0.481000       1.00800           0   0.00000       0.00000    
        61 MEOH2    6        MEOH2    HO2      HDP1A    0.481000       1.00800           0   0.00000       0.00000    
        62 MEOH2    6        MEOH2    H1A      HDA3B    0.194000       1.00800           0   0.00000       0.00000    
        63 MEOH2    6        MEOH2    H1B      HDA3B    0.194000       1.00800           0   0.00000       0.00000    
        64 MEOH2    6        MEOH2    H1C      HDA3B    0.194000       1.00800           0   0.00000       0.00000    
        65 MEOH2    6        MEOH2    LP1A     LPD     -0.203000       0.00000          -1   0.00000       0.00000    
        66 MEOH2    6        MEOH2    LP1B     LPD     -0.203000       0.00000          -1   0.00000       0.00000    
        67 MEOH2    7        MEOH2    C1       CD33B     2.31610       11.6110           0  -1.00000       1.30000    
        68 MEOH2    7        MEOH2    DC1      DRUD     -2.45410      0.400000           0   0.00000       0.00000    
        69 MEOH2    7        MEOH2    O1       OD31H     2.48830       15.5990           0  -1.02800       1.30000    
        70 MEOH2    7        MEOH2    DO1      DRUD     -2.48830      0.400000           0   0.00000       0.00000    
        71 MEOH2    7        MEOH2    HO1      HDP1A    0.481000       1.00800           0   0.00000       0.00000    
        72 MEOH2    7        MEOH2    HO2      HDP1A    0.481000       1.00800           0   0.00000       0.00000    
        73 MEOH2    7        MEOH2    H1A      HDA3B    0.194000       1.00800           0   0.00000       0.00000    
        74 MEOH2    7        MEOH2    H1B      HDA3B    0.194000       1.00800           0   0.00000       0.00000    
        75 MEOH2    7        MEOH2    H1C      HDA3B    0.194000       1.00800           0   0.00000       0.00000    
        76 MEOH2    7        MEOH2    LP1A     LPD     -0.203000       0.00000          -1   0.00000       0.00000    
        77 MEOH2    7        MEOH2    LP1B     LPD     -0.203000       0.00000          -1   0.00000       0.00000    
        78 MEOH2    8        MEOH2    C1       CD33B     2.31610       11.6110           0  -1.00000       1.30000    
        79 MEOH2    8        MEOH2    DC1      DRUD     -2.45410      0.400000           0   0.00000       0.00000    
        80 MEOH2    8        MEOH2    O1       OD31H     2.48830       15.5990           0  -1.02800       1.30000    
        81 MEOH2    8        MEOH2    DO1      DRUD     -2.48830      0.400000           0   0.00000       0.00000    
        82 MEOH2    8        MEOH2    HO1      HDP1A    0.481000       1.00800           0   0.00000       0.00000    
        83 MEOH2    8        MEOH2    HO2      HDP1A    0.481000       1.00800           0   0.00000       0.00000    
        84 MEOH2    8        MEOH2    H1A      HDA3B    0.194000       1.00800           0   0.00000       0.00000    
        85 MEOH2    8        MEOH2    H1B      HDA3B    0.194000       1.00800           0   0.00000       0.00000    
        86 MEOH2    8        MEOH2    H1C      HDA3B    0.194000       1.00800           0   0.00000       0.00000    
        87 MEOH2    8        MEOH2    LP1A     LPD     -0.203000       0.00000          -1   0.00000       0.00000    
        88 MEOH2    8        MEOH2    LP1B     LPD     -0.203000       0.00000          -1   0.00000       0.00000    
        89 MEOH2    9        MEOH2    C1       CD33B     2.31610       11.6110           0  -1.00000       1.30000    
        90 MEOH2    9        MEOH2    DC1      DRUD     -2.45410      0.400000           0   0.00000       0.00000    
        91 MEOH2    9        MEOH2    O1       OD31H     2.48830       15.5990           0  -1.02800       1.30000    
        92 MEOH2    9        MEOH2    DO1      DRUD     -2.48830      0.400000           0   0.00000       0.00000    
        93 MEOH2    9        MEOH2    HO1      HDP1A    0.481000       1.00800           0   0.00000       0.00000    
        94 MEOH2    9        MEOH2    HO2      HDP1A    0.481000       1.00800           0   0.00000       0.00000    
        95 MEOH2    9        MEOH2    H1A      HDA3B    0.194000       1.00800           0   0.00000       0.00000    
        96 MEOH2    9        MEOH2    H1B      HDA3B    0.194000       1.00800           0   0.00000       0.00000    
        97 MEOH2    9        MEOH2    H1C      HDA3B    0.194000       1.00800           0   0.00000       0.00000    
        98 MEOH2    9        MEOH2    LP1A     LPD     -0.203000       0.00000          -1   0.00000       0.00000    
        99 MEOH2    9        MEOH2    LP1B     LPD     -0.203000       0.00000          -1   0.00000       0.00000    
       100 MEOH2    10       MEOH2    C1       CD33B     2.31610       11.6110           0  -1.00000       1.30000    
       101 MEOH2    10       MEOH2    DC1      DRUD     -2.45410      0.400000           0   0.00000       0.00000    
       102 MEOH2    10       MEOH2    O1       OD31H     2.48830       15.5990           0  -1.02800       1.30000    
       103 MEOH2    10       MEOH2    DO1      DRUD     -2.48830      0.400000           0   0.00000       0.00000    
       104 MEOH2    10       MEOH2    HO1      HDP1A    0.481000       1.00800           0   0.00000       0.00000    
       105 MEOH2    10       MEOH2    HO2      HDP1A    0.481000       1.00800           0   0.00000       0.00000    
       106 MEOH2    10       MEOH2    H1A      HDA3B    0.194000       1.00800           0   0.00000       0.00000    
       107 MEOH2    10       MEOH2    H1B      HDA3B    0.194000       1.00800           0   0.00000       0.00000    
       108 MEOH2    10       MEOH2    H1C      HDA3B    0.194000       1.00800           0   0.00000       0.00000    
       109 MEOH2    10       MEOH2    LP1A     LPD     -0.203000       0.00000          -1   0.00000       0.00000    
       110 MEOH2    10       MEOH2    LP1B     LPD     -0.203000       0.00000          -1   0.00000       0.00000    
       111 MEOH2    11       MEOH2    C1       CD33B     2.31610       11.6110           0  -1.00000       1.30000    
       112 MEOH2    11       MEOH2    DC1      DRUD     -2.45410      0.400000           0   0.00000       0.00000    
       113 MEOH2    11       MEOH2    O1       OD31H     2.48830       15.5990           0  -1.02800       1.30000    
       114 MEOH2    11       MEOH2    DO1      DRUD     -2.48830      0.400000           0   0.00000       0.00000    
       115 MEOH2    11       MEOH2    HO1      HDP1A    0.481000       1.00800           0   0.00000       0.00000    
       116 MEOH2    11       MEOH2    HO2      HDP1A    0.481000       1.00800           0   0.00000       0.00000    
       117 MEOH2    11       MEOH2    H1A      HDA3B    0.194000       1.00800           0   0.00000       0.00000    
       118 MEOH2    11       MEOH2    H1B      HDA3B    0.194000       1.00800           0   0.00000       0.00000    
       119 MEOH2    11       MEOH2    H1C      HDA3B    0.194000       1.00800           0   0.00000       0.00000    
       120 MEOH2    11       MEOH2    LP1A     LPD     -0.203000       0.00000          -1   0.00000       0.00000    
       121 MEOH2    11       MEOH2    LP1B     LPD     -0.203000       0.00000          -1   0.00000       0.00000    
       122 MEOH2    12       MEOH2    C1       CD33B     2.31610       11.6110           0  -1.00000       1.30000    
       123 MEOH2    12       MEOH2    DC1      DRUD     -2.45410      0.400000           0   0.00000       0.00000    
       124 MEOH2    12       MEOH2    O1       OD31H     2.48830       15.5990           0  -1.02800       1.30000    
       125 MEOH2    12       MEOH2    DO1      DRUD     -2.48830      0.400000           0   0.00000       0.00000    
       126 MEOH2    12       MEOH2    HO1      HDP1A    0.481000       1.00800           0   0.00000       0.00000    
       127 MEOH2    12       MEOH2    HO2      HDP1A    0.481000       1.00800           0   0.00000       0.00000    
       128 MEOH2    12       MEOH2    H1A      HDA3B    0.194000       1.00800           0   0.00000       0.00000    
       129 MEOH2    12       MEOH2    H1B      HDA3B    0.194000       1.00800           0   0.00000       0.00000    
       130 MEOH2    12       MEOH2    H1C      HDA3B    0.194000       1.00800           0   0.00000       0.00000    
       131 MEOH2    12       MEOH2    LP1A     LPD     -0.203000       0.00000          -1   0.00000       0.00000    
       132 MEOH2    12       MEOH2    LP1B     LPD     -0.203000       0.00000          -1   0.00000       0.00000    
       133 MEOH2    13       MEOH2    C1       CD33B     2.31610       11.6110           0  -1.00000       1.30000    
       134 MEOH2    13       MEOH2    DC1      DRUD     -2.45410      0.400000           0   0.00000       0.00000    
       135 MEOH2    13       MEOH2    O1       OD31H     2.48830       15.5990           0  -1.02800       1.30000    
       136 MEOH2    13       MEOH2    DO1      DRUD     -2.48830      0.400000           0   0.00000       0.00000    
       137 MEOH2    13       MEOH2    HO1      HDP1A    0.481000       1.00800           0   0.00000       0.00000    
       138 MEOH2    13       MEOH2    HO2      HDP1A    0.481000       1.00800           0   0.00000       0.00000    
       139 MEOH2    13       MEOH2    H1A      HDA3B    0.194000       1.00800           0   0.00000       0.00000    
       140 MEOH2    13       MEOH2    H1B      HDA3B    0.194000       1.00800           0   0.00000       0.00000    
       141 MEOH2    13       MEOH2    H1C      HDA3B    0.194000       1.00800           0   0.00000       0.00000    
       142 MEOH2    13       MEOH2    LP1A     LPD     -0.203000       0.00000          -1   0.00000       0.00000    
       143 MEOH2    13       MEOH2    LP1B     LPD     -0.203000       0.00000          -1   0.00000       0.00000    
       144 MEOH2    14       MEOH2    C1       CD33B     2.31610       11.6110           0  -1.00000       1.30000    
       145 MEOH2    14       MEOH2    DC1      DRUD     -2.45410      0.400000           0   0.00000       0.00000    
       146 MEOH2    14       MEOH2    O1       OD31H     2.48830       15.5990           0  -1.02800       1.30000    
       147 MEOH2    14       MEOH2    DO1      DRUD     -2.48830      0.400000           0   0.00000       0.00000    
       148 MEOH2    14       MEOH2    HO1      HDP1A    0.481000       1.00800           0   0.00000       0.00000    
       149 MEOH2    14       MEOH2    HO2      HDP1A    0.481000       1.00800           0   0.00000       0.00000    
       150 MEOH2    14       MEOH2    H1A      HDA3B    0.194000       1.00800           0   0.00000       0.00000    
       151 MEOH2    14       MEOH2    H1B      HDA3B    0.194000       1.00800           0   0.00000       0.00000    
       152 MEOH2    14       MEOH2    H1C      HDA3B    0.194000       1.00800           0   0.00000       0.00000    
       153 MEOH2    14       MEOH2    LP1A     LPD     -0.203000       0.00000          -1   0.00000       0.00000    
       154 MEOH2    14       MEOH2    LP1B     LPD     -0.203000       0.00000          -1   0.00000       0.00000    
       155 MEOH2    15       MEOH2    C1       CD33B     2.31610       11.6110           0  -1.00000       1.30000    
       156 MEOH2    15       MEOH2    DC1      DRUD     -2.45410      0.400000           0   0.00000       0.00000    
       157 MEOH2    15       MEOH2    O1       OD31H     2.48830       15.5990           0  -1.02800       1.30000    
       158 MEOH2    15       MEOH2    DO1      DRUD     -2.48830      0.400000           0   0.00000       0.00000    
       159 MEOH2    15       MEOH2    HO1      HDP1A    0.481000       1.00800           0   0.00000       0.00000    
       160 MEOH2    15       MEOH2    HO2      HDP1A    0.481000       1.00800           0   0.00000       0.00000    
       161 MEOH2    15       MEOH2    H1A      HDA3B    0.194000       1.00800           0   0.00000       0.00000    
       162 MEOH2    15       MEOH2    H1B      HDA3B    0.194000       1.00800           0   0.00000       0.00000    
       163 MEOH2    15       MEOH2    H1C      HDA3B    0.194000       1.00800           0   0.00000       0.00000    
       164 MEOH2    15       MEOH2    LP1A     LPD     -0.203000       0.00000          -1   0.00000       0.00000    
       165 MEOH2    15       MEOH2    LP1B     LPD     -0.203000       0.00000          -1   0.00000       0.00000    
       166 MEOH2    16       MEOH2    C1       CD33B     2.31610       11.6110           0  -1.00000       1.30000    
       167 MEOH2    16       MEOH2    DC1      DRUD     -2.45410      0.400000           0   0.00000       0.00000    
       168 MEOH2    16       MEOH2    O1       OD31H     2.48830       15.5990           0  -1.02800       1.30000    
       169 MEOH2    16       MEOH2    DO1      DRUD     -2.48830      0.400000           0   0.00000       0.00000    
       170 MEOH2    16       MEOH2    HO1      HDP1A    0.481000       1.00800           0   0.00000       0.00000    
       171 MEOH2    16       MEOH2    HO2      HDP1A    0.481000       1.00800           0   0.00000       0.00000    
       172 MEOH2    16       MEOH2    H1A      HDA3B    0.194000       1.00800           0   0.00000       0.00000    
       173 MEOH2    16       MEOH2    H1B      HDA3B    0.194000       1.00800           0   0.00000       0.00000    
       174 MEOH2    16       MEOH2    H1C      HDA3B    0.194000       1.00800           0   0.00000       0.00000    
       175 MEOH2    16       MEOH2    LP1A     LPD     -0.203000       0.00000          -1   0.00000       0.00000    
       176 MEOH2    16       MEOH2    LP1B     LPD     -0.203000       0.00000          -1   0.00000       0.00000    
       177 MEOH2    17       MEOH2    C1       CD33B     2.31610       11.6110           0  -1.00000       1.30000    
       178 MEOH2    17       MEOH2    DC1      DRUD     -2.45410      0.400000           0   0.00000       0.00000    
       179 MEOH2    17       MEOH2    O1       OD31H     2.48830       15.5990           0  -1.02800       1.30000    
       180 MEOH2    17       MEOH2    DO1      DRUD     -2.48830      0.400000           0   0.00000       0.00000    
       181 MEOH2    17       MEOH2    HO1      HDP1A    0.481000       1.00800           0   0.00000       0.00000    
       182 MEOH2    17       MEOH2    HO2      HDP1A    0.481000       1.00800           0   0.00000       0.00000    
       183 MEOH2    17       MEOH2    H1A      HDA3B    0.194000       1.00800           0   0.00000       0.00000    
       184 MEOH2    17       MEOH2    H1B      HDA3B    0.194000       1.00800           0   0.00000       0.00000    
       185 MEOH2    17       MEOH2    H1C      HDA3B    0.194000       1.00800           0   0.00000       0.00000    
       186 MEOH2    17       MEOH2    LP1A     LPD     -0.203000       0.00000          -1   0.00000       0.00000    
       187 MEOH2    17       MEOH2    LP1B     LPD     -0.203000       0.00000          -1   0.00000       0.00000    
       188 MEOH2    18       MEOH2    C1       CD33B     2.31610       11.6110           0  -1.00000       1.30000    
       189 MEOH2    18       MEOH2    DC1      DRUD     -2.45410      0.400000           0   0.00000       0.00000    
       190 MEOH2    18       MEOH2    O1       OD31H     2.48830       15.5990           0  -1.02800       1.30000    
       191 MEOH2    18       MEOH2    DO1      DRUD     -2.48830      0.400000           0   0.00000       0.00000    
       192 MEOH2    18       MEOH2    HO1      HDP1A    0.481000       1.00800           0   0.00000       0.00000    
       193 MEOH2    18       MEOH2    HO2      HDP1A    0.481000       1.00800           0   0.00000       0.00000    
       194 MEOH2    18       MEOH2    H1A      HDA3B    0.194000       1.00800           0   0.00000       0.00000    
       195 MEOH2    18       MEOH2    H1B      HDA3B    0.194000       1.00800           0   0.00000       0.00000    
       196 MEOH2    18       MEOH2    H1C      HDA3B    0.194000       1.00800           0   0.00000       0.00000    
       197 MEOH2    18       MEOH2    LP1A     LPD     -0.203000       0.00000          -1   0.00000       0.00000    
       198 MEOH2    18       MEOH2    LP1B     LPD     -0.203000       0.00000          -1   0.00000       0.00000    
       199 MEOH2    19       MEOH2    C1       CD33B     2.31610       11.6110           0  -1.00000       1.30000    
       200 MEOH2    19       MEOH2    DC1      DRUD     -2.45410      0.400000           0   0.00000       0.00000    
       201 MEOH2    19       MEOH2    O1       OD31H     2.48830       15.5990           0  -1.02800       1.30000    
       202 MEOH2    19       MEOH2    DO1      DRUD     -2.48830      0.400000           0   0.00000       0.00000    
       203 MEOH2    19       MEOH2    HO1      HDP1A    0.481000       1.00800           0   0.00000       0.00000    
       204 MEOH2    19       MEOH2    HO2      HDP1A    0.481000       1.00800           0   0.00000       0.00000    
       205 MEOH2    19       MEOH2    H1A      HDA3B    0.194000       1.00800           0   0.00000       0.00000    
       206 MEOH2    19       MEOH2    H1B      HDA3B    0.194000       1.00800           0   0.00000       0.00000    
       207 MEOH2    19       MEOH2    H1C      HDA3B    0.194000       1.00800           0   0.00000       0.00000    
       208 MEOH2    19       MEOH2    LP1A     LPD     -0.203000       0.00000          -1   0.00000       0.00000    
       209 MEOH2    19       MEOH2    LP1B     LPD     -0.203000       0.00000          -1   0.00000       0.00000    
       210 MEOH2    20       MEOH2    C1       CD33B     2.31610       11.6110           0  -1.00000       1.30000    
       211 MEOH2    20       MEOH2    DC1      DRUD     -2.45410      0.400000           0   0.00000       0.00000    
       212 MEOH2    20       MEOH2    O1       OD31H     2.48830       15.5990           0  -1.02800       1.30000    
       213 MEOH2    20       MEOH2    DO1      DRUD     -2.48830      0.400000           0   0.00000       0.00000    
       214 MEOH2    20       MEOH2    HO1      HDP1A    0.481000       1.00800           0   0.00000       0.00000    
       215 MEOH2    20       MEOH2    HO2      HDP1A    0.481000       1.00800           0   0.00000       0.00000    
       216 MEOH2    20       MEOH2    H1A      HDA3B    0.194000       1.00800           0   0.00000       0.00000    
       217 MEOH2    20       MEOH2    H1B      HDA3B    0.194000       1.00800           0   0.00000       0.00000    
       218 MEOH2    20       MEOH2    H1C      HDA3B    0.194000       1.00800           0   0.00000       0.00000    
       219 MEOH2    20       MEOH2    LP1A     LPD     -0.203000       0.00000          -1   0.00000       0.00000    
       220 MEOH2    20       MEOH2    LP1B     LPD     -0.203000       0.00000          -1   0.00000       0.00000    
       221 MEOH2    21       MEOH2    C1       CD33B     2.31610       11.6110           0  -1.00000       1.30000    
       222 MEOH2    21       MEOH2    DC1      DRUD     -2.45410      0.400000           0   0.00000       0.00000    
       223 MEOH2    21       MEOH2    O1       OD31H     2.48830       15.5990           0  -1.02800       1.30000    
       224 MEOH2    21       MEOH2    DO1      DRUD     -2.48830      0.400000           0   0.00000       0.00000    
       225 MEOH2    21       MEOH2    HO1      HDP1A    0.481000       1.00800           0   0.00000       0.00000    
       226 MEOH2    21       MEOH2    HO2      HDP1A    0.481000       1.00800           0   0.00000       0.00000    
       227 MEOH2    21       MEOH2    H1A      HDA3B    0.194000       1.00800           0   0.00000       0.00000    
       228 MEOH2    21       MEOH2    H1B      HDA3B    0.194000       1.00800           0   0.00000       0.00000    
       229 MEOH2    21       MEOH2    H1C      HDA3B    0.194000       1.00800           0   0.00000       0.00000    
       230 MEOH2    21       MEOH2    LP1A     LPD     -0.203000       0.00000          -1   0.00000       0.00000    
       231 MEOH2    21       MEOH2    LP1B     LPD     -0.203000       0.00000          -1   0.00000       0.00000    
       232 MEOH2    22       MEOH2    C1       CD33B     2.31610       11.6110           0  -1.00000       1.30000    
       233 MEOH2    22       MEOH2    DC1      DRUD     -2.45410      0.400000           0   0.00000       0.00000    
       234 MEOH2    22       MEOH2    O1       OD31H     2.48830       15.5990           0  -1.02800       1.30000    
       235 MEOH2    22       MEOH2    DO1      DRUD     -2.48830      0.400000           0   0.00000       0.00000    
       236 MEOH2    22       MEOH2    HO1      HDP1A    0.481000       1.00800           0   0.00000       0.00000    
       237 MEOH2    22       MEOH2    HO2      HDP1A    0.481000       1.00800           0   0.00000       0.00000    
       238 MEOH2    22       MEOH2    H1A      HDA3B    0.194000       1.00800           0   0.00000       0.00000    
       239 MEOH2    22       MEOH2    H1B      HDA3B    0.194000       1.00800           0   0.00000       0.00000    
       240 MEOH2    22       MEOH2    H1C      HDA3B    0.194000       1.00800           0   0.00000       0.00000    
       241 MEOH2    22       MEOH2    LP1A     LPD     -0.203000       0.00000          -1   0.00000       0.00000    
       242 MEOH2    22       MEOH2    LP1B     LPD     -0.203000       0.00000          -1   0.00000       0.00000    
       243 MEOH2    23       MEOH2    C1       CD33B     2.31610       11.6110           0  -1.00000       1.30000    
       244 MEOH2    23       MEOH2    DC1      DRUD     -2.45410      0.400000           0   0.00000       0.00000    
       245 MEOH2    23       MEOH2    O1       OD31H     2.48830       15.5990           0  -1.02800       1.30000    
       246 MEOH2    23       MEOH2    DO1      DRUD     -2.48830      0.400000           0   0.00000       0.00000    
       247 MEOH2    23       MEOH2    HO1      HDP1A    0.481000       1.00800           0   0.00000       0.00000    
       248 MEOH2    23       MEOH2    HO2      HDP1A    0.481000       1.00800           0   0.00000       0.00000    
       249 MEOH2    23       MEOH2    H1A      HDA3B    0.194000       1.00800           0   0.00000       0.00000    
       250 MEOH2    23       MEOH2    H1B      HDA3B    0.194000       1.00800           0   0.00000       0.00000    
       251 MEOH2    23       MEOH2    H1C      HDA3B    0.194000       1.00800           0   0.00000       0.00000    
       252 MEOH2    23       MEOH2    LP1A     LPD     -0.203000       0.00000          -1   0.00000       0.00000    
       253 MEOH2    23       MEOH2    LP1B     LPD     -0.203000       0.00000          -1   0.00000       0.00000    
       254 MEOH2    24       MEOH2    C1       CD33B     2.31610       11.6110           0  -1.00000       1.30000    
       255 MEOH2    24       MEOH2    DC1      DRUD     -2.45410      0.400000           0   0.00000       0.00000    
       256 MEOH2    24       MEOH2    O1       OD31H     2.48830       15.5990           0  -1.02800       1.30000    
       257 MEOH2    24       MEOH2    DO1      DRUD     -2.48830      0.400000           0   0.00000       0.00000    
       258 MEOH2    24       MEOH2    HO1      HDP1A    0.481000       1.00800           0   0.00000       0.00000    
       259 MEOH2    24       MEOH2    HO2      HDP1A    0.481000       1.00800           0   0.00000       0.00000    
       260 MEOH2    24       MEOH2    H1A      HDA3B    0.194000       1.00800           0   0.00000       0.00000    
       261 MEOH2    24       MEOH2    H1B      HDA3B    0.194000       1.00800           0   0.00000       0.00000    
       262 MEOH2    24       MEOH2    H1C      HDA3B    0.194000       1.00800           0   0.00000       0.00000    
       263 MEOH2    24       MEOH2    LP1A     LPD     -0.203000       0.00000          -1   0.00000       0.00000    
       264 MEOH2    24       MEOH2    LP1B     LPD     -0.203000       0.00000          -1   0.00000       0.00000    
       265 MEOH2    25       MEOH2    C1       CD33B     2.31610       11.6110           0  -1.00000       1.30000    
       266 MEOH2    25       MEOH2    DC1      DRUD     -2.45410      0.400000           0   0.00000       0.00000    
       267 MEOH2    25       MEOH2    O1       OD31H     2.48830       15.5990           0  -1.02800       1.30000    
       268 MEOH2    25       MEOH2    DO1      DRUD     -2.48830      0.400000           0   0.00000       0.00000    
       269 MEOH2    25       MEOH2    HO1      HDP1A    0.481000       1.00800           0   0.00000       0.00000    
       270 MEOH2    25       MEOH2    HO2      HDP1A    0.481000       1.00800           0   0.00000       0.00000    
       271 MEOH2    25       MEOH2    H1A      HDA3B    0.194000       1.00800           0   0.00000       0.00000    
       272 MEOH2    25       MEOH2    H1B      HDA3B    0.194000       1.00800           0   0.00000       0.00000    
       273 MEOH2    25       MEOH2    H1C      HDA3B    0.194000       1.00800           0   0.00000       0.00000    
       274 MEOH2    25       MEOH2    LP1A     LPD     -0.203000       0.00000          -1   0.00000       0.00000    
       275 MEOH2    25       MEOH2    LP1B     LPD     -0.203000       0.00000          -1   0.00000       0.00000    
       276 MEOH2    26       MEOH2    C1       CD33B     2.31610       11.6110           0  -1.00000       1.30000    
       277 MEOH2    26       MEOH2    DC1      DRUD     -2.45410      0.400000           0   0.00000       0.00000    
       278 MEOH2    26       MEOH2    O1       OD31H     2.48830       15.5990           0  -1.02800       1.30000    
       279 MEOH2    26       MEOH2    DO1      DRUD     -2.48830      0.400000           0   0.00000       0.00000    
       280 MEOH2    26       MEOH2    HO1      HDP1A    0.481000       1.00800           0   0.00000       0.00000    
       281 MEOH2    26       MEOH2    HO2      HDP1A    0.481000       1.00800           0   0.00000       0.00000    
       282 MEOH2    26       MEOH2    H1A      HDA3B    0.194000       1.00800           0   0.00000       0.00000    
       283 MEOH2    26       MEOH2    H1B      HDA3B    0.194000       1.00800           0   0.00000       0.00000    
       284 MEOH2    26       MEOH2    H1C      HDA3B    0.194000       1.00800           0   0.00000       0.00000    
       285 MEOH2    26       MEOH2    LP1A     LPD     -0.203000       0.00000          -1   0.00000       0.00000    
       286 MEOH2    26       MEOH2    LP1B     LPD     -0.203000       0.00000          -1   0.00000       0.00000    
       287 MEOH2    27       MEOH2    C1       CD33B     2.31610       11.6110           0  -1.00000       1.30000    
       288 MEOH2    27       MEOH2    DC1      DRUD     -2.45410      0.400000           0   0.00000       0.00000    
       289 MEOH2    27       MEOH2    O1       OD31H     2.48830       15.5990           0  -1.02800       1.30000    
       290 MEOH2    27       MEOH2    DO1      DRUD     -2.48830      0.400000           0   0.00000       0.00000    
       291 MEOH2    27       MEOH2    HO1      HDP1A    0.481000       1.00800           0   0.00000       0.00000    
       292 MEOH2    27       MEOH2    HO2      HDP1A    0.481000       1.00800           0   0.00000       0.00000    
       293 MEOH2    27       MEOH2    H1A      HDA3B    0.194000       1.00800           0   0.00000       0.00000    
       294 MEOH2    27       MEOH2    H1B      HDA3B    0.194000       1.00800           0   0.00000       0.00000    
       295 MEOH2    27       MEOH2    H1C      HDA3B    0.194000       1.00800           0   0.00000       0.00000    
       296 MEOH2    27       MEOH2    LP1A     LPD     -0.203000       0.00000          -1   0.00000       0.00000    
       297 MEOH2    27       MEOH2    LP1B     LPD     -0.203000       0.00000          -1   0.00000       0.00000    
       298 MEOH2    28       MEOH2    C1       CD33B     2.31610       11.6110           0  -1.00000       1.30000    
       299 MEOH2    28       MEOH2    DC1      DRUD     -2.45410      0.400000           0   0.00000       0.00000    
       300 MEOH2    28       MEOH2    O1       OD31H     2.48830       15.5990           0  -1.02800       1.30000    
       301 MEOH2    28       MEOH2    DO1      DRUD     -2.48830      0.400000           0   0.00000       0.00000    
       302 MEOH2    28       MEOH2    HO1      HDP1A    0.481000       1.00800           0   0.00000       0.00000    
       303 MEOH2    28       MEOH2    HO2      HDP1A    0.481000       1.00800           0   0.00000       0.00000    
       304 MEOH2    28       MEOH2    H1A      HDA3B    0.194000       1.00800           0   0.00000       0.00000    
       305 MEOH2    28       MEOH2    H1B      HDA3B    0.194000       1.00800           0   0.00000       0.00000    
       306 MEOH2    28       MEOH2    H1C      HDA3B    0.194000       1.00800           0   0.00000       0.00000    
       307 MEOH2    28       MEOH2    LP1A     LPD     -0.203000       0.00000          -1   0.00000       0.00000    
       308 MEOH2    28       MEOH2    LP1B     LPD     -0.203000       0.00000          -1   0.00000       0.00000    
       309 MEOH2    29       MEOH2    C1       CD33B     2.31610       11.6110           0  -1.00000       1.30000    
       310 MEOH2    29       MEOH2    DC1      DRUD     -2.45410      0.400000           0   0.00000       0.00000    
       311 MEOH2    29       MEOH2    O1       OD31H     2.48830       15.5990           0  -1.02800       1.30000    
       312 MEOH2    29       MEOH2    DO1      DRUD     -2.48830      0.400000           0   0.00000       0.00000    
       313 MEOH2    29       MEOH2    HO1      HDP1A    0.481000       1.00800           0   0.00000       0.00000    
       314 MEOH2    29       MEOH2    HO2      HDP1A    0.481000       1.00800           0   0.00000       0.00000    
       315 MEOH2    29       MEOH2    H1A      HDA3B    0.194000       1.00800           0   0.00000       0.00000    
       316 MEOH2    29       MEOH2    H1B      HDA3B    0.194000       1.00800           0   0.00000       0.00000    
       317 MEOH2    29       MEOH2    H1C      HDA3B    0.194000       1.00800           0   0.00000       0.00000    
       318 MEOH2    29       MEOH2    LP1A     LPD     -0.203000       0.00000          -1   0.00000       0.00000    
       319 MEOH2    29       MEOH2    LP1B     LPD     -0.203000       0.00000          -1   0.00000       0.00000    
       320 MEOH2    30       MEOH2    C1       CD33B     2.31610       11.6110           0  -1.00000       1.30000    
       321 MEOH2    30       MEOH2    DC1      DRUD     -2.45410      0.400000           0   0.00000       0.00000    
       322 MEOH2    30       MEOH2    O1       OD31H     2.48830       15.5990           0  -1.02800       1.30000    
       323 MEOH2    30       MEOH2    DO1      DRUD     -2.48830      0.400000           0   0.00000       0.00000    
       324 MEOH2    30       MEOH2    HO1      HDP1A    0.481000       1.00800           0   0.00000       0.00000    
       325 MEOH2    30       MEOH2    HO2      HDP1A    0.481000       1.00800           0   0.00000       0.00000    
       326 MEOH2    30       MEOH2    H1A      HDA3B    0.194000       1.00800           0   0.00000       0.00000    
       327 MEOH2    30       MEOH2    H1B      HDA3B    0.194000       1.00800           0   0.00000       0.00000    
       328 MEOH2    30       MEOH2    H1C      HDA3B    0.194000       1.00800           0   0.00000       0.00000    
       329 MEOH2    30       MEOH2    LP1A     LPD     -0.203000       0.00000          -1   0.00000       0.00000    
       330 MEOH2    30       MEOH2    LP1B     LPD     -0.203000       0.00000          -1   0.00000       0.00000    
       331 MEOH2    31       MEOH2    C1       CD33B     2.31610       11.6110           0  -1.00000       1.30000    
       332 MEOH2    31       MEOH2    DC1      DRUD     -2.45410      0.400000           0   0.00000       0.00000    
       333 MEOH2    31       MEOH2    O1       OD31H     2.48830       15.5990           0  -1.02800       1.30000    
       334 MEOH2    31       MEOH2    DO1      DRUD     -2.48830      0.400000           0   0.00000       0.00000    
       335 MEOH2    31       MEOH2    HO1      HDP1A    0.481000       1.00800           0   0.00000       0.00000    
       336 MEOH2    31       MEOH2    HO2      HDP1A    0.481000       1.00800           0   0.00000       0.00000    
       337 MEOH2    31       MEOH2    H1A      HDA3B    0.194000       1.00800           0   0.00000       0.00000    
       338 MEOH2    31       MEOH2    H1B      HDA3B    0.194000       1.00800           0   0.00000       0.00000    
       339 MEOH2    31       MEOH2    H1C      HDA3B    0.194000       1.00800           0   0.00000       0.00000    
       340 MEOH2    31       MEOH2    LP1A     LPD     -0.203000       0.00000          -1   0.00000       0.00000    
       341 MEOH2    31       MEOH2    LP1B     LPD     -0.203000       0.00000          -1   0.00000       0.00000    
       342 MEOH2    32       MEOH2    C1       CD33B     2.31610       11.6110           0  -1.00000       1.30000    
       343 MEOH2    32       MEOH2    DC1      DRUD     -2.45410      0.400000           0   0.00000       0.00000    
       344 MEOH2    32       MEOH2    O1       OD31H     2.48830       15.5990           0  -1.02800       1.30000    
       345 MEOH2    32       MEOH2    DO1      DRUD     -2.48830      0.400000           0   0.00000       0.00000    
       346 MEOH2    32       MEOH2    HO1      HDP1A    0.481000       1.00800           0   0.00000       0.00000    
       347 MEOH2    32       MEOH2    HO2      HDP1A    0.481000       1.00800           0   0.00000       0.00000    
       348 MEOH2    32       MEOH2    H1A      HDA3B    0.194000       1.00800           0   0.00000       0.00000    
       349 MEOH2    32       MEOH2    H1B      HDA3B    0.194000       1.00800           0   0.00000       0.00000    
       350 MEOH2    32       MEOH2    H1C      HDA3B    0.194000       1.00800           0   0.00000       0.00000    
       351 MEOH2    32       MEOH2    LP1A     LPD     -0.203000       0.00000          -1   0.00000       0.00000    
       352 MEOH2    32       MEOH2    LP1B     LPD     -0.203000       0.00000          -1   0.00000       0.00000    
       353 MEOH2    33       MEOH2    C1       CD33B     2.31610       11.6110           0  -1.00000       1.30000    
       354 MEOH2    33       MEOH2    DC1      DRUD     -2.45410      0.400000           0   0.00000       0.00000    
       355 MEOH2    33       MEOH2    O1       OD31H     2.48830       15.5990           0  -1.02800       1.30000    
       356 MEOH2    33       MEOH2    DO1      DRUD     -2.48830      0.400000           0   0.00000       0.00000    
       357 MEOH2    33       MEOH2    HO1      HDP1A    0.481000       1.00800           0   0.00000       0.00000    
       358 MEOH2    33       MEOH2    HO2      HDP1A    0.481000       1.00800           0   0.00000       0.00000    
       359 MEOH2    33       MEOH2    H1A      HDA3B    0.194000       1.00800           0   0.00000       0.00000    
       360 MEOH2    33       MEOH2    H1B      HDA3B    0.194000       1.00800           0   0.00000       0.00000    
       361 MEOH2    33       MEOH2    H1C      HDA3B    0.194000       1.00800           0   0.00000       0.00000    
       362 MEOH2    33       MEOH2    LP1A     LPD     -0.203000       0.00000          -1   0.00000       0.00000    
       363 MEOH2    33       MEOH2    LP1B     LPD     -0.203000       0.00000          -1   0.00000       0.00000    
       364 MEOH2    34       MEOH2    C1       CD33B     2.31610       11.6110           0  -1.00000       1.30000    
       365 MEOH2    34       MEOH2    DC1      DRUD     -2.45410      0.400000           0   0.00000       0.00000    
       366 MEOH2    34       MEOH2    O1       OD31H     2.48830       15.5990           0  -1.02800       1.30000    
       367 MEOH2    34       MEOH2    DO1      DRUD     -2.48830      0.400000           0   0.00000       0.00000    
       368 MEOH2    34       MEOH2    HO1      HDP1A    0.481000       1.00800           0   0.00000       0.00000    
       369 MEOH2    34       MEOH2    HO2      HDP1A    0.481000       1.00800           0   0.00000       0.00000    
       370 MEOH2    34       MEOH2    H1A      HDA3B    0.194000       1.00800           0   0.00000       0.00000    
       371 MEOH2    34       MEOH2    H1B      HDA3B    0.194000       1.00800           0   0.00000       0.00000    
       372 MEOH2    34       MEOH2    H1C      HDA3B    0.194000       1.00800           0   0.00000       0.00000    
       373 MEOH2    34       MEOH2    LP1A     LPD     -0.203000       0.00000          -1   0.00000       0.00000    
       374 MEOH2    34       MEOH2    LP1B     LPD     -0.203000       0.00000          -1   0.00000       0.00000    
       375 MEOH2    35       MEOH2    C1       CD33B     2.31610       11.6110           0  -1.00000       1.30000    
       376 MEOH2    35       MEOH2    DC1      DRUD     -2.45410      0.400000           0   0.00000       0.00000    
       377 MEOH2    35       MEOH2    O1       OD31H     2.48830       15.5990           0  -1.02800       1.30000    
       378 MEOH2    35       MEOH2    DO1      DRUD     -2.48830      0.400000           0   0.00000       0.00000    
       379 MEOH2    35       MEOH2    HO1      HDP1A    0.481000       1.00800           0   0.00000       0.00000    
       380 MEOH2    35       MEOH2    HO2      HDP1A    0.481000       1.00800           0   0.00000       0.00000    
       381 MEOH2    35       MEOH2    H1A      HDA3B    0.194000       1.00800           0   0.00000       0.00000    
       382 MEOH2    35       MEOH2    H1B      HDA3B    0.194000       1.00800           0   0.00000       0.00000    
       383 MEOH2    35       MEOH2    H1C      HDA3B    0.194000       1.00800           0   0.00000       0.00000    
       384 MEOH2    35       MEOH2    LP1A     LPD     -0.203000       0.00000          -1   0.00000       0.00000    
       385 MEOH2    35       MEOH2    LP1B     LPD     -0.203000       0.00000          -1   0.00000       0.00000    
       386 MEOH2    36       MEOH2    C1       CD33B     2.31610       11.6110           0  -1.00000       1.30000    
       387 MEOH2    36       MEOH2    DC1      DRUD     -2.45410      0.400000           0   0.00000       0.00000    
       388 MEOH2    36       MEOH2    O1       OD31H     2.48830       15.5990           0  -1.02800       1.30000    
       389 MEOH2    36       MEOH2    DO1      DRUD     -2.48830      0.400000           0   0.00000       0.00000    
       390 MEOH2    36       MEOH2    HO1      HDP1A    0.481000       1.00800           0   0.00000       0.00000    
       391 MEOH2    36       MEOH2    HO2      HDP1A    0.481000       1.00800           0   0.00000       0.00000    
       392 MEOH2    36       MEOH2    H1A      HDA3B    0.194000       1.00800           0   0.00000       0.00000    
       393 MEOH2    36       MEOH2    H1B      HDA3B    0.194000       1.00800           0   0.00000       0.00000    
       394 MEOH2    36       MEOH2    H1C      HDA3B    0.194000       1.00800           0   0.00000       0.00000    
       395 MEOH2    36       MEOH2    LP1A     LPD     -0.203000       0.00000          -1   0.00000       0.00000    
       396 MEOH2    36       MEOH2    LP1B     LPD     -0.203000       0.00000          -1   0.00000       0.00000    
       397 MEOH2    37       MEOH2    C1       CD33B     2.31610       11.6110           0  -1.00000       1.30000    
       398 MEOH2    37       MEOH2    DC1      DRUD     -2.45410      0.400000           0   0.00000       0.00000    
       399 MEOH2    37       MEOH2    O1       OD31H     2.48830       15.5990           0  -1.02800       1.30000    
       400 MEOH2    37       MEOH2    DO1      DRUD     -2.48830      0.400000           0   0.00000       0.00000    
       401 MEOH2    37       MEOH2    HO1      HDP1A    0.481000       1.00800           0   0.00000       0.00000    
       402 MEOH2    37       MEOH2    HO2      HDP1A    0.481000       1.00800           0   0.00000       0.00000    
       403 MEOH2    37       MEOH2    H1A      HDA3B    0.194000       1.00800           0   0.00000       0.00000    
       404 MEOH2    37       MEOH2    H1B      HDA3B    0.194000       1.00800           0   0.00000       0.00000    
       405 MEOH2    37       MEOH2    H1C      HDA3B    0.194000       1.00800           0   0.00000       0.00000    
       406 MEOH2    37       MEOH2    LP1A     LPD     -0.203000       0.00000          -1   0.00000       0.00000    
       407 MEOH2    37       MEOH2    LP1B     LPD     -0.203000       0.00000          -1   0.00000       0.00000    
       408 MEOH2    38       MEOH2    C1       CD33B     2.31610       11.6110           0  -1.00000       1.30000    
       409 MEOH2    38       MEOH2    DC1      DRUD     -2.45410      0.400000           0   0.00000       0.00000    
       410 MEOH2    38       MEOH2    O1       OD31H     2.48830       15.5990           0  -1.02800       1.30000    
       411 MEOH2    38       MEOH2    DO1      DRUD     -2.48830      0.400000           0   0.00000       0.00000    
       412 MEOH2    38       MEOH2    HO1      HDP1A    0.481000       1.00800           0   0.00000       0.00000    
       413 MEOH2    38       MEOH2    HO2      HDP1A    0.481000       1.00800           0   0.00000       0.00000    
       414 MEOH2    38       MEOH2    H1A      HDA3B    0.194000       1.00800           0   0.00000       0.00000    
       415 MEOH2    38       MEOH2    H1B      HDA3B    0.194000       1.00800           0   0.00000       0.00000    
       416 MEOH2    38       MEOH2    H1C      HDA3B    0.194000       1.00800           0   0.00000       0.00000    
       417 MEOH2    38       MEOH2    LP1A     LPD     -0.203000       0.00000          -1   0.00000       0.00000    
       418 MEOH2    38       MEOH2    LP1B     LPD     -0.203000       0.00000          -1   0.00000       0.00000    
       419 MEOH2    39       MEOH2    C1       CD33B     2.31610       11.6110           0  -1.00000       1.30000    
       420 MEOH2    39       MEOH2    DC1      DRUD     -2.45410      0.400000           0   0.00000       0.00000    
       421 MEOH2    39       MEOH2    O1       OD31H     2.48830       15.5990           0  -1.02800       1.30000    
       422 MEOH2    39       MEOH2    DO1      DRUD     -2.48830      0.400000           0   0.00000       0.00000    
       423 MEOH2    39       MEOH2    HO1      HDP1A    0.481000       1.00800           0   0.00000       0.00000    
       424 MEOH2    39       MEOH2    HO2      HDP1A    0.481000       1.00800           0   0.00000       0.00000    
       425 MEOH2    39       MEOH2    H1A      HDA3B    0.194000       1.00800           0   0.00000       0.00000    
       426 MEOH2    39       MEOH2    H1B      HDA3B    0.194000       1.00800           0   0.00000       0.00000    
       427 MEOH2    39       MEOH2    H1C      HDA3B    0.194000       1.00800           0   0.00000       0.00000    
       428 MEOH2    39       MEOH2    LP1A     LPD     -0.203000       0.00000          -1   0.00000       0.00000    
       429 MEOH2    39       MEOH2    LP1B     LPD     -0.203000       0.00000          -1   0.00000       0.00000    
       430 MEOH2    40       MEOH2    C1       CD33B     2.31610       11.6110           0  -1.00000       1.30000    
       431 MEOH2    40       MEOH2    DC1      DRUD     -2.45410      0.400000           0   0.00000       0.00000    
       432 MEOH2    40       MEOH2    O1       OD31H     2.48830       15.5990           0  -1.02800       1.30000    
       433 MEOH2    40       MEOH2    DO1      DRUD     -2.48830      0.400000           0   0.00000       0.00000    
       434 MEOH2    40       MEOH2    HO1      HDP1A    0.481000       1.00800           0   0.00000       0.00000    
       435 MEOH2    40       MEOH2    HO2      HDP1A    0.481000       1.00800           0   0.00000       0.00000    
       436 MEOH2    40       MEOH2    H1A      HDA3B    0.194000       1.00800           0   0.00000       0.00000    
       437 MEOH2    40       MEOH2    H1B      HDA3B    0.194000       1.00800           0   0.00000       0.00000    
       438 MEOH2    40       MEOH2    H1C      HDA3B    0.194000       1.00800           0   0.00000       0.00000    
       439 MEOH2    40       MEOH2    LP1A     LPD     -0.203000       0.00000          -1   0.00000       0.00000    
       440 MEOH2    40       MEOH2    LP1B     LPD     -0.203000       0.00000          -1   0.00000       0.00000    
       441 MEOH2    41       MEOH2    C1       CD33B     2.31610       11.6110           0  -1.00000       1.30000    
       442 MEOH2    41       MEOH2    DC1      DRUD     -2.45410      0.400000           0   0.00000       0.00000    
       443 MEOH2    41       MEOH2    O1       OD31H     2.48830       15.5990           0  -1.02800       1.30000    
       444 MEOH2    41       MEOH2    DO1      DRUD     -2.48830      0.400000           0   0.00000       0.00000    
       445 MEOH2    41       MEOH2    HO1      HDP1A    0.481000       1.00800           0   0.00000       0.00000    
       446 MEOH2    41       MEOH2    HO2      HDP1A    0.481000       1.00800           0   0.00000       0.00000    
       447 MEOH2    41       MEOH2    H1A      HDA3B    0.194000       1.00800           0   0.00000       0.00000    
       448 MEOH2    41       MEOH2    H1B      HDA3B    0.194000       1.00800           0   0.00000       0.00000    
       449 MEOH2    41       MEOH2    H1C      HDA3B    0.194000       1.00800           0   0.00000       0.00000    
       450 MEOH2    41       MEOH2    LP1A     LPD     -0.203000       0.00000          -1   0.00000       0.00000    
       451 MEOH2    41       MEOH2    LP1B     LPD     -0.203000       0.00000          -1   0.00000       0.00000    
       452 MEOH2    42       MEOH2    C1       CD33B     2.31610       11.6110           0  -1.00000       1.30000    
       453 MEOH2    42       MEOH2    DC1      DRUD     -2.45410      0.400000           0   0.00000       0.00000    
       454 MEOH2    42       MEOH2    O1       OD31H     2.48830       15.5990           0  -1.02800       1.30000    
       455 MEOH2    42       MEOH2    DO1      DRUD     -2.48830      0.400000           0   0.00000       0.00000    
       456 MEOH2    42       MEOH2    HO1      HDP1A    0.481000       1.00800           0   0.00000       0.00000    
       457 MEOH2    42       MEOH2    HO2      HDP1A    0.481000       1.00800           0   0.00000       0.00000    
       458 MEOH2    42       MEOH2    H1A      HDA3B    0.194000       1.00800           0   0.00000       0.00000    
       459 MEOH2    42       MEOH2    H1B      HDA3B    0.194000       1.00800           0   0.00000       0.00000    
       460 MEOH2    42       MEOH2    H1C      HDA3B    0.194000       1.00800           0   0.00000       0.00000    
       461 MEOH2    42       MEOH2    LP1A     LPD     -0.203000       0.00000          -1   0.00000       0.00000    
       462 MEOH2    42       MEOH2    LP1B     LPD     -0.203000       0.00000          -1   0.00000       0.00000    
       463 MEOH2    43       MEOH2    C1       CD33B     2.31610       11.6110           0  -1.00000       1.30000    
       464 MEOH2    43       MEOH2    DC1      DRUD     -2.45410      0.400000           0   0.00000       0.00000    
       465 MEOH2    43       MEOH2    O1       OD31H     2.48830       15.5990           0  -1.02800       1.30000    
       466 MEOH2    43       MEOH2    DO1      DRUD     -2.48830      0.400000           0   0.00000       0.00000    
       467 MEOH2    43       MEOH2    HO1      HDP1A    0.481000       1.00800           0   0.00000       0.00000    
       468 MEOH2    43       MEOH2    HO2      HDP1A    0.481000       1.00800           0   0.00000       0.00000    
       469 MEOH2    43       MEOH2    H1A      HDA3B    0.194000       1.00800           0   0.00000       0.00000    
       470 MEOH2    43       MEOH2    H1B      HDA3B    0.194000       1.00800           0   0.00000       0.00000    
       471 MEOH2    43       MEOH2    H1C      HDA3B    0.194000       1.00800           0   0.00000       0.00000    
       472 MEOH2    43       MEOH2    LP1A     LPD     -0.203000       0.00000          -1   0.00000       0.00000    
       473 MEOH2    43       MEOH2    LP1B     LPD     -0.203000       0.00000          -1   0.00000       0.00000    
       474 MEOH2    44       MEOH2    C1       CD33B     2.31610       11.6110           0  -1.00000       1.30000    
       475 MEOH2    44       MEOH2    DC1      DRUD     -2.45410      0.400000           0   0.00000       0.00000    
       476 MEOH2    44       MEOH2    O1       OD31H     2.48830       15.5990           0  -1.02800       1.30000    
       477 MEOH2    44       MEOH2    DO1      DRUD     -2.48830      0.400000           0   0.00000       0.00000    
       478 MEOH2    44       MEOH2    HO1      HDP1A    0.481000       1.00800           0   0.00000       0.00000    
       479 MEOH2    44       MEOH2    HO2      HDP1A    0.481000       1.00800           0   0.00000       0.00000    
       480 MEOH2    44       MEOH2    H1A      HDA3B    0.194000       1.00800           0   0.00000       0.00000    
       481 MEOH2    44       MEOH2    H1B      HDA3B    0.194000       1.00800           0   0.00000       0.00000    
       482 MEOH2    44       MEOH2    H1C      HDA3B    0.194000       1.00800           0   0.00000       0.00000    
       483 MEOH2    44       MEOH2    LP1A     LPD     -0.203000       0.00000          -1   0.00000       0.00000    
       484 MEOH2    44       MEOH2    LP1B     LPD     -0.203000       0.00000          -1   0.00000       0.00000    
       485 MEOH2    45       MEOH2    C1       CD33B     2.31610       11.6110           0  -1.00000       1.30000    
       486 MEOH2    45       MEOH2    DC1      DRUD     -2.45410      0.400000           0   0.00000       0.00000    
       487 MEOH2    45       MEOH2    O1       OD31H     2.48830       15.5990           0  -1.02800       1.30000    
       488 MEOH2    45       MEOH2    DO1      DRUD     -2.48830      0.400000           0   0.00000       0.00000    
       489 MEOH2    45       MEOH2    HO1      HDP1A    0.481000       1.00800           0   0.00000       0.00000    
       490 MEOH2    45       MEOH2    HO2      HDP1A    0.481000       1.00800           0   0.00000       0.00000    
       491 MEOH2    45       MEOH2    H1A      HDA3B    0.194000       1.00800           0   0.00000       0.00000    
       492 MEOH2    45       MEOH2    H1B      HDA3B    0.194000       1.00800           0   0.00000       0.00000    
       493 MEOH2    45       MEOH2    H1C      HDA3B    0.194000       1.00800           0   0.00000       0.00000    
       494 MEOH2    45       MEOH2    LP1A     LPD     -0.203000       0.00000          -1   0.00000       0.00000    
       495 MEOH2    45       MEOH2    LP1B     LPD     -0.203000       0.00000          -1   0.00000       0.00000    
       496 MEOH2    46       MEOH2    C1       CD33B     2.31610       11.6110           0  -1.00000       1.30000    
       497 MEOH2    46       MEOH2    DC1      DRUD     -2.45410      0.400000           0   0.00000       0.00000    
       498 MEOH2    46       MEOH2    O1       OD31H     2.48830       15.5990           0  -1.02800       1.30000    
       499 MEOH2    46       MEOH2    DO1      DRUD     -2.48830      0.400000           0   0.00000       0.00000    
       500 MEOH2    46       MEOH2    HO1      HDP1A    0.481000       1.00800           0   0.00000       0.00000    
       501 MEOH2    46       MEOH2    HO2      HDP1A    0.481000       1.00800           0   0.00000       0.00000    
       502 MEOH2    46       MEOH2    H1A      HDA3B    0.194000       1.00800           0   0.00000       0.00000    
       503 MEOH2    46       MEOH2    H1B      HDA3B    0.194000       1.00800           0   0.00000       0.00000    
       504 MEOH2    46       MEOH2    H1C      HDA3B    0.194000       1.00800           0   0.00000       0.00000    
       505 MEOH2    46       MEOH2    LP1A     LPD     -0.203000       0.00000          -1   0.00000       0.00000    
       506 MEOH2    46       MEOH2    LP1B     LPD     -0.203000       0.00000          -1   0.00000       0.00000    
       507 MEOH2    47       MEOH2    C1       CD33B     2.31610       11.6110           0  -1.00000       1.30000    
       508 MEOH2    47       MEOH2    DC1      DRUD     -2.45410      0.400000           0   0.00000       0.00000    
       509 MEOH2    47       MEOH2    O1       OD31H     2.48830       15.5990           0  -1.02800       1.30000    
       510 MEOH2    47       MEOH2    DO1      DRUD     -2.48830      0.400000           0   0.00000       0.00000    
       511 MEOH2    47       MEOH2    HO1      HDP1A    0.481000       1.00800           0   0.00000       0.00000    
       512 MEOH2    47       MEOH2    HO2      HDP1A    0.481000       1.00800           0   0.00000       0.00000    
       513 MEOH2    47       MEOH2    H1A      HDA3B    0.194000       1.00800           0   0.00000       0.00000    
       514 MEOH2    47       MEOH2    H1B      HDA3B    0.194000       1.00800           0   0.00000       0.00000    
       515 MEOH2    47       MEOH2    H1C      HDA3B    0.194000       1.00800           0   0.00000       0.00000    
       516 MEOH2    47       MEOH2    LP1A     LPD     -0.203000       0.00000          -1   0.00000       0.00000    
       517 MEOH2    47       MEOH2    LP1B     LPD     -0.203000       0.00000          -1   0.00000       0.00000    
       518 MEOH2    48       MEOH2    C1       CD33B     2.31610       11.6110           0  -1.00000       1.30000    
       519 MEOH2    48       MEOH2    DC1      DRUD     -2.45410      0.400000           0   0.00000       0.00000    
       520 MEOH2    48       MEOH2    O1       OD31H     2.48830       15.5990           0  -1.02800       1.30000    
       521 MEOH2    48       MEOH2    DO1      DRUD     -2.48830      0.400000           0   0.00000       0.00000    
       522 MEOH2    48       MEOH2    HO1      HDP1A    0.481000       1.00800           0   0.00000       0.00000    
       523 MEOH2    48       MEOH2    HO2      HDP1A    0.481000       1.00800           0   0.00000       0.00000    
       524 MEOH2    48       MEOH2    H1A      HDA3B    0.194000       1.00800           0   0.00000       0.00000    
       525 MEOH2    48       MEOH2    H1B      HDA3B    0.194000       1.00800           0   0.00000       0.00000    
       526 MEOH2    48       MEOH2    H1C      HDA3B    0.194000       1.00800           0   0.00000       0.00000    
       527 MEOH2    48       MEOH2    LP1A     LPD     -0.203000       0.00000          -1   0.00000       0.00000    
       528 MEOH2    48       MEOH2    LP1B     LPD     -0.203000       0.00000          -1   0.00000       0.00000    
       529 MEOH2    49       MEOH2    C1       CD33B     2.31610       11.6110           0  -1.00000       1.30000    
       530 MEOH2    49       MEOH2    DC1      DRUD     -2.45410      0.400000           0   0.00000       0.00000    
       531 MEOH2    49       MEOH2    O1       OD31H     2.48830       15.5990           0  -1.02800       1.30000    
       532 MEOH2    49       MEOH2    DO1      DRUD     -2.48830      0.400000           0   0.00000       0.00000    
       533 MEOH2    49       MEOH2    HO1      HDP1A    0.481000       1.00800           0   0.00000       0.00000    
       534 MEOH2    49       MEOH2    HO2      HDP1A    0.481000       1.00800           0   0.00000       0.00000    
       535 MEOH2    49       MEOH2    H1A      HDA3B    0.194000       1.00800           0   0.00000       0.00000    
       536 MEOH2    49       MEOH2    H1B      HDA3B    0.194000       1.00800           0   0.00000       0.00000    
       537 MEOH2    49       MEOH2    H1C      HDA3B    0.194000       1.00800           0   0.00000       0.00000    
       538 MEOH2    49       MEOH2    LP1A     LPD     -0.203000       0.00000          -1   0.00000       0.00000    
       539 MEOH2    49       MEOH2    LP1B     LPD     -0.203000       0.00000          -1   0.00000       0.00000    
       540 MEOH2    50       MEOH2    C1       CD33B     2.31610       11.6110           0  -1.00000       1.30000    
       541 MEOH2    50       MEOH2    DC1      DRUD     -2.45410      0.400000           0   0.00000       0.00000    
       542 MEOH2    50       MEOH2    O1       OD31H     2.48830       15.5990           0  -1.02800       1.30000    
       543 MEOH2    50       MEOH2    DO1      DRUD     -2.48830      0.400000           0   0.00000       0.00000    
       544 MEOH2    50       MEOH2    HO1      HDP1A    0.481000       1.00800           0   0.00000       0.00000    
       545 MEOH2    50       MEOH2    HO2      HDP1A    0.481000       1.00800           0   0.00000       0.00000    
       546 MEOH2    50       MEOH2    H1A      HDA3B    0.194000       1.00800           0   0.00000       0.00000    
       547 MEOH2    50       MEOH2    H1B      HDA3B    0.194000       1.00800           0   0.00000       0.00000    
       548 MEOH2    50       MEOH2    H1C      HDA3B    0.194000       1.00800           0   0.00000       0.00000    
       549 MEOH2    50       MEOH2    LP1A     LPD     -0.203000       0.00000          -1   0.00000       0.00000    
       550 MEOH2    50       MEOH2    LP1B     LPD     -0.203000       0.00000          -1   0.00000       0.00000    
       551 MEOH2    51       MEOH2    C1       CD33B     2.31610       11.6110           0  -1.00000       1.30000    
       552 MEOH2    51       MEOH2    DC1      DRUD     -2.45410      0.400000           0   0.00000       0.00000    
       553 MEOH2    51       MEOH2    O1       OD31H     2.48830       15.5990           0  -1.02800       1.30000    
       554 MEOH2    51       MEOH2    DO1      DRUD     -2.48830      0.400000           0   0.00000       0.00000    
       555 MEOH2    51       MEOH2    HO1      HDP1A    0.481000       1.00800           0   0.00000       0.00000    
       556 MEOH2    51       MEOH2    HO2      HDP1A    0.481000       1.00800           0   0.00000       0.00000    
       557 MEOH2    51       MEOH2    H1A      HDA3B    0.194000       1.00800           0   0.00000       0.00000    
       558 MEOH2    51       MEOH2    H1B      HDA3B    0.194000       1.00800           0   0.00000       0.00000    
       559 MEOH2    51       MEOH2    H1C      HDA3B    0.194000       1.00800           0   0.00000       0.00000    
       560 MEOH2    51       MEOH2    LP1A     LPD     -0.203000       0.00000          -1   0.00000       0.00000    
       561 MEOH2    51       MEOH2    LP1B     LPD     -0.203000       0.00000          -1   0.00000       0.00000    
       562 MEOH2    52       MEOH2    C1       CD33B     2.31610       11.6110           0  -1.00000       1.30000    
       563 MEOH2    52       MEOH2    DC1      DRUD     -2.45410      0.400000           0   0.00000       0.00000    
       564 MEOH2    52       MEOH2    O1       OD31H     2.48830       15.5990           0  -1.02800       1.30000    
       565 MEOH2    52       MEOH2    DO1      DRUD     -2.48830      0.400000           0   0.00000       0.00000    
       566 MEOH2    52       MEOH2    HO1      HDP1A    0.481000       1.00800           0   0.00000       0.00000    
       567 MEOH2    52       MEOH2    HO2      HDP1A    0.481000       1.00800           0   0.00000       0.00000    
       568 MEOH2    52       MEOH2    H1A      HDA3B    0.194000       1.00800           0   0.00000       0.00000    
       569 MEOH2    52       MEOH2    H1B      HDA3B    0.194000       1.00800           0   0.00000       0.00000    
       570 MEOH2    52       MEOH2    H1C      HDA3B    0.194000       1.00800           0   0.00000       0.00000    
       571 MEOH2    52       MEOH2    LP1A     LPD     -0.203000       0.00000          -1   0.00000       0.00000    
       572 MEOH2    52       MEOH2    LP1B     LPD     -0.203000       0.00000          -1   0.00000       0.00000    
       573 MEOH2    53       MEOH2    C1       CD33B     2.31610       11.6110           0  -1.00000       1.30000    
       574 MEOH2    53       MEOH2    DC1      DRUD     -2.45410      0.400000           0   0.00000       0.00000    
       575 MEOH2    53       MEOH2    O1       OD31H     2.48830       15.5990           0  -1.02800       1.30000    
       576 MEOH2    53       MEOH2    DO1      DRUD     -2.48830      0.400000           0   0.00000       0.00000    
       577 MEOH2    53       MEOH2    HO1      HDP1A    0.481000       1.00800           0   0.00000       0.00000    
       578 MEOH2    53       MEOH2    HO2      HDP1A    0.481000       1.00800           0   0.00000       0.00000    
       579 MEOH2    53       MEOH2    H1A      HDA3B    0.194000       1.00800           0   0.00000       0.00000    
       580 MEOH2    53       MEOH2    H1B      HDA3B    0.194000       1.00800           0   0.00000       0.00000    
       581 MEOH2    53       MEOH2    H1C      HDA3B    0.194000       1.00800           0   0.00000       0.00000    
       582 MEOH2    53       MEOH2    LP1A     LPD     -0.203000       0.00000          -1   0.00000       0.00000    
       583 MEOH2    53       MEOH2    LP1B     LPD     -0.203000       0.00000          -1   0.00000       0.00000    
       584 MEOH2    54       MEOH2    C1       CD33B     2.31610       11.6110           0  -1.00000       1.30000    
       585 MEOH2    54       MEOH2    DC1      DRUD     -2.45410      0.400000           0   0.00000       0.00000    
       586 MEOH2    54       MEOH2    O1       OD31H     2.48830       15.5990           0  -1.02800       1.30000    
       587 MEOH2    54       MEOH2    DO1      DRUD     -2.48830      0.400000           0   0.00000       0.00000    
       588 MEOH2    54       MEOH2    HO1      HDP1A    0.481000       1.00800           0   0.00000       0.00000    
       589 MEOH2    54       MEOH2    HO2      HDP1A    0.481000       1.00800           0   0.00000       0.00000    
       590 MEOH2    54       MEOH2    H1A      HDA3B    0.194000       1.00800           0   0.00000       0.00000    
       591 MEOH2    54       MEOH2    H1B      HDA3B    0.194000       1.00800           0   0.00000       0.00000    
       592 MEOH2    54       MEOH2    H1C      HDA3B    0.194000       1.00800           0   0.00000       0.00000    
       593 MEOH2    54       MEOH2    LP1A     LPD     -0.203000       0.00000          -1   0.00000       0.00000    
       594 MEOH2    54       MEOH2    LP1B     LPD     -0.203000       0.00000          -1   0.00000       0.00000    
       595 MEOH2    55       MEOH2    C1       CD33B     2.31610       11.6110           0  -1.00000       1.30000    
       596 MEOH2    55       MEOH2    DC1      DRUD     -2.45410      0.400000           0   0.00000       0.00000    
       597 MEOH2    55       MEOH2    O1       OD31H     2.48830       15.5990           0  -1.02800       1.30000    
       598 MEOH2    55       MEOH2    DO1      DRUD     -2.48830      0.400000           0   0.00000       0.00000    
       599 MEOH2    55       MEOH2    HO1      HDP1A    0.481000       1.00800           0   0.00000       0.00000    
       600 MEOH2    55       MEOH2    HO2      HDP1A    0.481000       1.00800           0   0.00000       0.00000    
       601 MEOH2    55       MEOH2    H1A      HDA3B    0.194000       1.00800           0   0.00000       0.00000    
       602 MEOH2    55       MEOH2    H1B      HDA3B    0.194000       1.00800           0   0.00000       0.00000    
       603 MEOH2    55       MEOH2    H1C      HDA3B    0.194000       1.00800           0   0.00000       0.00000    
       604 MEOH2    55       MEOH2    LP1A     LPD     -0.203000       0.00000          -1   0.00000       0.00000    
       605 MEOH2    55       MEOH2    LP1B     LPD     -0.203000       0.00000          -1   0.00000       0.00000    
       606 MEOH2    56       MEOH2    C1       CD33B     2.31610       11.6110           0  -1.00000       1.30000    
       607 MEOH2    56       MEOH2    DC1      DRUD     -2.45410      0.400000           0   0.00000       0.00000    
       608 MEOH2    56       MEOH2    O1       OD31H     2.48830       15.5990           0  -1.02800       1.30000    
       609 MEOH2    56       MEOH2    DO1      DRUD     -2.48830      0.400000           0   0.00000       0.00000    
       610 MEOH2    56       MEOH2    HO1      HDP1A    0.481000       1.00800           0   0.00000       0.00000    
       611 MEOH2    56       MEOH2    HO2      HDP1A    0.481000       1.00800           0   0.00000       0.00000    
       612 MEOH2    56       MEOH2    H1A      HDA3B    0.194000       1.00800           0   0.00000       0.00000    
       613 MEOH2    56       MEOH2    H1B      HDA3B    0.194000       1.00800           0   0.00000       0.00000    
       614 MEOH2    56       MEOH2    H1C      HDA3B    0.194000       1.00800           0   0.00000       0.00000    
       615 MEOH2    56       MEOH2    LP1A     LPD     -0.203000       0.00000          -1   0.00000       0.00000    
       616 MEOH2    56       MEOH2    LP1B     LPD     -0.203000       0.00000          -1   0.00000       0.00000    
       617 MEOH2    57       MEOH2    C1       CD33B     2.31610       11.6110           0  -1.00000       1.30000    
       618 MEOH2    57       MEOH2    DC1      DRUD     -2.45410      0.400000           0   0.00000       0.00000    
       619 MEOH2    57       MEOH2    O1       OD31H     2.48830       15.5990           0  -1.02800       1.30000    
       620 MEOH2    57       MEOH2    DO1      DRUD     -2.48830      0.400000           0   0.00000       0.00000    
       621 MEOH2    57       MEOH2    HO1      HDP1A    0.481000       1.00800           0   0.00000       0.00000    
       622 MEOH2    57       MEOH2    HO2      HDP1A    0.481000       1.00800           0   0.00000       0.00000    
       623 MEOH2    57       MEOH2    H1A      HDA3B    0.194000       1.00800           0   0.00000       0.00000    
       624 MEOH2    57       MEOH2    H1B      HDA3B    0.194000       1.00800           0   0.00000       0.00000    
       625 MEOH2    57       MEOH2    H1C      HDA3B    0.194000       1.00800           0   0.00000       0.00000    
       626 MEOH2    57       MEOH2    LP1A     LPD     -0.203000       0.00000          -1   0.00000       0.00000    
       627 MEOH2    57       MEOH2    LP1B     LPD     -0.203000       0.00000          -1   0.00000       0.00000    
       628 MEOH2    58       MEOH2    C1       CD33B     2.31610       11.6110           0  -1.00000       1.30000    
       629 MEOH2    58       MEOH2    DC1      DRUD     -2.45410      0.400000           0   0.00000       0.00000    
       630 MEOH2    58       MEOH2    O1       OD31H     2.48830       15.5990           0  -1.02800       1.30000    
       631 MEOH2    58       MEOH2    DO1      DRUD     -2.48830      0.400000           0   0.00000       0.00000    
       632 MEOH2    58       MEOH2    HO1      HDP1A    0.481000       1.00800           0   0.00000       0.00000    
       633 MEOH2    58       MEOH2    HO2      HDP1A    0.481000       1.00800           0   0.00000       0.00000    
       634 MEOH2    58       MEOH2    H1A      HDA3B    0.194000       1.00800           0   0.00000       0.00000    
       635 MEOH2    58       MEOH2    H1B      HDA3B    0.194000       1.00800           0   0.00000       0.00000    
       636 MEOH2    58       MEOH2    H1C      HDA3B    0.194000       1.00800           0   0.00000       0.00000    
       637 MEOH2    58       MEOH2    LP1A     LPD     -0.203000       0.00000          -1   0.00000       0.00000    
       638 MEOH2    58       MEOH2    LP1B     LPD     -0.203000       0.00000          -1   0.00000       0.00000    
       639 MEOH2    59       MEOH2    C1       CD33B     2.31610       11.6110           0  -1.00000       1.30000    
       640 MEOH2    59       MEOH2    DC1      DRUD     -2.45410      0.400000           0   0.00000       0.00000    
       641 MEOH2    59       MEOH2    O1       OD31H     2.48830       15.5990           0  -1.02800       1.30000    
       642 MEOH2    59       MEOH2    DO1      DRUD     -2.48830      0.400000           0   0.00000       0.00000    
       643 MEOH2    59       MEOH2    HO1      HDP1A    0.481000       1.00800           0   0.00000       0.00000    
       644 MEOH2    59       MEOH2    HO2      HDP1A    0.481000       1.00800           0   0.00000       0.00000    
       645 MEOH2    59       MEOH2    H1A      HDA3B    0.194000       1.00800           0   0.00000       0.00000    
       646 MEOH2    59       MEOH2    H1B      HDA3B    0.194000       1.00800           0   0.00000       0.00000    
       647 MEOH2    59       MEOH2    H1C      HDA3B    0.194000       1.00800           0   0.00000       0.00000    
       648 MEOH2    59       MEOH2    LP1A     LPD     -0.203000       0.00000          -1   0.00000       0.00000    
       649 MEOH2    59       MEOH2    LP1B     LPD     -0.203000       0.00000          -1   0.00000       0.00000    
       650 MEOH2    60       MEOH2    C1       CD33B     2.31610       11.6110           0  -1.00000       1.30000    
       651 MEOH2    60       MEOH2    DC1      DRUD     -2.45410      0.400000           0   0.00000       0.00000    
       652 MEOH2    60       MEOH2    O1       OD31H     2.48830       15.5990           0  -1.02800       1.30000    
       653 MEOH2    60       MEOH2    DO1      DRUD     -2.48830      0.400000           0   0.00000       0.00000    
       654 MEOH2    60       MEOH2    HO1      HDP1A    0.481000       1.00800           0   0.00000       0.00000    
       655 MEOH2    60       MEOH2    HO2      HDP1A    0.481000       1.00800           0   0.00000       0.00000    
       656 MEOH2    60       MEOH2    H1A      HDA3B    0.194000       1.00800           0   0.00000       0.00000    
       657 MEOH2    60       MEOH2    H1B      HDA3B    0.194000       1.00800           0   0.00000       0.00000    
       658 MEOH2    60       MEOH2    H1C      HDA3B    0.194000       1.00800           0   0.00000       0.00000    
       659 MEOH2    60       MEOH2    LP1A     LPD     -0.203000       0.00000          -1   0.00000       0.00000    
       660 MEOH2    60       MEOH2    LP1B     LPD     -0.203000       0.00000          -1   0.00000       0.00000    
       661 MEOH2    61       MEOH2    C1       CD33B     2.31610       11.6110           0  -1.00000       1.30000    
       662 MEOH2    61       MEOH2    DC1      DRUD     -2.45410      0.400000           0   0.00000       0.00000    
       663 MEOH2    61       MEOH2    O1       OD31H     2.48830       15.5990           0  -1.02800       1.30000    
       664 MEOH2    61       MEOH2    DO1      DRUD     -2.48830      0.400000           0   0.00000       0.00000    
       665 MEOH2    61       MEOH2    HO1      HDP1A    0.481000       1.00800           0   0.00000       0.00000    
       666 MEOH2    61       MEOH2    HO2      HDP1A    0.481000       1.00800           0   0.00000       0.00000    
       667 MEOH2    61       MEOH2    H1A      HDA3B    0.194000       1.00800           0   0.00000       0.00000    
       668 MEOH2    61       MEOH2    H1B      HDA3B    0.194000       1.00800           0   0.00000       0.00000    
       669 MEOH2    61       MEOH2    H1C      HDA3B    0.194000       1.00800           0   0.00000       0.00000    
       670 MEOH2    61       MEOH2    LP1A     LPD     -0.203000       0.00000          -1   0.00000       0.00000    
       671 MEOH2    61       MEOH2    LP1B     LPD     -0.203000       0.00000          -1   0.00000       0.00000    
       672 MEOH2    62       MEOH2    C1       CD33B     2.31610       11.6110           0  -1.00000       1.30000    
       673 MEOH2    62       MEOH2    DC1      DRUD     -2.45410      0.400000           0   0.00000       0.00000    
       674 MEOH2    62       MEOH2    O1       OD31H     2.48830       15.5990           0  -1.02800       1.30000    
       675 MEOH2    62       MEOH2    DO1      DRUD     -2.48830      0.400000           0   0.00000       0.00000    
       676 MEOH2    62       MEOH2    HO1      HDP1A    0.481000       1.00800           0   0.00000       0.00000    
       677 MEOH2    62       MEOH2    HO2      HDP1A    0.481000       1.00800           0   0.00000       0.00000    
       678 MEOH2    62       MEOH2    H1A      HDA3B    0.194000       1.00800           0   0.00000       0.00000    
       679 MEOH2    62       MEOH2    H1B      HDA3B    0.194000       1.00800           0   0.00000       0.00000    
       680 MEOH2    62       MEOH2    H1C      HDA3B    0.194000       1.00800           0   0.00000       0.00000    
       681 MEOH2    62       MEOH2    LP1A     LPD     -0.203000       0.00000          -1   0.00000       0.00000    
       682 MEOH2    62       MEOH2    LP1B     LPD     -0.203000       0.00000          -1   0.00000       0.00000    
       683 MEOH2    63       MEOH2    C1       CD33B     2.31610       11.6110           0  -1.00000       1.30000    
       684 MEOH2    63       MEOH2    DC1      DRUD     -2.45410      0.400000           0   0.00000       0.00000    
       685 MEOH2    63       MEOH2    O1       OD31H     2.48830       15.5990           0  -1.02800       1.30000    
       686 MEOH2    63       MEOH2    DO1      DRUD     -2.48830      0.400000           0   0.00000       0.00000    
       687 MEOH2    63       MEOH2    HO1      HDP1A    0.481000       1.00800           0   0.00000       0.00000    
       688 MEOH2    63       MEOH2    HO2      HDP1A    0.481000       1.00800           0   0.00000       0.00000    
       689 MEOH2    63       MEOH2    H1A      HDA3B    0.194000       1.00800           0   0.00000       0.00000    
       690 MEOH2    63       MEOH2    H1B      HDA3B    0.194000       1.00800           0   0.00000       0.00000    
       691 MEOH2    63       MEOH2    H1C      HDA3B    0.194000       1.00800           0   0.00000       0.00000    
       692 MEOH2    63       MEOH2    LP1A     LPD     -0.203000       0.00000          -1   0.00000       0.00000    
       693 MEOH2    63       MEOH2    LP1B     LPD     -0.203000       0.00000          -1   0.00000       0.00000    
       694 MEOH2    64       MEOH2    C1       CD33B     2.31610       11.6110           0  -1.00000       1.30000    
       695 MEOH2    64       MEOH2    DC1      DRUD     -2.45410      0.400000           0   0.00000       0.00000    
       696 MEOH2    64       MEOH2    O1       OD31H     2.48830       15.5990           0  -1.02800       1.30000    
       697 MEOH2    64       MEOH2    DO1      DRUD     -2.48830      0.400000           0   0.00000       0.00000    
       698 MEOH2    64       MEOH2    HO1      HDP1A    0.481000       1.00800           0   0.00000       0.00000    
       699 MEOH2    64       MEOH2    HO2      HDP1A    0.481000       1.00800           0   0.00000       0.00000    
       700 MEOH2    64       MEOH2    H1A      HDA3B    0.194000       1.00800           0   0.00000       0.00000    
       701 MEOH2    64       MEOH2    H1B      HDA3B    0.194000       1.00800           0   0.00000       0.00000    
       702 MEOH2    64       MEOH2    H1C      HDA3B    0.194000       1.00800           0   0.00000       0.00000    
       703 MEOH2    64       MEOH2    LP1A     LPD     -0.203000       0.00000          -1   0.00000       0.00000    
       704 MEOH2    64       MEOH2    LP1B     LPD     -0.203000       0.00000          -1   0.00000       0.00000    
       705 MEOH2    65       MEOH2    C1       CD33B     2.31610       11.6110           0  -1.00000       1.30000    
       706 MEOH2    65       MEOH2    DC1      DRUD     -2.45410      0.400000           0   0.00000       0.00000    
       707 MEOH2    65       MEOH2    O1       OD31H     2.48830       15.5990           0  -1.02800       1.30000    
       708 MEOH2    65       MEOH2    DO1      DRUD     -2.48830      0.400000           0   0.00000       0.00000    
       709 MEOH2    65       MEOH2    HO1      HDP1A    0.481000       1.00800           0   0.00000       0.00000    
       710 MEOH2    65       MEOH2    HO2      HDP1A    0.481000       1.00800           0   0.00000       0.00000    
       711 MEOH2    65       MEOH2    H1A      HDA3B    0.194000       1.00800           0   0.00000       0.00000    
       712 MEOH2    65       MEOH2    H1B      HDA3B    0.194000       1.00800           0   0.00000       0.00000    
       713 MEOH2    65       MEOH2    H1C      HDA3B    0.194000       1.00800           0   0.00000       0.00000    
       714 MEOH2    65       MEOH2    LP1A     LPD     -0.203000       0.00000          -1   0.00000       0.00000    
       715 MEOH2    65       MEOH2    LP1B     LPD     -0.203000       0.00000          -1   0.00000       0.00000    
       716 MEOH2    66       MEOH2    C1       CD33B     2.31610       11.6110           0  -1.00000       1.30000    
       717 MEOH2    66       MEOH2    DC1      DRUD     -2.45410      0.400000           0   0.00000       0.00000    
       718 MEOH2    66       MEOH2    O1       OD31H     2.48830       15.5990           0  -1.02800       1.30000    
       719 MEOH2    66       MEOH2    DO1      DRUD     -2.48830      0.400000           0   0.00000       0.00000    
       720 MEOH2    66       MEOH2    HO1      HDP1A    0.481000       1.00800           0   0.00000       0.00000    
       721 MEOH2    66       MEOH2    HO2      HDP1A    0.481000       1.00800           0   0.00000       0.00000    
       722 MEOH2    66       MEOH2    H1A      HDA3B    0.194000       1.00800           0   0.00000       0.00000    
       723 MEOH2    66       MEOH2    H1B      HDA3B    0.194000       1.00800           0   0.00000       0.00000    
       724 MEOH2    66       MEOH2    H1C      HDA3B    0.194000       1.00800           0   0.00000       0.00000    
       725 MEOH2    66       MEOH2    LP1A     LPD     -0.203000       0.00000          -1   0.00000       0.00000    
       726 MEOH2    66       MEOH2    LP1B     LPD     -0.203000       0.00000          -1   0.00000       0.00000    
       727 MEOH2    67       MEOH2    C1       CD33B     2.31610       11.6110           0  -1.00000       1.30000    
       728 MEOH2    67       MEOH2    DC1      DRUD     -2.45410      0.400000           0   0.00000       0.00000    
       729 MEOH2    67       MEOH2    O1       OD31H     2.48830       15.5990           0  -1.02800       1.30000    
       730 MEOH2    67       MEOH2    DO1      DRUD     -2.48830      0.400000           0   0.00000       0.00000    
       731 MEOH2    67       MEOH2    HO1      HDP1A    0.481000       1.00800           0   0.00000       0.00000    
       732 MEOH2    67       MEOH2    HO2      HDP1A    0.481000       1.00800           0   0.00000       0.00000    
       733 MEOH2    67       MEOH2    H1A      HDA3B    0.194000       1.00800           0   0.00000       0.00000    
       734 MEOH2    67       MEOH2    H1B      HDA3B    0.194000       1.00800           0   0.00000       0.00000    
       735 MEOH2    67       MEOH2    H1C      HDA3B    0.194000       1.00800           0   0.00000       0.00000    
       736 MEOH2    67       MEOH2    LP1A     LPD     -0.203000       0.00000          -1   0.00000       0.00000    
       737 MEOH2    67       MEOH2    LP1B     LPD     -0.203000       0.00000          -1   0.00000       0.00000    
       738 MEOH2    68       MEOH2    C1       CD33B     2.31610       11.6110           0  -1.00000       1.30000    
       739 MEOH2    68       MEOH2    DC1      DRUD     -2.45410      0.400000           0   0.00000       0.00000    
       740 MEOH2    68       MEOH2    O1       OD31H     2.48830       15.5990           0  -1.02800       1.30000    
       741 MEOH2    68       MEOH2    DO1      DRUD     -2.48830      0.400000           0   0.00000       0.00000    
       742 MEOH2    68       MEOH2    HO1      HDP1A    0.481000       1.00800           0   0.00000       0.00000    
       743 MEOH2    68       MEOH2    HO2      HDP1A    0.481000       1.00800           0   0.00000       0.00000    
       744 MEOH2    68       MEOH2    H1A      HDA3B    0.194000       1.00800           0   0.00000       0.00000    
       745 MEOH2    68       MEOH2    H1B      HDA3B    0.194000       1.00800           0   0.00000       0.00000    
       746 MEOH2    68       MEOH2    H1C      HDA3B    0.194000       1.00800           0   0.00000       0.00000    
       747 MEOH2    68       MEOH2    LP1A     LPD     -0.203000       0.00000          -1   0.00000       0.00000    
       748 MEOH2    68       MEOH2    LP1B     LPD     -0.203000       0.00000          -1   0.00000       0.00000    
       749 MEOH2    69       MEOH2    C1       CD33B     2.31610       11.6110           0  -1.00000       1.30000    
       750 MEOH2    69       MEOH2    DC1      DRUD     -2.45410      0.400000           0   0.00000       0.00000    
       751 MEOH2    69       MEOH2    O1       OD31H     2.48830       15.5990           0  -1.02800       1.30000    
       752 MEOH2    69       MEOH2    DO1      DRUD     -2.48830      0.400000           0   0.00000       0.00000    
       753 MEOH2    69       MEOH2    HO1      HDP1A    0.481000       1.00800           0   0.00000       0.00000    
       754 MEOH2    69       MEOH2    HO2      HDP1A    0.481000       1.00800           0   0.00000       0.00000    
       755 MEOH2    69       MEOH2    H1A      HDA3B    0.194000       1.00800           0   0.00000       0.00000    
       756 MEOH2    69       MEOH2    H1B      HDA3B    0.194000       1.00800           0   0.00000       0.00000    
       757 MEOH2    69       MEOH2    H1C      HDA3B    0.194000       1.00800           0   0.00000       0.00000    
       758 MEOH2    69       MEOH2    LP1A     LPD     -0.203000       0.00000          -1   0.00000       0.00000    
       759 MEOH2    69       MEOH2    LP1B     LPD     -0.203000       0.00000          -1   0.00000       0.00000    
       760 MEOH2    70       MEOH2    C1       CD33B     2.31610       11.6110           0  -1.00000       1.30000    
       761 MEOH2    70       MEOH2    DC1      DRUD     -2.45410      0.400000           0   0.00000       0.00000    
       762 MEOH2    70       MEOH2    O1       OD31H     2.48830       15.5990           0  -1.02800       1.30000    
       763 MEOH2    70       MEOH2    DO1      DRUD     -2.48830      0.400000           0   0.00000       0.00000    
       764 MEOH2    70       MEOH2    HO1      HDP1A    0.481000       1.00800           0   0.00000       0.00000    
       765 MEOH2    70       MEOH2    HO2      HDP1A    0.481000       1.00800           0   0.00000       0.00000    
       766 MEOH2    70       MEOH2    H1A      HDA3B    0.194000       1.00800           0   0.00000       0.00000    
       767 MEOH2    70       MEOH2    H1B      HDA3B    0.194000       1.00800           0   0.00000       0.00000    
       768 MEOH2    70       MEOH2    H1C      HDA3B    0.194000       1.00800           0   0.00000       0.00000    
       769 MEOH2    70       MEOH2    LP1A     LPD     -0.203000       0.00000          -1   0.00000       0.00000    
       770 MEOH2    70       MEOH2    LP1B     LPD     -0.203000       0.00000          -1   0.00000       0.00000    
       771 MEOH2    71       MEOH2    C1       CD33B     2.31610       11.6110           0  -1.00000       1.30000    
       772 MEOH2    71       MEOH2    DC1      DRUD     -2.45410      0.400000           0   0.00000       0.00000    
       773 MEOH2    71       MEOH2    O1       OD31H     2.48830       15.5990           0  -1.02800       1.30000    
       774 MEOH2    71       MEOH2    DO1      DRUD     -2.48830      0.400000           0   0.00000       0.00000    
       775 MEOH2    71       MEOH2    HO1      HDP1A    0.481000       1.00800           0   0.00000       0.00000    
       776 MEOH2    71       MEOH2    HO2      HDP1A    0.481000       1.00800           0   0.00000       0.00000    
       777 MEOH2    71       MEOH2    H1A      HDA3B    0.194000       1.00800           0   0.00000       0.00000    
       778 MEOH2    71       MEOH2    H1B      HDA3B    0.194000       1.00800           0   0.00000       0.00000    
       779 MEOH2    71       MEOH2    H1C      HDA3B    0.194000       1.00800           0   0.00000       0.00000    
       780 MEOH2    71       MEOH2    LP1A     LPD     -0.203000       0.00000          -1   0.00000       0.00000    
       781 MEOH2    71       MEOH2    LP1B     LPD     -0.203000       0.00000          -1   0.00000       0.00000    
       782 MEOH2    72       MEOH2    C1       CD33B     2.31610       11.6110           0  -1.00000       1.30000    
       783 MEOH2    72       MEOH2    DC1      DRUD     -2.45410      0.400000           0   0.00000       0.00000    
       784 MEOH2    72       MEOH2    O1       OD31H     2.48830       15.5990           0  -1.02800       1.30000    
       785 MEOH2    72       MEOH2    DO1      DRUD     -2.48830      0.400000           0   0.00000       0.00000    
       786 MEOH2    72       MEOH2    HO1      HDP1A    0.481000       1.00800           0   0.00000       0.00000    
       787 MEOH2    72       MEOH2    HO2      HDP1A    0.481000       1.00800           0   0.00000       0.00000    
       788 MEOH2    72       MEOH2    H1A      HDA3B    0.194000       1.00800           0   0.00000       0.00000    
       789 MEOH2    72       MEOH2    H1B      HDA3B    0.194000       1.00800           0   0.00000       0.00000    
       790 MEOH2    72       MEOH2    H1C      HDA3B    0.194000       1.00800           0   0.00000       0.00000    
       791 MEOH2    72       MEOH2    LP1A     LPD     -0.203000       0.00000          -1   0.00000       0.00000    
       792 MEOH2    72       MEOH2    LP1B     LPD     -0.203000       0.00000          -1   0.00000       0.00000    
       793 MEOH2    73       MEOH2    C1       CD33B     2.31610       11.6110           0  -1.00000       1.30000    
       794 MEOH2    73       MEOH2    DC1      DRUD     -2.45410      0.400000           0   0.00000       0.00000    
       795 MEOH2    73       MEOH2    O1       OD31H     2.48830       15.5990           0  -1.02800       1.30000    
       796 MEOH2    73       MEOH2    DO1      DRUD     -2.48830      0.400000           0   0.00000       0.00000    
       797 MEOH2    73       MEOH2    HO1      HDP1A    0.481000       1.00800           0   0.00000       0.00000    
       798 MEOH2    73       MEOH2    HO2      HDP1A    0.481000       1.00800           0   0.00000       0.00000    
       799 MEOH2    73       MEOH2    H1A      HDA3B    0.194000       1.00800           0   0.00000       0.00000    
       800 MEOH2    73       MEOH2    H1B      HDA3B    0.194000       1.00800           0   0.00000       0.00000    
       801 MEOH2    73       MEOH2    H1C      HDA3B    0.194000       1.00800           0   0.00000       0.00000    
       802 MEOH2    73       MEOH2    LP1A     LPD     -0.203000       0.00000          -1   0.00000       0.00000    
       803 MEOH2    73       MEOH2    LP1B     LPD     -0.203000       0.00000          -1   0.00000       0.00000    
       804 MEOH2    74       MEOH2    C1       CD33B     2.31610       11.6110           0  -1.00000       1.30000    
       805 MEOH2    74       MEOH2    DC1      DRUD     -2.45410      0.400000           0   0.00000       0.00000    
       806 MEOH2    74       MEOH2    O1       OD31H     2.48830       15.5990           0  -1.02800       1.30000    
       807 MEOH2    74       MEOH2    DO1      DRUD     -2.48830      0.400000           0   0.00000       0.00000    
       808 MEOH2    74       MEOH2    HO1      HDP1A    0.481000       1.00800           0   0.00000       0.00000    
       809 MEOH2    74       MEOH2    HO2      HDP1A    0.481000       1.00800           0   0.00000       0.00000    
       810 MEOH2    74       MEOH2    H1A      HDA3B    0.194000       1.00800           0   0.00000       0.00000    
       811 MEOH2    74       MEOH2    H1B      HDA3B    0.194000       1.00800           0   0.00000       0.00000    
       812 MEOH2    74       MEOH2    H1C      HDA3B    0.194000       1.00800           0   0.00000       0.00000    
       813 MEOH2    74       MEOH2    LP1A     LPD     -0.203000       0.00000          -1   0.00000       0.00000    
       814 MEOH2    74       MEOH2    LP1B     LPD     -0.203000       0.00000          -1   0.00000       0.00000    
       815 MEOH2    75       MEOH2    C1       CD33B     2.31610       11.6110           0  -1.00000       1.30000    
       816 MEOH2    75       MEOH2    DC1      DRUD     -2.45410      0.400000           0   0.00000       0.00000    
       817 MEOH2    75       MEOH2    O1       OD31H     2.48830       15.5990           0  -1.02800       1.30000    
       818 MEOH2    75       MEOH2    DO1      DRUD     -2.48830      0.400000           0   0.00000       0.00000    
       819 MEOH2    75       MEOH2    HO1      HDP1A    0.481000       1.00800           0   0.00000       0.00000    
       820 MEOH2    75       MEOH2    HO2      HDP1A    0.481000       1.00800           0   0.00000       0.00000    
       821 MEOH2    75       MEOH2    H1A      HDA3B    0.194000       1.00800           0   0.00000       0.00000    
       822 MEOH2    75       MEOH2    H1B      HDA3B    0.194000       1.00800           0   0.00000       0.00000    
       823 MEOH2    75       MEOH2    H1C      HDA3B    0.194000       1.00800           0   0.00000       0.00000    
       824 MEOH2    75       MEOH2    LP1A     LPD     -0.203000       0.00000          -1   0.00000       0.00000    
       825 MEOH2    75       MEOH2    LP1B     LPD     -0.203000       0.00000          -1   0.00000       0.00000    
       826 MEOH2    76       MEOH2    C1       CD33B     2.31610       11.6110           0  -1.00000       1.30000    
       827 MEOH2    76       MEOH2    DC1      DRUD     -2.45410      0.400000           0   0.00000       0.00000    
       828 MEOH2    76       MEOH2    O1       OD31H     2.48830       15.5990           0  -1.02800       1.30000    
       829 MEOH2    76       MEOH2    DO1      DRUD     -2.48830      0.400000           0   0.00000       0.00000    
       830 MEOH2    76       MEOH2    HO1      HDP1A    0.481000       1.00800           0   0.00000       0.00000    
       831 MEOH2    76       MEOH2    HO2      HDP1A    0.481000       1.00800           0   0.00000       0.00000    
       832 MEOH2    76       MEOH2    H1A      HDA3B    0.194000       1.00800           0   0.00000       0.00000    
       833 MEOH2    76       MEOH2    H1B      HDA3B    0.194000       1.00800           0   0.00000       0.00000    
       834 MEOH2    76       MEOH2    H1C      HDA3B    0.194000       1.00800           0   0.00000       0.00000    
       835 MEOH2    76       MEOH2    LP1A     LPD     -0.203000       0.00000          -1   0.00000       0.00000    
       836 MEOH2    76       MEOH2    LP1B     LPD     -0.203000       0.00000          -1   0.00000       0.00000    
       837 MEOH2    77       MEOH2    C1       CD33B     2.31610       11.6110           0  -1.00000       1.30000    
       838 MEOH2    77       MEOH2    DC1      DRUD     -2.45410      0.400000           0   0.00000       0.00000    
       839 MEOH2    77       MEOH2    O1       OD31H     2.48830       15.5990           0  -1.02800       1.30000    
       840 MEOH2    77       MEOH2    DO1      DRUD     -2.48830      0.400000           0   0.00000       0.00000    
       841 MEOH2    77       MEOH2    HO1      HDP1A    0.481000       1.00800           0   0.00000       0.00000    
       842 MEOH2    77       MEOH2    HO2      HDP1A    0.481000       1.00800           0   0.00000       0.00000    
       843 MEOH2    77       MEOH2    H1A      HDA3B    0.194000       1.00800           0   0.00000       0.00000    
       844 MEOH2    77       MEOH2    H1B      HDA3B    0.194000       1.00800           0   0.00000       0.00000    
       845 MEOH2    77       MEOH2    H1C      HDA3B    0.194000       1.00800           0   0.00000       0.00000    
       846 MEOH2    77       MEOH2    LP1A     LPD     -0.203000       0.00000          -1   0.00000       0.00000    
       847 MEOH2    77       MEOH2    LP1B     LPD     -0.203000       0.00000          -1   0.00000       0.00000    
       848 MEOH2    78       MEOH2    C1       CD33B     2.31610       11.6110           0  -1.00000       1.30000    
       849 MEOH2    78       MEOH2    DC1      DRUD     -2.45410      0.400000           0   0.00000       0.00000    
       850 MEOH2    78       MEOH2    O1       OD31H     2.48830       15.5990           0  -1.02800       1.30000    
       851 MEOH2    78       MEOH2    DO1      DRUD     -2.48830      0.400000           0   0.00000       0.00000    
       852 MEOH2    78       MEOH2    HO1      HDP1A    0.481000       1.00800           0   0.00000       0.00000    
       853 MEOH2    78       MEOH2    HO2      HDP1A    0.481000       1.00800           0   0.00000       0.00000    
       854 MEOH2    78       MEOH2    H1A      HDA3B    0.194000       1.00800           0   0.00000       0.00000    
       855 MEOH2    78       MEOH2    H1B      HDA3B    0.194000       1.00800           0   0.00000       0.00000    
       856 MEOH2    78       MEOH2    H1C      HDA3B    0.194000       1.00800           0   0.00000       0.00000    
       857 MEOH2    78       MEOH2    LP1A     LPD     -0.203000       0.00000          -1   0.00000       0.00000    
       858 MEOH2    78       MEOH2    LP1B     LPD     -0.203000       0.00000          -1   0.00000       0.00000    
       859 MEOH2    79       MEOH2    C1       CD33B     2.31610       11.6110           0  -1.00000       1.30000    
       860 MEOH2    79       MEOH2    DC1      DRUD     -2.45410      0.400000           0   0.00000       0.00000    
       861 MEOH2    79       MEOH2    O1       OD31H     2.48830       15.5990           0  -1.02800       1.30000    
       862 MEOH2    79       MEOH2    DO1      DRUD     -2.48830      0.400000           0   0.00000       0.00000    
       863 MEOH2    79       MEOH2    HO1      HDP1A    0.481000       1.00800           0   0.00000       0.00000    
       864 MEOH2    79       MEOH2    HO2      HDP1A    0.481000       1.00800           0   0.00000       0.00000    
       865 MEOH2    79       MEOH2    H1A      HDA3B    0.194000       1.00800           0   0.00000       0.00000    
       866 MEOH2    79       MEOH2    H1B      HDA3B    0.194000       1.00800           0   0.00000       0.00000    
       867 MEOH2    79       MEOH2    H1C      HDA3B    0.194000       1.00800           0   0.00000       0.00000    
       868 MEOH2    79       MEOH2    LP1A     LPD     -0.203000       0.00000          -1   0.00000       0.00000    
       869 MEOH2    79       MEOH2    LP1B     LPD     -0.203000       0.00000          -1   0.00000       0.00000    
       870 MEOH2    80       MEOH2    C1       CD33B     2.31610       11.6110           0  -1.00000       1.30000    
       871 MEOH2    80       MEOH2    DC1      DRUD     -2.45410      0.400000           0   0.00000       0.00000    
       872 MEOH2    80       MEOH2    O1       OD31H     2.48830       15.5990           0  -1.02800       1.30000    
       873 MEOH2    80       MEOH2    DO1      DRUD     -2.48830      0.400000           0   0.00000       0.00000    
       874 MEOH2    80       MEOH2    HO1      HDP1A    0.481000       1.00800           0   0.00000       0.00000    
       875 MEOH2    80       MEOH2    HO2      HDP1A    0.481000       1.00800           0   0.00000       0.00000    
       876 MEOH2    80       MEOH2    H1A      HDA3B    0.194000       1.00800           0   0.00000       0.00000    
       877 MEOH2    80       MEOH2    H1B      HDA3B    0.194000       1.00800           0   0.00000       0.00000    
       878 MEOH2    80       MEOH2    H1C      HDA3B    0.194000       1.00800           0   0.00000       0.00000    
       879 MEOH2    80       MEOH2    LP1A     LPD     -0.203000       0.00000          -1   0.00000       0.00000    
       880 MEOH2    80       MEOH2    LP1B     LPD     -0.203000       0.00000          -1   0.00000       0.00000    
       881 MEOH2    81       MEOH2    C1       CD33B     2.31610       11.6110           0  -1.00000       1.30000    
       882 MEOH2    81       MEOH2    DC1      DRUD     -2.45410      0.400000           0   0.00000       0.00000    
       883 MEOH2    81       MEOH2    O1       OD31H     2.48830       15.5990           0  -1.02800       1.30000    
       884 MEOH2    81       MEOH2    DO1      DRUD     -2.48830      0.400000           0   0.00000       0.00000    
       885 MEOH2    81       MEOH2    HO1      HDP1A    0.481000       1.00800           0   0.00000       0.00000    
       886 MEOH2    81       MEOH2    HO2      HDP1A    0.481000       1.00800           0   0.00000       0.00000    
       887 MEOH2    81       MEOH2    H1A      HDA3B    0.194000       1.00800           0   0.00000       0.00000    
       888 MEOH2    81       MEOH2    H1B      HDA3B    0.194000       1.00800           0   0.00000       0.00000    
       889 MEOH2    81       MEOH2    H1C      HDA3B    0.194000       1.00800           0   0.00000       0.00000    
       890 MEOH2    81       MEOH2    LP1A     LPD     -0.203000       0.00000          -1   0.00000       0.00000    
       891 MEOH2    81       MEOH2    LP1B     LPD     -0.203000       0.00000          -1   0.00000       0.00000    
       892 MEOH2    82       MEOH2    C1       CD33B     2.31610       11.6110           0  -1.00000       1.30000    
       893 MEOH2    82       MEOH2    DC1      DRUD     -2.45410      0.400000           0   0.00000       0.00000    
       894 MEOH2    82       MEOH2    O1       OD31H     2.48830       15.5990           0  -1.02800       1.30000    
       895 MEOH2    82       MEOH2    DO1      DRUD     -2.48830      0.400000           0   0.00000       0.00000    
       896 MEOH2    82       MEOH2    HO1      HDP1A    0.481000       1.00800           0   0.00000       0.00000    
       897 MEOH2    82       MEOH2    HO2      HDP1A    0.481000       1.00800           0   0.00000       0.00000    
       898 MEOH2    82       MEOH2    H1A      HDA3B    0.194000       1.00800           0   0.00000       0.00000    
       899 MEOH2    82       MEOH2    H1B      HDA3B    0.194000       1.00800           0   0.00000       0.00000    
       900 MEOH2    82       MEOH2    H1C      HDA3B    0.194000       1.00800           0   0.00000       0.00000    
       901 MEOH2    82       MEOH2    LP1A     LPD     -0.203000       0.00000          -1   0.00000       0.00000    
       902 MEOH2    82       MEOH2    LP1B     LPD     -0.203000       0.00000          -1   0.00000       0.00000    
       903 MEOH2    83       MEOH2    C1       CD33B     2.31610       11.6110           0  -1.00000       1.30000    
       904 MEOH2    83       MEOH2    DC1      DRUD     -2.45410      0.400000           0   0.00000       0.00000    
       905 MEOH2    83       MEOH2    O1       OD31H     2.48830       15.5990           0  -1.02800       1.30000    
       906 MEOH2    83       MEOH2    DO1      DRUD     -2.48830      0.400000           0   0.00000       0.00000    
       907 MEOH2    83       MEOH2    HO1      HDP1A    0.481000       1.00800           0   0.00000       0.00000    
       908 MEOH2    83       MEOH2    HO2      HDP1A    0.481000       1.00800           0   0.00000       0.00000    
       909 MEOH2    83       MEOH2    H1A      HDA3B    0.194000       1.00800           0   0.00000       0.00000    
       910 MEOH2    83       MEOH2    H1B      HDA3B    0.194000       1.00800           0   0.00000       0.00000    
       911 MEOH2    83       MEOH2    H1C      HDA3B    0.194000       1.00800           0   0.00000       0.00000    
       912 MEOH2    83       MEOH2    LP1A     LPD     -0.203000       0.00000          -1   0.00000       0.00000    
       913 MEOH2    83       MEOH2    LP1B     LPD     -0.203000       0.00000          -1   0.00000       0.00000    
       914 MEOH2    84       MEOH2    C1       CD33B     2.31610       11.6110           0  -1.00000       1.30000    
       915 MEOH2    84       MEOH2    DC1      DRUD     -2.45410      0.400000           0   0.00000       0.00000    
       916 MEOH2    84       MEOH2    O1       OD31H     2.48830       15.5990           0  -1.02800       1.30000    
       917 MEOH2    84       MEOH2    DO1      DRUD     -2.48830      0.400000           0   0.00000       0.00000    
       918 MEOH2    84       MEOH2    HO1      HDP1A    0.481000       1.00800           0   0.00000       0.00000    
       919 MEOH2    84       MEOH2    HO2      HDP1A    0.481000       1.00800           0   0.00000       0.00000    
       920 MEOH2    84       MEOH2    H1A      HDA3B    0.194000       1.00800           0   0.00000       0.00000    
       921 MEOH2    84       MEOH2    H1B      HDA3B    0.194000       1.00800           0   0.00000       0.00000    
       922 MEOH2    84       MEOH2    H1C      HDA3B    0.194000       1.00800           0   0.00000       0.00000    
       923 MEOH2    84       MEOH2    LP1A     LPD     -0.203000       0.00000          -1   0.00000       0.00000    
       924 MEOH2    84       MEOH2    LP1B     LPD     -0.203000       0.00000          -1   0.00000       0.00000    
       925 MEOH2    85       MEOH2    C1       CD33B     2.31610       11.6110           0  -1.00000       1.30000    
       926 MEOH2    85       MEOH2    DC1      DRUD     -2.45410      0.400000           0   0.00000       0.00000    
       927 MEOH2    85       MEOH2    O1       OD31H     2.48830       15.5990           0  -1.02800       1.30000    
       928 MEOH2    85       MEOH2    DO1      DRUD     -2.48830      0.400000           0   0.00000       0.00000    
       929 MEOH2    85       MEOH2    HO1      HDP1A    0.481000       1.00800           0   0.00000       0.00000    
       930 MEOH2    85       MEOH2    HO2      HDP1A    0.481000       1.00800           0   0.00000       0.00000    
       931 MEOH2    85       MEOH2    H1A      HDA3B    0.194000       1.00800           0   0.00000       0.00000    
       932 MEOH2    85       MEOH2    H1B      HDA3B    0.194000       1.00800           0   0.00000       0.00000    
       933 MEOH2    85       MEOH2    H1C      HDA3B    0.194000       1.00800           0   0.00000       0.00000    
       934 MEOH2    85       MEOH2    LP1A     LPD     -0.203000       0.00000          -1   0.00000       0.00000    
       935 MEOH2    85       MEOH2    LP1B     LPD     -0.203000       0.00000          -1   0.00000       0.00000    
       936 MEOH2    86       MEOH2    C1       CD33B     2.31610       11.6110           0  -1.00000       1.30000    
       937 MEOH2    86       MEOH2    DC1      DRUD     -2.45410      0.400000           0   0.00000       0.00000    
       938 MEOH2    86       MEOH2    O1       OD31H     2.48830       15.5990           0  -1.02800       1.30000    
       939 MEOH2    86       MEOH2    DO1      DRUD     -2.48830      0.400000           0   0.00000       0.00000    
       940 MEOH2    86       MEOH2    HO1      HDP1A    0.481000       1.00800           0   0.00000       0.00000    
       941 MEOH2    86       MEOH2    HO2      HDP1A    0.481000       1.00800           0   0.00000       0.00000    
       942 MEOH2    86       MEOH2    H1A      HDA3B    0.194000       1.00800           0   0.00000       0.00000    
       943 MEOH2    86       MEOH2    H1B      HDA3B    0.194000       1.00800           0   0.00000       0.00000    
       944 MEOH2    86       MEOH2    H1C      HDA3B    0.194000       1.00800           0   0.00000       0.00000    
       945 MEOH2    86       MEOH2    LP1A     LPD     -0.203000       0.00000          -1   0.00000       0.00000    
       946 MEOH2    86       MEOH2    LP1B     LPD     -0.203000       0.00000          -1   0.00000       0.00000    
       947 MEOH2    87       MEOH2    C1       CD33B     2.31610       11.6110           0  -1.00000       1.30000    
       948 MEOH2    87       MEOH2    DC1      DRUD     -2.45410      0.400000           0   0.00000       0.00000    
       949 MEOH2    87       MEOH2    O1       OD31H     2.48830       15.5990           0  -1.02800       1.30000    
       950 MEOH2    87       MEOH2    DO1      DRUD     -2.48830      0.400000           0   0.00000       0.00000    
       951 MEOH2    87       MEOH2    HO1      HDP1A    0.481000       1.00800           0   0.00000       0.00000    
       952 MEOH2    87       MEOH2    HO2      HDP1A    0.481000       1.00800           0   0.00000       0.00000    
       953 MEOH2    87       MEOH2    H1A      HDA3B    0.194000       1.00800           0   0.00000       0.00000    
       954 MEOH2    87       MEOH2    H1B      HDA3B    0.194000       1.00800           0   0.00000       0.00000    
       955 MEOH2    87       MEOH2    H1C      HDA3B    0.194000       1.00800           0   0.00000       0.00000    
       956 MEOH2    87       MEOH2    LP1A     LPD     -0.203000       0.00000          -1   0.00000       0.00000    
       957 MEOH2    87       MEOH2    LP1B     LPD     -0.203000       0.00000          -1   0.00000       0.00000    
       958 MEOH2    88       MEOH2    C1       CD33B     2.31610       11.6110           0  -1.00000       1.30000    
       959 MEOH2    88       MEOH2    DC1      DRUD     -2.45410      0.400000           0   0.00000       0.00000    
       960 MEOH2    88       MEOH2    O1       OD31H     2.48830       15.5990           0  -1.02800       1.30000    
       961 MEOH2    88       MEOH2    DO1      DRUD     -2.48830      0.400000           0   0.00000       0.00000    
       962 MEOH2    88       MEOH2    HO1      HDP1A    0.481000       1.00800           0   0.00000       0.00000    
       963 MEOH2    88       MEOH2    HO2      HDP1A    0.481000       1.00800           0   0.00000       0.00000    
       964 MEOH2    88       MEOH2    H1A      HDA3B    0.194000       1.00800           0   0.00000       0.00000    
       965 MEOH2    88       MEOH2    H1B      HDA3B    0.194000       1.00800           0   0.00000       0.00000    
       966 MEOH2    88       MEOH2    H1C      HDA3B    0.194000       1.00800           0   0.00000       0.00000    
       967 MEOH2    88       MEOH2    LP1A     LPD     -0.203000       0.00000          -1   0.00000       0.00000    
       968 MEOH2    88       MEOH2    LP1B     LPD     -0.203000       0.00000          -1   0.00000       0.00000    
       969 MEOH2    89       MEOH2    C1       CD33B     2.31610       11.6110           0  -1.00000       1.30000    
       970 MEOH2    89       MEOH2    DC1      DRUD     -2.45410      0.400000           0   0.00000       0.00000    
       971 MEOH2    89       MEOH2    O1       OD31H     2.48830       15.5990           0  -1.02800       1.30000    
       972 MEOH2    89       MEOH2    DO1      DRUD     -2.48830      0.400000           0   0.00000       0.00000    
       973 MEOH2    89       MEOH2    HO1      HDP1A    0.481000       1.00800           0   0.00000       0.00000    
       974 MEOH2    89       MEOH2    HO2      HDP1A    0.481000       1.00800           0   0.00000       0.00000    
       975 MEOH2    89       MEOH2    H1A      HDA3B    0.194000       1.00800           0   0.00000       0.00000    
       976 MEOH2    89       MEOH2    H1B      HDA3B    0.194000       1.00800           0   0.00000       0.00000    
       977 MEOH2    89       MEOH2    H1C      HDA3B    0.194000       1.00800           0   0.00000       0.00000    
       978 MEOH2    89       MEOH2    LP1A     LPD     -0.203000       0.00000          -1   0.00000       0.00000    
       979 MEOH2    89       MEOH2    LP1B     LPD     -0.203000       0.00000          -1   0.00000       0.00000    
       980 MEOH2    90       MEOH2    C1       CD33B     2.31610       11.6110           0  -1.00000       1.30000    
       981 MEOH2    90       MEOH2    DC1      DRUD     -2.45410      0.400000           0   0.00000       0.00000    
       982 MEOH2    90       MEOH2    O1       OD31H     2.48830       15.5990           0  -1.02800       1.30000    
       983 MEOH2    90       MEOH2    DO1      DRUD     -2.48830      0.400000           0   0.00000       0.00000    
       984 MEOH2    90       MEOH2    HO1      HDP1A    0.481000       1.00800           0   0.00000       0.00000    
       985 MEOH2    90       MEOH2    HO2      HDP1A    0.481000       1.00800           0   0.00000       0.00000    
       986 MEOH2    90       MEOH2    H1A      HDA3B    0.194000       1.00800           0   0.00000       0.00000    
       987 MEOH2    90       MEOH2    H1B      HDA3B    0.194000       1.00800           0   0.00000       0.00000    
       988 MEOH2    90       MEOH2    H1C      HDA3B    0.194000       1.00800           0   0.00000       0.00000    
       989 MEOH2    90       MEOH2    LP1A     LPD     -0.203000       0.00000          -1   0.00000       0.00000    
       990 MEOH2    90       MEOH2    LP1B     LPD     -0.203000       0.00000          -1   0.00000       0.00000    
       991 MEOH2    91       MEOH2    C1       CD33B     2.31610       11.6110           0  -1.00000       1.30000    
       992 MEOH2    91       MEOH2    DC1      DRUD     -2.45410      0.400000           0   0.00000       0.00000    
       993 MEOH2    91       MEOH2    O1       OD31H     2.48830       15.5990           0  -1.02800       1.30000    
       994 MEOH2    91       MEOH2    DO1      DRUD     -2.48830      0.400000           0   0.00000       0.00000    
       995 MEOH2    91       MEOH2    HO1      HDP1A    0.481000       1.00800           0   0.00000       0.00000    
       996 MEOH2    91       MEOH2    HO2      HDP1A    0.481000       1.00800           0   0.00000       0.00000    
       997 MEOH2    91       MEOH2    H1A      HDA3B    0.194000       1.00800           0   0.00000       0.00000    
       998 MEOH2    91       MEOH2    H1B      HDA3B    0.194000       1.00800           0   0.00000       0.00000    
       999 MEOH2    91       MEOH2    H1C      HDA3B    0.194000       1.00800           0   0.00000       0.00000    
      1000 MEOH2    91       MEOH2    LP1A     LPD     -0.203000       0.00000          -1   0.00000       0.00000    
      1001 MEOH2    91       MEOH2    LP1B     LPD     -0.203000       0.00000          -1   0.00000       0.00000    
      1002 MEOH2    92       MEOH2    C1       CD33B     2.31610       11.6110           0  -1.00000       1.30000    
      1003 MEOH2    92       MEOH2    DC1      DRUD     -2.45410      0.400000           0   0.00000       0.00000    
      1004 MEOH2    92       MEOH2    O1       OD31H     2.48830       15.5990           0  -1.02800       1.30000    
      1005 MEOH2    92       MEOH2    DO1      DRUD     -2.48830      0.400000           0   0.00000       0.00000    
      1006 MEOH2    92       MEOH2    HO1      HDP1A    0.481000       1.00800           0   0.00000       0.00000    
      1007 MEOH2    92       MEOH2    HO2      HDP1A    0.481000       1.00800           0   0.00000       0.00000    
      1008 MEOH2    92       MEOH2    H1A      HDA3B    0.194000       1.00800           0   0.00000       0.00000    
      1009 MEOH2    92       MEOH2    H1B      HDA3B    0.194000       1.00800           0   0.00000       0.00000    
      1010 MEOH2    92       MEOH2    H1C      HDA3B    0.194000       1.00800           0   0.00000       0.00000    
      1011 MEOH2    92       MEOH2    LP1A     LPD     -0.203000       0.00000          -1   0.00000       0.00000    
      1012 MEOH2    92       MEOH2    LP1B     LPD     -0.203000       0.00000          -1   0.00000       0.00000    
      1013 MEOH2    93       MEOH2    C1       CD33B     2.31610       11.6110           0  -1.00000       1.30000    
      1014 MEOH2    93       MEOH2    DC1      DRUD     -2.45410      0.400000           0   0.00000       0.00000    
      1015 MEOH2    93       MEOH2    O1       OD31H     2.48830       15.5990           0  -1.02800       1.30000    
      1016 MEOH2    93       MEOH2    DO1      DRUD     -2.48830      0.400000           0   0.00000       0.00000    
      1017 MEOH2    93       MEOH2    HO1      HDP1A    0.481000       1.00800           0   0.00000       0.00000    
      1018 MEOH2    93       MEOH2    HO2      HDP1A    0.481000       1.00800           0   0.00000       0.00000    
      1019 MEOH2    93       MEOH2    H1A      HDA3B    0.194000       1.00800           0   0.00000       0.00000    
      1020 MEOH2    93       MEOH2    H1B      HDA3B    0.194000       1.00800           0   0.00000       0.00000    
      1021 MEOH2    93       MEOH2    H1C      HDA3B    0.194000       1.00800           0   0.00000       0.00000    
      1022 MEOH2    93       MEOH2    LP1A     LPD     -0.203000       0.00000          -1   0.00000       0.00000    
      1023 MEOH2    93       MEOH2    LP1B     LPD     -0.203000       0.00000          -1   0.00000       0.00000    
      1024 MEOH2    94       MEOH2    C1       CD33B     2.31610       11.6110           0  -1.00000       1.30000    
      1025 MEOH2    94       MEOH2    DC1      DRUD     -2.45410      0.400000           0   0.00000       0.00000    
      1026 MEOH2    94       MEOH2    O1       OD31H     2.48830       15.5990           0  -1.02800       1.30000    
      1027 MEOH2    94       MEOH2    DO1      DRUD     -2.48830      0.400000           0   0.00000       0.00000    
      1028 MEOH2    94       MEOH2    HO1      HDP1A    0.481000       1.00800           0   0.00000       0.00000    
      1029 MEOH2    94       MEOH2    HO2      HDP1A    0.481000       1.00800           0   0.00000       0.00000    
      1030 MEOH2    94       MEOH2    H1A      HDA3B    0.194000       1.00800           0   0.00000       0.00000    
      1031 MEOH2    94       MEOH2    H1B      HDA3B    0.194000       1.00800           0   0.00000       0.00000    
      1032 MEOH2    94       MEOH2    H1C      HDA3B    0.194000       1.00800           0   0.00000       0.00000    
      1033 MEOH2    94       MEOH2    LP1A     LPD     -0.203000       0.00000          -1   0.00000       0.00000    
      1034 MEOH2    94       MEOH2    LP1B     LPD     -0.203000       0.00000          -1   0.00000       0.00000    
      1035 MEOH2    95       MEOH2    C1       CD33B     2.31610       11.6110           0  -1.00000       1.30000    
      1036 MEOH2    95       MEOH2    DC1      DRUD     -2.45410      0.400000           0   0.00000       0.00000    
      1037 MEOH2    95       MEOH2    O1       OD31H     2.48830       15.5990           0  -1.02800       1.30000    
      1038 MEOH2    95       MEOH2    DO1      DRUD     -2.48830      0.400000           0   0.00000       0.00000    
      1039 MEOH2    95       MEOH2    HO1      HDP1A    0.481000       1.00800           0   0.00000       0.00000    
      1040 MEOH2    95       MEOH2    HO2      HDP1A    0.481000       1.00800           0   0.00000       0.00000    
      1041 MEOH2    95       MEOH2    H1A      HDA3B    0.194000       1.00800           0   0.00000       0.00000    
      1042 MEOH2    95       MEOH2    H1B      HDA3B    0.194000       1.00800           0   0.00000       0.00000    
      1043 MEOH2    95       MEOH2    H1C      HDA3B    0.194000       1.00800           0   0.00000       0.00000    
      1044 MEOH2    95       MEOH2    LP1A     LPD     -0.203000       0.00000          -1   0.00000       0.00000    
      1045 MEOH2    95       MEOH2    LP1B     LPD     -0.203000       0.00000          -1   0.00000       0.00000    
      1046 MEOH2    96       MEOH2    C1       CD33B     2.31610       11.6110           0  -1.00000       1.30000    
      1047 MEOH2    96       MEOH2    DC1      DRUD     -2.45410      0.400000           0   0.00000       0.00000    
      1048 MEOH2    96       MEOH2    O1       OD31H     2.48830       15.5990           0  -1.02800       1.30000    
      1049 MEOH2    96       MEOH2    DO1      DRUD     -2.48830      0.400000           0   0.00000       0.00000    
      1050 MEOH2    96       MEOH2    HO1      HDP1A    0.481000       1.00800           0   0.00000       0.00000    
      1051 MEOH2    96       MEOH2    HO2      HDP1A    0.481000       1.00800           0   0.00000       0.00000    
      1052 MEOH2    96       MEOH2    H1A      HDA3B    0.194000       1.00800           0   0.00000       0.00000    
      1053 MEOH2    96       MEOH2    H1B      HDA3B    0.194000       1.00800           0   0.00000       0.00000    
      1054 MEOH2    96       MEOH2    H1C      HDA3B    0.194000       1.00800           0   0.00000       0.00000    
      1055 MEOH2    96       MEOH2    LP1A     LPD     -0.203000       0.00000          -1   0.00000       0.00000    
      1056 MEOH2    96       MEOH2    LP1B     LPD     -0.203000       0.00000          -1   0.00000       0.00000    
      1057 MEOH2    97       MEOH2    C1       CD33B     2.31610       11.6110           0  -1.00000       1.30000    
      1058 MEOH2    97       MEOH2    DC1      DRUD     -2.45410      0.400000           0   0.00000       0.00000    
      1059 MEOH2    97       MEOH2    O1       OD31H     2.48830       15.5990           0  -1.02800       1.30000    
      1060 MEOH2    97       MEOH2    DO1      DRUD     -2.48830      0.400000           0   0.00000       0.00000    
      1061 MEOH2    97       MEOH2    HO1      HDP1A    0.481000       1.00800           0   0.00000       0.00000    
      1062 MEOH2    97       MEOH2    HO2      HDP1A    0.481000       1.00800           0   0.00000       0.00000    
      1063 MEOH2    97       MEOH2    H1A      HDA3B    0.194000       1.00800           0   0.00000       0.00000    
      1064 MEOH2    97       MEOH2    H1B      HDA3B    0.194000       1.00800           0   0.00000       0.00000    
      1065 MEOH2    97       MEOH2    H1C      HDA3B    0.194000       1.00800           0   0.00000       0.00000    
      1066 MEOH2    97       MEOH2    LP1A     LPD     -0.203000       0.00000          -1   0.00000       0.00000    
      1067 MEOH2    97       MEOH2    LP1B     LPD     -0.203000       0.00000          -1   0.00000       0.00000    
      1068 MEOH2    98       MEOH2    C1       CD33B     2.31610       11.6110           0  -1.00000       1.30000    
      1069 MEOH2    98       MEOH2    DC1      DRUD     -2.45410      0.400000           0   0.00000       0.00000    
      1070 MEOH2    98       MEOH2    O1       OD31H     2.48830       15.5990           0  -1.02800       1.30000    
      1071 MEOH2    98       MEOH2    DO1      DRUD     -2.48830      0.400000           0   0.00000       0.00000    
      1072 MEOH2    98       MEOH2    HO1      HDP1A    0.481000       1.00800           0   0.00000       0.00000    
      1073 MEOH2    98       MEOH2    HO2      HDP1A    0.481000       1.00800           0   0.00000       0.00000    
      1074 MEOH2    98       MEOH2    H1A      HDA3B    0.194000       1.00800           0   0.00000       0.00000    
      1075 MEOH2    98       MEOH2    H1B      HDA3B    0.194000       1.00800           0   0.00000       0.00000    
      1076 MEOH2    98       MEOH2    H1C      HDA3B    0.194000       1.00800           0   0.00000       0.00000    
      1077 MEOH2    98       MEOH2    LP1A     LPD     -0.203000       0.00000          -1   0.00000       0.00000    
      1078 MEOH2    98       MEOH2    LP1B     LPD     -0.203000       0.00000          -1   0.00000       0.00000    
      1079 MEOH2    99       MEOH2    C1       CD33B     2.31610       11.6110           0  -1.00000       1.30000    
      1080 MEOH2    99       MEOH2    DC1      DRUD     -2.45410      0.400000           0   0.00000       0.00000    
      1081 MEOH2    99       MEOH2    O1       OD31H     2.48830       15.5990           0  -1.02800       1.30000    
      1082 MEOH2    99       MEOH2    DO1      DRUD     -2.48830      0.400000           0   0.00000       0.00000    
      1083 MEOH2    99       MEOH2    HO1      HDP1A    0.481000       1.00800           0   0.00000       0.00000    
      1084 MEOH2    99       MEOH2    HO2      HDP1A    0.481000       1.00800           0   0.00000       0.00000    
      1085 MEOH2    99       MEOH2    H1A      HDA3B    0.194000       1.00800           0   0.00000       0.00000    
      1086 MEOH2    99       MEOH2    H1B      HDA3B    0.194000       1.00800           0   0.00000       0.00000    
      1087 MEOH2    99       MEOH2    H1C      HDA3B    0.194000       1.00800           0   0.00000       0.00000    
      1088 MEOH2    99       MEOH2    LP1A     LPD     -0.203000       0.00000          -1   0.00000       0.00000    
      1089 MEOH2    99       MEOH2    LP1B     LPD     -0.203000       0.00000          -1   0.00000       0.00000    
      1090 MEOH2    100      MEOH2    C1       CD33B     2.31610       11.6110           0  -1.00000       1.30000    
      1091 MEOH2    100      MEOH2    DC1      DRUD     -2.45410      0.400000           0   0.00000       0.00000    
      1092 MEOH2    100      MEOH2    O1       OD31H     2.48830       15.5990           0  -1.02800       1.30000    
      1093 MEOH2    100      MEOH2    DO1      DRUD     -2.48830      0.400000           0   0.00000       0.00000    
      1094 MEOH2    100      MEOH2    HO1      HDP1A    0.481000       1.00800           0   0.00000       0.00000    
      1095 MEOH2    100      MEOH2    HO2      HDP1A    0.481000       1.00800           0   0.00000       0.00000    
      1096 MEOH2    100      MEOH2    H1A      HDA3B    0.194000       1.00800           0   0.00000       0.00000    
      1097 MEOH2    100      MEOH2    H1B      HDA3B    0.194000       1.00800           0   0.00000       0.00000    
      1098 MEOH2    100      MEOH2    H1C      HDA3B    0.194000       1.00800           0   0.00000       0.00000    
      1099 MEOH2    100      MEOH2    LP1A     LPD     -0.203000       0.00000          -1   0.00000       0.00000    
      1100 MEOH2    100      MEOH2    LP1B     LPD     -0.203000       0.00000          -1   0.00000       0.00000    
      1101 OAC      1        OAC      C1       CD2O2A    3.18170       11.6110           0  -1.01600      0.899000    
      1102 OAC      1        OAC      DC1      DRUD     -2.47370      0.400000           0   0.00000       0.00000    
      1103 OAC      1        OAC      C2       CD33A     2.98790       11.6110           0  -1.68100       1.41400    
      1104 OAC      1        OAC      DC2      DRUD     -3.18190      0.400000           0   0.00000       0.00000    
      1105 OAC      1        OAC      H1       HDA3A    0.400000E-02   1.00800           0   0.00000       0.00000    
      1106 OAC      1        OAC      H2       HDA3A    0.400000E-02   1.00800           0   0.00000       0.00000    
      1107 OAC      1        OAC      H3       HDA3A    0.400000E-02   1.00800           0   0.00000       0.00000    
      1108 OAC      1        OAC      O1       OD2C2A    2.05480       15.5994           0 -0.699000       2.39900    
      1109 OAC      1        OAC      DO1      DRUD     -2.05180      0.400000           0   0.00000       0.00000    
      1110 OAC      1        OAC      O2       OD2C2A    2.05480       15.5994           0 -0.699000       2.39900    
      1111 OAC      1        OAC      DO2      DRUD     -2.05180      0.400000           0   0.00000       0.00000    
      1112 OAC      1        OAC      H        DUMH      0.00000       1.00800           0   0.00000       0.00000    
      1113 OAC      1        OAC      LPO11    LPD     -0.383000       0.00000          -1   0.00000       0.00000    
      1114 OAC      1        OAC      LPO12    LPD     -0.383000       0.00000          -1   0.00000       0.00000    
      1115 OAC      1        OAC      LPO21    LPD     -0.383000       0.00000          -1   0.00000       0.00000    
      1116 OAC      1        OAC      LPO22    LPD     -0.383000       0.00000          -1   0.00000       0.00000    
      1117 OAC      2        OAC      C1       CD2O2A    3.18170       11.6110           0  -1.01600      0.899000    
      1118 OAC      2        OAC      DC1      DRUD     -2.47370      0.400000           0   0.00000       0.00000    
      1119 OAC      2        OAC      C2       CD33A     2.98790       11.6110           0  -1.68100       1.41400    
      1120 OAC      2        OAC      DC2      DRUD     -3.18190      0.400000           0   0.00000       0.00000    
      1121 OAC      2        OAC      H1       HDA3A    0.400000E-02   1.00800           0   0.00000       0.00000    
      1122 OAC      2        OAC      H2       HDA3A    0.400000E-02   1.00800           0   0.00000       0.00000    
      1123 OAC      2        OAC      H3       HDA3A    0.400000E-02   1.00800           0   0.00000       0.00000    
      1124 OAC      2        OAC      O1       OD2C2A    2.05480       15.5994           0 -0.699000       2.39900    
      1125 OAC      2        OAC      DO1      DRUD     -2.05180      0.400000           0   0.00000       0.00000    
      1126 OAC      2        OAC      O2       OD2C2A    2.05480       15.5994           0 -0.699000       2.39900    
      1127 OAC      2        OAC      DO2      DRUD     -2.05180      0.400000           0   0.00000       0.00000    
      1128 OAC      2        OAC      H        DUMH      0.00000       1.00800           0   0.00000       0.00000    
      1129 OAC      2        OAC      LPO11    LPD     -0.383000       0.00000          -1   0.00000       0.00000    
      1130 OAC      2        OAC      LPO12    LPD     -0.383000       0.00000          -1   0.00000       0.00000    
      1131 OAC      2        OAC      LPO21    LPD     -0.383000       0.00000          -1   0.00000       0.00000    
      1132 OAC      2        OAC      LPO22    LPD     -0.383000       0.00000          -1   0.00000       0.00000    
      1133 OAC      3        OAC      C1       CD2O2A    3.18170       11.6110           0  -1.01600      0.899000    
      1134 OAC      3        OAC      DC1      DRUD     -2.47370      0.400000           0   0.00000       0.00000    
      1135 OAC      3        OAC      C2       CD33A     2.98790       11.6110           0  -1.68100       1.41400    
      1136 OAC      3        OAC      DC2      DRUD     -3.18190      0.400000           0   0.00000       0.00000    
      1137 OAC      3        OAC      H1       HDA3A    0.400000E-02   1.00800           0   0.00000       0.00000    
      1138 OAC      3        OAC      H2       HDA3A    0.400000E-02   1.00800           0   0.00000       0.00000    
      1139 OAC      3        OAC      H3       HDA3A    0.400000E-02   1.00800           0   0.00000       0.00000    
      1140 OAC      3        OAC      O1       OD2C2A    2.05480       15.5994           0 -0.699000       2.39900    
      1141 OAC      3        OAC      DO1      DRUD     -2.05180      0.400000           0   0.00000       0.00000    
      1142 OAC      3        OAC      O2       OD2C2A    2.05480       15.5994           0 -0.699000       2.39900    
      1143 OAC      3        OAC      DO2      DRUD     -2.05180      0.400000           0   0.00000       0.00000    
      1144 OAC      3        OAC      H        DUMH      0.00000       1.00800           0   0.00000       0.00000    
      1145 OAC      3        OAC      LPO11    LPD     -0.383000       0.00000          -1   0.00000       0.00000    
      1146 OAC      3        OAC      LPO12    LPD     -0.383000       0.00000          -1   0.00000       0.00000    
      1147 OAC      3        OAC      LPO21    LPD     -0.383000       0.00000          -1   0.00000       0.00000    
      1148 OAC      3        OAC      LPO22    LPD     -0.383000       0.00000          -1   0.00000       0.00000    
      1149 OAC      4        OAC      C1       CD2O2A    3.18170       11.6110           0  -1.01600      0.899000    
      1150 OAC      4        OAC      DC1      DRUD     -2.47370      0.400000           0   0.00000       0.00000    
      1151 OAC      4        OAC      C2       CD33A     2.98790       11.6110           0  -1.68100       1.41400    
      1152 OAC      4        OAC      DC2      DRUD     -3.18190      0.400000           0   0.00000       0.00000    
      1153 OAC      4        OAC      H1       HDA3A    0.400000E-02   1.00800           0   0.00000       0.00000    
      1154 OAC      4        OAC      H2       HDA3A    0.400000E-02   1.00800           0   0.00000       0.00000    
      1155 OAC      4        OAC      H3       HDA3A    0.400000E-02   1.00800           0   0.00000       0.00000    
      1156 OAC      4        OAC      O1       OD2C2A    2.05480       15.5994           0 -0.699000       2.39900    
      1157 OAC      4        OAC      DO1      DRUD     -2.05180      0.400000           0   0.00000       0.00000    
      1158 OAC      4        OAC      O2       OD2C2A    2.05480       15.5994           0 -0.699000       2.39900    
      1159 OAC      4        OAC      DO2      DRUD     -2.05180      0.400000           0   0.00000       0.00000    
      1160 OAC      4        OAC      H        DUMH      0.00000       1.00800           0   0.00000       0.00000    
      1161 OAC      4        OAC      LPO11    LPD     -0.383000       0.00000          -1   0.00000       0.00000    
      1162 OAC      4        OAC      LPO12    LPD     -0.383000       0.00000          -1   0.00000       0.00000    
      1163 OAC      4        OAC      LPO21    LPD     -0.383000       0.00000          -1   0.00000       0.00000    
      1164 OAC      4        OAC      LPO22    LPD     -0.383000       0.00000          -1   0.00000       0.00000    
      1165 OAC      5        OAC      C1       CD2O2A    3.18170       11.6110           0  -1.01600      0.899000    
      1166 OAC      5        OAC      DC1      DRUD     -2.47370      0.400000           0   0.00000       0.00000    
      1167 OAC      5        OAC      C2       CD33A     2.98790       11.6110           0  -1.68100       1.41400    
      1168 OAC      5        OAC      DC2      DRUD     -3.18190      0.400000           0   0.00000       0.00000    
      1169 OAC      5        OAC      H1       HDA3A    0.400000E-02   1.00800           0   0.00000       0.00000    
      1170 OAC      5        OAC      H2       HDA3A    0.400000E-02   1.00800           0   0.00000       0.00000    
      1171 OAC      5        OAC      H3       HDA3A    0.400000E-02   1.00800           0   0.00000       0.00000    
      1172 OAC      5        OAC      O1       OD2C2A    2.05480       15.5994           0 -0.699000       2.39900    
      1173 OAC      5        OAC      DO1      DRUD     -2.05180      0.400000           0   0.00000       0.00000    
      1174 OAC      5        OAC      O2       OD2C2A    2.05480       15.5994           0 -0.699000       2.39900    
      1175 OAC      5        OAC      DO2      DRUD     -2.05180      0.400000           0   0.00000       0.00000    
      1176 OAC      5        OAC      H        DUMH      0.00000       1.00800           0   0.00000       0.00000    
      1177 OAC      5        OAC      LPO11    LPD     -0.383000       0.00000          -1   0.00000       0.00000    
      1178 OAC      5        OAC      LPO12    LPD     -0.383000       0.00000          -1   0.00000       0.00000    
      1179 OAC      5        OAC      LPO21    LPD     -0.383000       0.00000          -1   0.00000       0.00000    
      1180 OAC      5        OAC      LPO22    LPD     -0.383000       0.00000          -1   0.00000       0.00000    
      1181 OAC      6        OAC      C1       CD2O2A    3.18170       11.6110           0  -1.01600      0.899000    
      1182 OAC      6        OAC      DC1      DRUD     -2.47370      0.400000           0   0.00000       0.00000    
      1183 OAC      6        OAC      C2       CD33A     2.98790       11.6110           0  -1.68100       1.41400    
      1184 OAC      6        OAC      DC2      DRUD     -3.18190      0.400000           0   0.00000       0.00000    
      1185 OAC      6        OAC      H1       HDA3A    0.400000E-02   1.00800           0   0.00000       0.00000    
      1186 OAC      6        OAC      H2       HDA3A    0.400000E-02   1.00800           0   0.00000       0.00000    
      1187 OAC      6        OAC      H3       HDA3A    0.400000E-02   1.00800           0   0.00000       0.00000    
      1188 OAC      6        OAC      O1       OD2C2A    2.05480       15.5994           0 -0.699000       2.39900    
      1189 OAC      6        OAC      DO1      DRUD     -2.05180      0.400000           0   0.00000       0.00000    
      1190 OAC      6        OAC      O2       OD2C2A    2.05480       15.5994           0 -0.699000       2.39900    
      1191 OAC      6        OAC      DO2      DRUD     -2.05180      0.400000           0   0.00000       0.00000    
      1192 OAC      6        OAC      H        DUMH      0.00000       1.00800           0   0.00000       0.00000    
      1193 OAC      6        OAC      LPO11    LPD     -0.383000       0.00000          -1   0.00000       0.00000    
      1194 OAC      6        OAC      LPO12    LPD     -0.383000       0.00000          -1   0.00000       0.00000    
      1195 OAC      6        OAC      LPO21    LPD     -0.383000       0.00000          -1   0.00000       0.00000    
      1196 OAC      6        OAC      LPO22    LPD     -0.383000       0.00000          -1   0.00000       0.00000    
      1197 OAC      7        OAC      C1       CD2O2A    3.18170       11.6110           0  -1.01600      0.899000    
      1198 OAC      7        OAC      DC1      DRUD     -2.47370      0.400000           0   0.00000       0.00000    
      1199 OAC      7        OAC      C2       CD33A     2.98790       11.6110           0  -1.68100       1.41400    
      1200 OAC      7        OAC      DC2      DRUD     -3.18190      0.400000           0   0.00000       0.00000    
      1201 OAC      7        OAC      H1       HDA3A    0.400000E-02   1.00800           0   0.00000       0.00000    
      1202 OAC      7        OAC      H2       HDA3A    0.400000E-02   1.00800           0   0.00000       0.00000    
      1203 OAC      7        OAC      H3       HDA3A    0.400000E-02   1.00800           0   0.00000       0.00000    
      1204 OAC      7        OAC      O1       OD2C2A    2.05480       15.5994           0 -0.699000       2.39900    
      1205 OAC      7        OAC      DO1      DRUD     -2.05180      0.400000           0   0.00000       0.00000    
      1206 OAC      7        OAC      O2       OD2C2A    2.05480       15.5994           0 -0.699000       2.39900    
      1207 OAC      7        OAC      DO2      DRUD     -2.05180      0.400000           0   0.00000       0.00000    
      1208 OAC      7        OAC      H        DUMH      0.00000       1.00800           0   0.00000       0.00000    
      1209 OAC      7        OAC      LPO11    LPD     -0.383000       0.00000          -1   0.00000       0.00000    
      1210 OAC      7        OAC      LPO12    LPD     -0.383000       0.00000          -1   0.00000       0.00000    
      1211 OAC      7        OAC      LPO21    LPD     -0.383000       0.00000          -1   0.00000       0.00000    
      1212 OAC      7        OAC      LPO22    LPD     -0.383000       0.00000          -1   0.00000       0.00000    
      1213 OAC      8        OAC      C1       CD2O2A    3.18170       11.6110           0  -1.01600      0.899000    
      1214 OAC      8        OAC      DC1      DRUD     -2.47370      0.400000           0   0.00000       0.00000    
      1215 OAC      8        OAC      C2       CD33A     2.98790       11.6110           0  -1.68100       1.41400    
      1216 OAC      8        OAC      DC2      DRUD     -3.18190      0.400000           0   0.00000       0.00000    
      1217 OAC      8        OAC      H1       HDA3A    0.400000E-02   1.00800           0   0.00000       0.00000    
      1218 OAC      8        OAC      H2       HDA3A    0.400000E-02   1.00800           0   0.00000       0.00000    
      1219 OAC      8        OAC      H3       HDA3A    0.400000E-02   1.00800           0   0.00000       0.00000    
      1220 OAC      8        OAC      O1       OD2C2A    2.05480       15.5994           0 -0.699000       2.39900    
      1221 OAC      8        OAC      DO1      DRUD     -2.05180      0.400000           0   0.00000       0.00000    
      1222 OAC      8        OAC      O2       OD2C2A    2.05480       15.5994           0 -0.699000       2.39900    
      1223 OAC      8        OAC      DO2      DRUD     -2.05180      0.400000           0   0.00000       0.00000    
      1224 OAC      8        OAC      H        DUMH      0.00000       1.00800           0   0.00000       0.00000    
      1225 OAC      8        OAC      LPO11    LPD     -0.383000       0.00000          -1   0.00000       0.00000    
      1226 OAC      8        OAC      LPO12    LPD     -0.383000       0.00000          -1   0.00000       0.00000    
      1227 OAC      8        OAC      LPO21    LPD     -0.383000       0.00000          -1   0.00000       0.00000    
      1228 OAC      8        OAC      LPO22    LPD     -0.383000       0.00000          -1   0.00000       0.00000    
      1229 OAC      9        OAC      C1       CD2O2A    3.18170       11.6110           0  -1.01600      0.899000    
      1230 OAC      9        OAC      DC1      DRUD     -2.47370      0.400000           0   0.00000       0.00000    
      1231 OAC      9        OAC      C2       CD33A     2.98790       11.6110           0  -1.68100       1.41400    
      1232 OAC      9        OAC      DC2      DRUD     -3.18190      0.400000           0   0.00000       0.00000    
      1233 OAC      9        OAC      H1       HDA3A    0.400000E-02   1.00800           0   0.00000       0.00000    
      1234 OAC      9        OAC      H2       HDA3A    0.400000E-02   1.00800           0   0.00000       0.00000    
      1235 OAC      9        OAC      H3       HDA3A    0.400000E-02   1.00800           0   0.00000       0.00000    
      1236 OAC      9        OAC      O1       OD2C2A    2.05480       15.5994           0 -0.699000       2.39900    
      1237 OAC      9        OAC      DO1      DRUD     -2.05180      0.400000           0   0.00000       0.00000    
      1238 OAC      9        OAC      O2       OD2C2A    2.05480       15.5994           0 -0.699000       2.39900    
      1239 OAC      9        OAC      DO2      DRUD     -2.05180      0.400000           0   0.00000       0.00000    
      1240 OAC      9        OAC      H        DUMH      0.00000       1.00800           0   0.00000       0.00000    
      1241 OAC      9        OAC      LPO11    LPD     -0.383000       0.00000          -1   0.00000       0.00000    
      1242 OAC      9        OAC      LPO12    LPD     -0.383000       0.00000          -1   0.00000       0.00000    
      1243 OAC      9        OAC      LPO21    LPD     -0.383000       0.00000          -1   0.00000       0.00000    
      1244 OAC      9        OAC      LPO22    LPD     -0.383000       0.00000          -1   0.00000       0.00000    
      1245 OAC      10       OAC      C1       CD2O2A    3.18170       11.6110           0  -1.01600      0.899000    
      1246 OAC      10       OAC      DC1      DRUD     -2.47370      0.400000           0   0.00000       0.00000    
      1247 OAC      10       OAC      C2       CD33A     2.98790       11.6110           0  -1.68100       1.41400    
      1248 OAC      10       OAC      DC2      DRUD     -3.18190      0.400000           0   0.00000       0.00000    
      1249 OAC      10       OAC      H1       HDA3A    0.400000E-02   1.00800           0   0.00000       0.00000    
      1250 OAC      10       OAC      H2       HDA3A    0.400000E-02   1.00800           0   0.00000       0.00000    
      1251 OAC      10       OAC      H3       HDA3A    0.400000E-02   1.00800           0   0.00000       0.00000    
      1252 OAC      10       OAC      O1       OD2C2A    2.05480       15.5994           0 -0.699000       2.39900    
      1253 OAC      10       OAC      DO1      DRUD     -2.05180      0.400000           0   0.00000       0.00000    
      1254 OAC      10       OAC      O2       OD2C2A    2.05480       15.5994           0 -0.699000       2.39900    
      1255 OAC      10       OAC      DO2      DRUD     -2.05180      0.400000           0   0.00000       0.00000    
      1256 OAC      10       OAC      H        DUMH      0.00000       1.00800           0   0.00000       0.00000    
      1257 OAC      10       OAC      LPO11    LPD     -0.383000       0.00000          -1   0.00000       0.00000    
      1258 OAC      10       OAC      LPO12    LPD     -0.383000       0.00000          -1   0.00000       0.00000    
      1259 OAC      10       OAC      LPO21    LPD     -0.383000       0.00000          -1   0.00000       0.00000    
      1260 OAC      10       OAC      LPO22    LPD     -0.383000       0.00000          -1   0.00000       0.00000    
      1261 OAC      11       OAC      C1       CD2O2A    3.18170       11.6110           0  -1.01600      0.899000    
      1262 OAC      11       OAC      DC1      DRUD     -2.47370      0.400000           0   0.00000       0.00000    
      1263 OAC      11       OAC      C2       CD33A     2.98790       11.6110           0  -1.68100       1.41400    
      1264 OAC      11       OAC      DC2      DRUD     -3.18190      0.400000           0   0.00000       0.00000    
      1265 OAC      11       OAC      H1       HDA3A    0.400000E-02   1.00800           0   0.00000       0.00000    
      1266 OAC      11       OAC      H2       HDA3A    0.400000E-02   1.00800           0   0.00000       0.00000    
      1267 OAC      11       OAC      H3       HDA3A    0.400000E-02   1.00800           0   0.00000       0.00000    
      1268 OAC      11       OAC      O1       OD2C2A    2.05480       15.5994           0 -0.699000       2.39900    
      1269 OAC      11       OAC      DO1      DRUD     -2.05180      0.400000           0   0.00000       0.00000    
      1270 OAC      11       OAC      O2       OD2C2A    2.05480       15.5994           0 -0.699000       2.39900    
      1271 OAC      11       OAC      DO2      DRUD     -2.05180      0.400000           0   0.00000       0.00000    
      1272 OAC      11       OAC      H        DUMH      0.00000       1.00800           0   0.00000       0.00000    
      1273 OAC      11       OAC      LPO11    LPD     -0.383000       0.00000          -1   0.00000       0.00000    
      1274 OAC      11       OAC      LPO12    LPD     -0.383000       0.00000          -1   0.00000       0.00000    
      1275 OAC      11       OAC      LPO21    LPD     -0.383000       0.00000          -1   0.00000       0.00000    
      1276 OAC      11       OAC      LPO22    LPD     -0.383000       0.00000          -1   0.00000       0.00000    
      1277 OAC      12       OAC      C1       CD2O2A    3.18170       11.6110           0  -1.01600      0.899000    
      1278 OAC      12       OAC      DC1      DRUD     -2.47370      0.400000           0   0.00000       0.00000    
      1279 OAC      12       OAC      C2       CD33A     2.98790       11.6110           0  -1.68100       1.41400    
      1280 OAC      12       OAC      DC2      DRUD     -3.18190      0.400000           0   0.00000       0.00000    
      1281 OAC      12       OAC      H1       HDA3A    0.400000E-02   1.00800           0   0.00000       0.00000    
      1282 OAC      12       OAC      H2       HDA3A    0.400000E-02   1.00800           0   0.00000       0.00000    
      1283 OAC      12       OAC      H3       HDA3A    0.400000E-02   1.00800           0   0.00000       0.00000    
      1284 OAC      12       OAC      O1       OD2C2A    2.05480       15.5994           0 -0.699000       2.39900    
      1285 OAC      12       OAC      DO1      DRUD     -2.05180      0.400000           0   0.00000       0.00000    
      1286 OAC      12       OAC      O2       OD2C2A    2.05480       15.5994           0 -0.699000       2.39900    
      1287 OAC      12       OAC      DO2      DRUD     -2.05180      0.400000           0   0.00000       0.00000    
      1288 OAC      12       OAC      H        DUMH      0.00000       1.00800           0   0.00000       0.00000    
      1289 OAC      12       OAC      LPO11    LPD     -0.383000       0.00000          -1   0.00000       0.00000    
      1290 OAC      12       OAC      LPO12    LPD     -0.383000       0.00000          -1   0.00000       0.00000    
      1291 OAC      12       OAC      LPO21    LPD     -0.383000       0.00000          -1   0.00000       0.00000    
      1292 OAC      12       OAC      LPO22    LPD     -0.383000       0.00000          -1   0.00000       0.00000    
      1293 OAC      13       OAC      C1       CD2O2A    3.18170       11.6110           0  -1.01600      0.899000    
      1294 OAC      13       OAC      DC1      DRUD     -2.47370      0.400000           0   0.00000       0.00000    
      1295 OAC      13       OAC      C2       CD33A     2.98790       11.6110           0  -1.68100       1.41400    
      1296 OAC      13       OAC      DC2      DRUD     -3.18190      0.400000           0   0.00000       0.00000    
      1297 OAC      13       OAC      H1       HDA3A    0.400000E-02   1.00800           0   0.00000       0.00000    
      1298 OAC      13       OAC      H2       HDA3A    0.400000E-02   1.00800           0   0.00000       0.00000    
      1299 OAC      13       OAC      H3       HDA3A    0.400000E-02   1.00800           0   0.00000       0.00000    
      1300 OAC      13       OAC      O1       OD2C2A    2.05480       15.5994           0 -0.699000       2.39900    
      1301 OAC      13       OAC      DO1      DRUD     -2.05180      0.400000           0   0.00000       0.00000    
      1302 OAC      13       OAC      O2       OD2C2A    2.05480       15.5994           0 -0.699000       2.39900    
      1303 OAC      13       OAC      DO2      DRUD     -2.05180      0.400000           0   0.00000       0.00000    
      1304 OAC      13       OAC      H        DUMH      0.00000       1.00800           0   0.00000       0.00000    
      1305 OAC      13       OAC      LPO11    LPD     -0.383000       0.00000          -1   0.00000       0.00000    
      1306 OAC      13       OAC      LPO12    LPD     -0.383000       0.00000          -1   0.00000       0.00000    
      1307 OAC      13       OAC      LPO21    LPD     -0.383000       0.00000          -1   0.00000       0.00000    
      1308 OAC      13       OAC      LPO22    LPD     -0.383000       0.00000          -1   0.00000       0.00000    
      1309 OAC      14       OAC      C1       CD2O2A    3.18170       11.6110           0  -1.01600      0.899000    
      1310 OAC      14       OAC      DC1      DRUD     -2.47370      0.400000           0   0.00000       0.00000    
      1311 OAC      14       OAC      C2       CD33A     2.98790       11.6110           0  -1.68100       1.41400    
      1312 OAC      14       OAC      DC2      DRUD     -3.18190      0.400000           0   0.00000       0.00000    
      1313 OAC      14       OAC      H1       HDA3A    0.400000E-02   1.00800           0   0.00000       0.00000    
      1314 OAC      14       OAC      H2       HDA3A    0.400000E-02   1.00800           0   0.00000       0.00000    
      1315 OAC      14       OAC      H3       HDA3A    0.400000E-02   1.00800           0   0.00000       0.00000    
      1316 OAC      14       OAC      O1       OD2C2A    2.05480       15.5994           0 -0.699000       2.39900    
      1317 OAC      14       OAC      DO1      DRUD     -2.05180      0.400000           0   0.00000       0.00000    
      1318 OAC      14       OAC      O2       OD2C2A    2.05480       15.5994           0 -0.699000       2.39900    
      1319 OAC      14       OAC      DO2      DRUD     -2.05180      0.400000           0   0.00000       0.00000    
      1320 OAC      14       OAC      H        DUMH      0.00000       1.00800           0   0.00000       0.00000    
      1321 OAC      14       OAC      LPO11    LPD     -0.383000       0.00000          -1   0.00000       0.00000    
      1322 OAC      14       OAC      LPO12    LPD     -0.383000       0.00000          -1   0.00000       0.00000    
      1323 OAC      14       OAC      LPO21    LPD     -0.383000       0.00000          -1   0.00000       0.00000    
      1324 OAC      14       OAC      LPO22    LPD     -0.383000       0.00000          -1   0.00000       0.00000    
      1325 OAC      15       OAC      C1       CD2O2A    3.18170       11.6110           0  -1.01600      0.899000    
      1326 OAC      15       OAC      DC1      DRUD     -2.47370      0.400000           0   0.00000       0.00000    
      1327 OAC      15       OAC      C2       CD33A     2.98790       11.6110           0  -1.68100       1.41400    
      1328 OAC      15       OAC      DC2      DRUD     -3.18190      0.400000           0   0.00000       0.00000    
      1329 OAC      15       OAC      H1       HDA3A    0.400000E-02   1.00800           0   0.00000       0.00000    
      1330 OAC      15       OAC      H2       HDA3A    0.400000E-02   1.00800           0   0.00000       0.00000    
      1331 OAC      15       OAC      H3       HDA3A    0.400000E-02   1.00800           0   0.00000       0.00000    
      1332 OAC      15       OAC      O1       OD2C2A    2.05480       15.5994           0 -0.699000       2.39900    
      1333 OAC      15       OAC      DO1      DRUD     -2.05180      0.400000           0   0.00000       0.00000    
      1334 OAC      15       OAC      O2       OD2C2A    2.05480       15.5994           0 -0.699000       2.39900    
      1335 OAC      15       OAC      DO2      DRUD     -2.05180      0.400000           0   0.00000       0.00000    
      1336 OAC      15       OAC      H        DUMH      0.00000       1.00800           0   0.00000       0.00000    
      1337 OAC      15       OAC      LPO11    LPD     -0.383000       0.00000          -1   0.00000       0.00000    
      1338 OAC      15       OAC      LPO12    LPD     -0.383000       0.00000          -1   0.00000       0.00000    
      1339 OAC      15       OAC      LPO21    LPD     -0.383000       0.00000          -1   0.00000       0.00000    
      1340 OAC      15       OAC      LPO22    LPD     -0.383000       0.00000          -1   0.00000       0.00000    
      1341 OAC      16       OAC      C1       CD2O2A    3.18170       11.6110           0  -1.01600      0.899000    
      1342 OAC      16       OAC      DC1      DRUD     -2.47370      0.400000           0   0.00000       0.00000    
      1343 OAC      16       OAC      C2       CD33A     2.98790       11.6110           0  -1.68100       1.41400    
      1344 OAC      16       OAC      DC2      DRUD     -3.18190      0.400000           0   0.00000       0.00000    
      1345 OAC      16       OAC      H1       HDA3A    0.400000E-02   1.00800           0   0.00000       0.00000    
      1346 OAC      16       OAC      H2       HDA3A    0.400000E-02   1.00800           0   0.00000       0.00000    
      1347 OAC      16       OAC      H3       HDA3A    0.400000E-02   1.00800           0   0.00000       0.00000    
      1348 OAC      16       OAC      O1       OD2C2A    2.05480       15.5994           0 -0.699000       2.39900    
      1349 OAC      16       OAC      DO1      DRUD     -2.05180      0.400000           0   0.00000       0.00000    
      1350 OAC      16       OAC      O2       OD2C2A    2.05480       15.5994           0 -0.699000       2.39900    
      1351 OAC      16       OAC      DO2      DRUD     -2.05180      0.400000           0   0.00000       0.00000    
      1352 OAC      16       OAC      H        DUMH      0.00000       1.00800           0   0.00000       0.00000    
      1353 OAC      16       OAC      LPO11    LPD     -0.383000       0.00000          -1   0.00000       0.00000    
      1354 OAC      16       OAC      LPO12    LPD     -0.383000       0.00000          -1   0.00000       0.00000    
      1355 OAC      16       OAC      LPO21    LPD     -0.383000       0.00000          -1   0.00000       0.00000    
      1356 OAC      16       OAC      LPO22    LPD     -0.383000       0.00000          -1   0.00000       0.00000    
      1357 OAC      17       OAC      C1       CD2O2A    3.18170       11.6110           0  -1.01600      0.899000    
      1358 OAC      17       OAC      DC1      DRUD     -2.47370      0.400000           0   0.00000       0.00000    
      1359 OAC      17       OAC      C2       CD33A     2.98790       11.6110           0  -1.68100       1.41400    
      1360 OAC      17       OAC      DC2      DRUD     -3.18190      0.400000           0   0.00000       0.00000    
      1361 OAC      17       OAC      H1       HDA3A    0.400000E-02   1.00800           0   0.00000       0.00000    
      1362 OAC      17       OAC      H2       HDA3A    0.400000E-02   1.00800           0   0.00000       0.00000    
      1363 OAC      17       OAC      H3       HDA3A    0.400000E-02   1.00800           0   0.00000       0.00000    
      1364 OAC      17       OAC      O1       OD2C2A    2.05480       15.5994           0 -0.699000       2.39900    
      1365 OAC      17       OAC      DO1      DRUD     -2.05180      0.400000           0   0.00000       0.00000    
      1366 OAC      17       OAC      O2       OD2C2A    2.05480       15.5994           0 -0.699000       2.39900    
      1367 OAC      17       OAC      DO2      DRUD     -2.05180      0.400000           0   0.00000       0.00000    
      1368 OAC      17       OAC      H        DUMH      0.00000       1.00800           0   0.00000       0.00000    
      1369 OAC      17       OAC      LPO11    LPD     -0.383000       0.00000          -1   0.00000       0.00000    
      1370 OAC      17       OAC      LPO12    LPD     -0.383000       0.00000          -1   0.00000       0.00000    
      1371 OAC      17       OAC      LPO21    LPD     -0.383000       0.00000          -1   0.00000       0.00000    
      1372 OAC      17       OAC      LPO22    LPD     -0.383000       0.00000          -1   0.00000       0.00000    
      1373 OAC      18       OAC      C1       CD2O2A    3.18170       11.6110           0  -1.01600      0.899000    
      1374 OAC      18       OAC      DC1      DRUD     -2.47370      0.400000           0   0.00000       0.00000    
      1375 OAC      18       OAC      C2       CD33A     2.98790       11.6110           0  -1.68100       1.41400    
      1376 OAC      18       OAC      DC2      DRUD     -3.18190      0.400000           0   0.00000       0.00000    
      1377 OAC      18       OAC      H1       HDA3A    0.400000E-02   1.00800           0   0.00000       0.00000    
      1378 OAC      18       OAC      H2       HDA3A    0.400000E-02   1.00800           0   0.00000       0.00000    
      1379 OAC      18       OAC      H3       HDA3A    0.400000E-02   1.00800           0   0.00000       0.00000    
      1380 OAC      18       OAC      O1       OD2C2A    2.05480       15.5994           0 -0.699000       2.39900    
      1381 OAC      18       OAC      DO1      DRUD     -2.05180      0.400000           0   0.00000       0.00000    
      1382 OAC      18       OAC      O2       OD2C2A    2.05480       15.5994           0 -0.699000       2.39900    
      1383 OAC      18       OAC      DO2      DRUD     -2.05180      0.400000           0   0.00000       0.00000    
      1384 OAC      18       OAC      H        DUMH      0.00000       1.00800           0   0.00000       0.00000    
      1385 OAC      18       OAC      LPO11    LPD     -0.383000       0.00000          -1   0.00000       0.00000    
      1386 OAC      18       OAC      LPO12    LPD     -0.383000       0.00000          -1   0.00000       0.00000    
      1387 OAC      18       OAC      LPO21    LPD     -0.383000       0.00000          -1   0.00000       0.00000    
      1388 OAC      18       OAC      LPO22    LPD     -0.383000       0.00000          -1   0.00000       0.00000    
      1389 OAC      19       OAC      C1       CD2O2A    3.18170       11.6110           0  -1.01600      0.899000    
      1390 OAC      19       OAC      DC1      DRUD     -2.47370      0.400000           0   0.00000       0.00000    
      1391 OAC      19       OAC      C2       CD33A     2.98790       11.6110           0  -1.68100       1.41400    
      1392 OAC      19       OAC      DC2      DRUD     -3.18190      0.400000           0   0.00000       0.00000    
      1393 OAC      19       OAC      H1       HDA3A    0.400000E-02   1.00800           0   0.00000       0.00000    
      1394 OAC      19       OAC      H2       HDA3A    0.400000E-02   1.00800           0   0.00000       0.00000    
      1395 OAC      19       OAC      H3       HDA3A    0.400000E-02   1.00800           0   0.00000       0.00000    
      1396 OAC      19       OAC      O1       OD2C2A    2.05480       15.5994           0 -0.699000       2.39900    
      1397 OAC      19       OAC      DO1      DRUD     -2.05180      0.400000           0   0.00000       0.00000    
      1398 OAC      19       OAC      O2       OD2C2A    2.05480       15.5994           0 -0.699000       2.39900    
      1399 OAC      19       OAC      DO2      DRUD     -2.05180      0.400000           0   0.00000       0.00000    
      1400 OAC      19       OAC      H        DUMH      0.00000       1.00800           0   0.00000       0.00000    
      1401 OAC      19       OAC      LPO11    LPD     -0.383000       0.00000          -1   0.00000       0.00000    
      1402 OAC      19       OAC      LPO12    LPD     -0.383000       0.00000          -1   0.00000       0.00000    
      1403 OAC      19       OAC      LPO21    LPD     -0.383000       0.00000          -1   0.00000       0.00000    
      1404 OAC      19       OAC      LPO22    LPD     -0.383000       0.00000          -1   0.00000       0.00000    
      1405 OAC      20       OAC      C1       CD2O2A    3.18170       11.6110           0  -1.01600      0.899000    
      1406 OAC      20       OAC      DC1      DRUD     -2.47370      0.400000           0   0.00000       0.00000    
      1407 OAC      20       OAC      C2       CD33A     2.98790       11.6110           0  -1.68100       1.41400    
      1408 OAC      20       OAC      DC2      DRUD     -3.18190      0.400000           0   0.00000       0.00000    
      1409 OAC      20       OAC      H1       HDA3A    0.400000E-02   1.00800           0   0.00000       0.00000    
      1410 OAC      20       OAC      H2       HDA3A    0.400000E-02   1.00800           0   0.00000       0.00000    
      1411 OAC      20       OAC      H3       HDA3A    0.400000E-02   1.00800           0   0.00000       0.00000    
      1412 OAC      20       OAC      O1       OD2C2A    2.05480       15.5994           0 -0.699000       2.39900    
      1413 OAC      20       OAC      DO1      DRUD     -2.05180      0.400000           0   0.00000       0.00000    
      1414 OAC      20       OAC      O2       OD2C2A    2.05480       15.5994           0 -0.699000       2.39900    
      1415 OAC      20       OAC      DO2      DRUD     -2.05180      0.400000           0   0.00000       0.00000    
      1416 OAC      20       OAC      H        DUMH      0.00000       1.00800           0   0.00000       0.00000    
      1417 OAC      20       OAC      LPO11    LPD     -0.383000       0.00000          -1   0.00000       0.00000    
      1418 OAC      20       OAC      LPO12    LPD     -0.383000       0.00000          -1   0.00000       0.00000    
      1419 OAC      20       OAC      LPO21    LPD     -0.383000       0.00000          -1   0.00000       0.00000    
      1420 OAC      20       OAC      LPO22    LPD     -0.383000       0.00000          -1   0.00000       0.00000    
      1421 OAC      21       OAC      C1       CD2O2A    3.18170       11.6110           0  -1.01600      0.899000    
      1422 OAC      21       OAC      DC1      DRUD     -2.47370      0.400000           0   0.00000       0.00000    
      1423 OAC      21       OAC      C2       CD33A     2.98790       11.6110           0  -1.68100       1.41400    
      1424 OAC      21       OAC      DC2      DRUD     -3.18190      0.400000           0   0.00000       0.00000    
      1425 OAC      21       OAC      H1       HDA3A    0.400000E-02   1.00800           0   0.00000       0.00000    
      1426 OAC      21       OAC      H2       HDA3A    0.400000E-02   1.00800           0   0.00000       0.00000    
      1427 OAC      21       OAC      H3       HDA3A    0.400000E-02   1.00800           0   0.00000       0.00000    
      1428 OAC      21       OAC      O1       OD2C2A    2.05480       15.5994           0 -0.699000       2.39900    
      1429 OAC      21       OAC      DO1      DRUD     -2.05180      0.400000           0   0.00000       0.00000    
      1430 OAC      21       OAC      O2       OD2C2A    2.05480       15.5994           0 -0.699000       2.39900    
      1431 OAC      21       OAC      DO2      DRUD     -2.05180      0.400000           0   0.00000       0.00000    
      1432 OAC      21       OAC      H        DUMH      0.00000       1.00800           0   0.00000       0.00000    
      1433 OAC      21       OAC      LPO11    LPD     -0.383000       0.00000          -1   0.00000       0.00000    
      1434 OAC      21       OAC      LPO12    LPD     -0.383000       0.00000          -1   0.00000       0.00000    
      1435 OAC      21       OAC      LPO21    LPD     -0.383000       0.00000          -1   0.00000       0.00000    
      1436 OAC      21       OAC      LPO22    LPD     -0.383000       0.00000          -1   0.00000       0.00000    
      1437 OAC      22       OAC      C1       CD2O2A    3.18170       11.6110           0  -1.01600      0.899000    
      1438 OAC      22       OAC      DC1      DRUD     -2.47370      0.400000           0   0.00000       0.00000    
      1439 OAC      22       OAC      C2       CD33A     2.98790       11.6110           0  -1.68100       1.41400    
      1440 OAC      22       OAC      DC2      DRUD     -3.18190      0.400000           0   0.00000       0.00000    
      1441 OAC      22       OAC      H1       HDA3A    0.400000E-02   1.00800           0   0.00000       0.00000    
      1442 OAC      22       OAC      H2       HDA3A    0.400000E-02   1.00800           0   0.00000       0.00000    
      1443 OAC      22       OAC      H3       HDA3A    0.400000E-02   1.00800           0   0.00000       0.00000    
      1444 OAC      22       OAC      O1       OD2C2A    2.05480       15.5994           0 -0.699000       2.39900    
      1445 OAC      22       OAC      DO1      DRUD     -2.05180      0.400000           0   0.00000       0.00000    
      1446 OAC      22       OAC      O2       OD2C2A    2.05480       15.5994           0 -0.699000       2.39900    
      1447 OAC      22       OAC      DO2      DRUD     -2.05180      0.400000           0   0.00000       0.00000    
      1448 OAC      22       OAC      H        DUMH      0.00000       1.00800           0   0.00000       0.00000    
      1449 OAC      22       OAC      LPO11    LPD     -0.383000       0.00000          -1   0.00000       0.00000    
      1450 OAC      22       OAC      LPO12    LPD     -0.383000       0.00000          -1   0.00000       0.00000    
      1451 OAC      22       OAC      LPO21    LPD     -0.383000       0.00000          -1   0.00000       0.00000    
      1452 OAC      22       OAC      LPO22    LPD     -0.383000       0.00000          -1   0.00000       0.00000    
      1453 OAC      23       OAC      C1       CD2O2A    3.18170       11.6110           0  -1.01600      0.899000    
      1454 OAC      23       OAC      DC1      DRUD     -2.47370      0.400000           0   0.00000       0.00000    
      1455 OAC      23       OAC      C2       CD33A     2.98790       11.6110           0  -1.68100       1.41400    
      1456 OAC      23       OAC      DC2      DRUD     -3.18190      0.400000           0   0.00000       0.00000    
      1457 OAC      23       OAC      H1       HDA3A    0.400000E-02   1.00800           0   0.00000       0.00000    
      1458 OAC      23       OAC      H2       HDA3A    0.400000E-02   1.00800           0   0.00000       0.00000    
      1459 OAC      23       OAC      H3       HDA3A    0.400000E-02   1.00800           0   0.00000       0.00000    
      1460 OAC      23       OAC      O1       OD2C2A    2.05480       15.5994           0 -0.699000       2.39900    
      1461 OAC      23       OAC      DO1      DRUD     -2.05180      0.400000           0   0.00000       0.00000    
      1462 OAC      23       OAC      O2       OD2C2A    2.05480       15.5994           0 -0.699000       2.39900    
      1463 OAC      23       OAC      DO2      DRUD     -2.05180      0.400000           0   0.00000       0.00000    
      1464 OAC      23       OAC      H        DUMH      0.00000       1.00800           0   0.00000       0.00000    
      1465 OAC      23       OAC      LPO11    LPD     -0.383000       0.00000          -1   0.00000       0.00000    
      1466 OAC      23       OAC      LPO12    LPD     -0.383000       0.00000          -1   0.00000       0.00000    
      1467 OAC      23       OAC      LPO21    LPD     -0.383000       0.00000          -1   0.00000       0.00000    
      1468 OAC      23       OAC      LPO22    LPD     -0.383000       0.00000          -1   0.00000       0.00000    
      1469 OAC      24       OAC      C1       CD2O2A    3.18170       11.6110           0  -1.01600      0.899000    
      1470 OAC      24       OAC      DC1      DRUD     -2.47370      0.400000           0   0.00000       0.00000    
      1471 OAC      24       OAC      C2       CD33A     2.98790       11.6110           0  -1.68100       1.41400    
      1472 OAC      24       OAC      DC2      DRUD     -3.18190      0.400000           0   0.00000       0.00000    
      1473 OAC      24       OAC      H1       HDA3A    0.400000E-02   1.00800           0   0.00000       0.00000    
      1474 OAC      24       OAC      H2       HDA3A    0.400000E-02   1.00800           0   0.00000       0.00000    
      1475 OAC      24       OAC      H3       HDA3A    0.400000E-02   1.00800           0   0.00000       0.00000    
      1476 OAC      24       OAC      O1       OD2C2A    2.05480       15.5994           0 -0.699000       2.39900    
      1477 OAC      24       OAC      DO1      DRUD     -2.05180      0.400000           0   0.00000       0.00000    
      1478 OAC      24       OAC      O2       OD2C2A    2.05480       15.5994           0 -0.699000       2.39900    
      1479 OAC      24       OAC      DO2      DRUD     -2.05180      0.400000           0   0.00000       0.00000    
      1480 OAC      24       OAC      H        DUMH      0.00000       1.00800           0   0.00000       0.00000    
      1481 OAC      24       OAC      LPO11    LPD     -0.383000       0.00000          -1   0.00000       0.00000    
      1482 OAC      24       OAC      LPO12    LPD     -0.383000       0.00000          -1   0.00000       0.00000    
      1483 OAC      24       OAC      LPO21    LPD     -0.383000       0.00000          -1   0.00000       0.00000    
      1484 OAC      24       OAC      LPO22    LPD     -0.383000       0.00000          -1   0.00000       0.00000    
      1485 OAC      25       OAC      C1       CD2O2A    3.18170       11.6110           0  -1.01600      0.899000    
      1486 OAC      25       OAC      DC1      DRUD     -2.47370      0.400000           0   0.00000       0.00000    
      1487 OAC      25       OAC      C2       CD33A     2.98790       11.6110           0  -1.68100       1.41400    
      1488 OAC      25       OAC      DC2      DRUD     -3.18190      0.400000           0   0.00000       0.00000    
      1489 OAC      25       OAC      H1       HDA3A    0.400000E-02   1.00800           0   0.00000       0.00000    
      1490 OAC      25       OAC      H2       HDA3A    0.400000E-02   1.00800           0   0.00000       0.00000    
      1491 OAC      25       OAC      H3       HDA3A    0.400000E-02   1.00800           0   0.00000       0.00000    
      1492 OAC      25       OAC      O1       OD2C2A    2.05480       15.5994           0 -0.699000       2.39900    
      1493 OAC      25       OAC      DO1      DRUD     -2.05180      0.400000           0   0.00000       0.00000    
      1494 OAC      25       OAC      O2       OD2C2A    2.05480       15.5994           0 -0.699000       2.39900    
      1495 OAC      25       OAC      DO2      DRUD     -2.05180      0.400000           0   0.00000       0.00000    
      1496 OAC      25       OAC      H        DUMH      0.00000       1.00800           0   0.00000       0.00000    
      1497 OAC      25       OAC      LPO11    LPD     -0.383000       0.00000          -1   0.00000       0.00000    
      1498 OAC      25       OAC      LPO12    LPD     -0.383000       0.00000          -1   0.00000       0.00000    
      1499 OAC      25       OAC      LPO21    LPD     -0.383000       0.00000          -1   0.00000       0.00000    
      1500 OAC      25       OAC      LPO22    LPD     -0.383000       0.00000          -1   0.00000       0.00000    
      1501 OAC      26       OAC      C1       CD2O2A    3.18170       11.6110           0  -1.01600      0.899000    
      1502 OAC      26       OAC      DC1      DRUD     -2.47370      0.400000           0   0.00000       0.00000    
      1503 OAC      26       OAC      C2       CD33A     2.98790       11.6110           0  -1.68100       1.41400    
      1504 OAC      26       OAC      DC2      DRUD     -3.18190      0.400000           0   0.00000       0.00000    
      1505 OAC      26       OAC      H1       HDA3A    0.400000E-02   1.00800           0   0.00000       0.00000    
      1506 OAC      26       OAC      H2       HDA3A    0.400000E-02   1.00800           0   0.00000       0.00000    
      1507 OAC      26       OAC      H3       HDA3A    0.400000E-02   1.00800           0   0.00000       0.00000    
      1508 OAC      26       OAC      O1       OD2C2A    2.05480       15.5994           0 -0.699000       2.39900    
      1509 OAC      26       OAC      DO1      DRUD     -2.05180      0.400000           0   0.00000       0.00000    
      1510 OAC      26       OAC      O2       OD2C2A    2.05480       15.5994           0 -0.699000       2.39900    
      1511 OAC      26       OAC      DO2      DRUD     -2.05180      0.400000           0   0.00000       0.00000    
      1512 OAC      26       OAC      H        DUMH      0.00000       1.00800           0   0.00000       0.00000    
      1513 OAC      26       OAC      LPO11    LPD     -0.383000       0.00000          -1   0.00000       0.00000    
      1514 OAC      26       OAC      LPO12    LPD     -0.383000       0.00000          -1   0.00000       0.00000    
      1515 OAC      26       OAC      LPO21    LPD     -0.383000       0.00000          -1   0.00000       0.00000    
      1516 OAC      26       OAC      LPO22    LPD     -0.383000       0.00000          -1   0.00000       0.00000    
      1517 OAC      27       OAC      C1       CD2O2A    3.18170       11.6110           0  -1.01600      0.899000    
      1518 OAC      27       OAC      DC1      DRUD     -2.47370      0.400000           0   0.00000       0.00000    
      1519 OAC      27       OAC      C2       CD33A     2.98790       11.6110           0  -1.68100       1.41400    
      1520 OAC      27       OAC      DC2      DRUD     -3.18190      0.400000           0   0.00000       0.00000    
      1521 OAC      27       OAC      H1       HDA3A    0.400000E-02   1.00800           0   0.00000       0.00000    
      1522 OAC      27       OAC      H2       HDA3A    0.400000E-02   1.00800           0   0.00000       0.00000    
      1523 OAC      27       OAC      H3       HDA3A    0.400000E-02   1.00800           0   0.00000       0.00000    
      1524 OAC      27       OAC      O1       OD2C2A    2.05480       15.5994           0 -0.699000       2.39900    
      1525 OAC      27       OAC      DO1      DRUD     -2.05180      0.400000           0   0.00000       0.00000    
      1526 OAC      27       OAC      O2       OD2C2A    2.05480       15.5994           0 -0.699000       2.39900    
      1527 OAC      27       OAC      DO2      DRUD     -2.05180      0.400000           0   0.00000       0.00000    
      1528 OAC      27       OAC      H        DUMH      0.00000       1.00800           0   0.00000       0.00000    
      1529 OAC      27       OAC      LPO11    LPD     -0.383000       0.00000          -1   0.00000       0.00000    
      1530 OAC      27       OAC      LPO12    LPD     -0.383000       0.00000          -1   0.00000       0.00000    
      1531 OAC      27       OAC      LPO21    LPD     -0.383000       0.00000          -1   0.00000       0.00000    
      1532 OAC      27       OAC      LPO22    LPD     -0.383000       0.00000          -1   0.00000       0.00000    
      1533 OAC      28       OAC      C1       CD2O2A    3.18170       11.6110           0  -1.01600      0.899000    
      1534 OAC      28       OAC      DC1      DRUD     -2.47370      0.400000           0   0.00000       0.00000    
      1535 OAC      28       OAC      C2       CD33A     2.98790       11.6110           0  -1.68100       1.41400    
      1536 OAC      28       OAC      DC2      DRUD     -3.18190      0.400000           0   0.00000       0.00000    
      1537 OAC      28       OAC      H1       HDA3A    0.400000E-02   1.00800           0   0.00000       0.00000    
      1538 OAC      28       OAC      H2       HDA3A    0.400000E-02   1.00800           0   0.00000       0.00000    
      1539 OAC      28       OAC      H3       HDA3A    0.400000E-02   1.00800           0   0.00000       0.00000    
      1540 OAC      28       OAC      O1       OD2C2A    2.05480       15.5994           0 -0.699000       2.39900    
      1541 OAC      28       OAC      DO1      DRUD     -2.05180      0.400000           0   0.00000       0.00000    
      1542 OAC      28       OAC      O2       OD2C2A    2.05480       15.5994           0 -0.699000       2.39900    
      1543 OAC      28       OAC      DO2      DRUD     -2.05180      0.400000           0   0.00000       0.00000    
      1544 OAC      28       OAC      H        DUMH      0.00000       1.00800           0   0.00000       0.00000    
      1545 OAC      28       OAC      LPO11    LPD     -0.383000       0.00000          -1   0.00000       0.00000    
      1546 OAC      28       OAC      LPO12    LPD     -0.383000       0.00000          -1   0.00000       0.00000    
      1547 OAC      28       OAC      LPO21    LPD     -0.383000       0.00000          -1   0.00000       0.00000    
      1548 OAC      28       OAC      LPO22    LPD     -0.383000       0.00000          -1   0.00000       0.00000    
      1549 OAC      29       OAC      C1       CD2O2A    3.18170       11.6110           0  -1.01600      0.899000    
      1550 OAC      29       OAC      DC1      DRUD     -2.47370      0.400000           0   0.00000       0.00000    
      1551 OAC      29       OAC      C2       CD33A     2.98790       11.6110           0  -1.68100       1.41400    
      1552 OAC      29       OAC      DC2      DRUD     -3.18190      0.400000           0   0.00000       0.00000    
      1553 OAC      29       OAC      H1       HDA3A    0.400000E-02   1.00800           0   0.00000       0.00000    
      1554 OAC      29       OAC      H2       HDA3A    0.400000E-02   1.00800           0   0.00000       0.00000    
      1555 OAC      29       OAC      H3       HDA3A    0.400000E-02   1.00800           0   0.00000       0.00000    
      1556 OAC      29       OAC      O1       OD2C2A    2.05480       15.5994           0 -0.699000       2.39900    
      1557 OAC      29       OAC      DO1      DRUD     -2.05180      0.400000           0   0.00000       0.00000    
      1558 OAC      29       OAC      O2       OD2C2A    2.05480       15.5994           0 -0.699000       2.39900    
      1559 OAC      29       OAC      DO2      DRUD     -2.05180      0.400000           0   0.00000       0.00000    
      1560 OAC      29       OAC      H        DUMH      0.00000       1.00800           0   0.00000       0.00000    
      1561 OAC      29       OAC      LPO11    LPD     -0.383000       0.00000          -1   0.00000       0.00000    
      1562 OAC      29       OAC      LPO12    LPD     -0.383000       0.00000          -1   0.00000       0.00000    
      1563 OAC      29       OAC      LPO21    LPD     -0.383000       0.00000          -1   0.00000       0.00000    
      1564 OAC      29       OAC      LPO22    LPD     -0.383000       0.00000          -1   0.00000       0.00000    
      1565 OAC      30       OAC      C1       CD2O2A    3.18170       11.6110           0  -1.01600      0.899000    
      1566 OAC      30       OAC      DC1      DRUD     -2.47370      0.400000           0   0.00000       0.00000    
      1567 OAC      30       OAC      C2       CD33A     2.98790       11.6110           0  -1.68100       1.41400    
      1568 OAC      30       OAC      DC2      DRUD     -3.18190      0.400000           0   0.00000       0.00000    
      1569 OAC      30       OAC      H1       HDA3A    0.400000E-02   1.00800           0   0.00000       0.00000    
      1570 OAC      30       OAC      H2       HDA3A    0.400000E-02   1.00800           0   0.00000       0.00000    
      1571 OAC      30       OAC      H3       HDA3A    0.400000E-02   1.00800           0   0.00000       0.00000    
      1572 OAC      30       OAC      O1       OD2C2A    2.05480       15.5994           0 -0.699000       2.39900    
      1573 OAC      30       OAC      DO1      DRUD     -2.05180      0.400000           0   0.00000       0.00000    
      1574 OAC      30       OAC      O2       OD2C2A    2.05480       15.5994           0 -0.699000       2.39900    
      1575 OAC      30       OAC      DO2      DRUD     -2.05180      0.400000           0   0.00000       0.00000    
      1576 OAC      30       OAC      H        DUMH      0.00000       1.00800           0   0.00000       0.00000    
      1577 OAC      30       OAC      LPO11    LPD     -0.383000       0.00000          -1   0.00000       0.00000    
      1578 OAC      30       OAC      LPO12    LPD     -0.383000       0.00000          -1   0.00000       0.00000    
      1579 OAC      30       OAC      LPO21    LPD     -0.383000       0.00000          -1   0.00000       0.00000    
      1580 OAC      30       OAC      LPO22    LPD     -0.383000       0.00000          -1   0.00000       0.00000    
      1581 OAC      31       OAC      C1       CD2O2A    3.18170       11.6110           0  -1.01600      0.899000    
      1582 OAC      31       OAC      DC1      DRUD     -2.47370      0.400000           0   0.00000       0.00000    
      1583 OAC      31       OAC      C2       CD33A     2.98790       11.6110           0  -1.68100       1.41400    
      1584 OAC      31       OAC      DC2      DRUD     -3.18190      0.400000           0   0.00000       0.00000    
      1585 OAC      31       OAC      H1       HDA3A    0.400000E-02   1.00800           0   0.00000       0.00000    
      1586 OAC      31       OAC      H2       HDA3A    0.400000E-02   1.00800           0   0.00000       0.00000    
      1587 OAC      31       OAC      H3       HDA3A    0.400000E-02   1.00800           0   0.00000       0.00000    
      1588 OAC      31       OAC      O1       OD2C2A    2.05480       15.5994           0 -0.699000       2.39900    
      1589 OAC      31       OAC      DO1      DRUD     -2.05180      0.400000           0   0.00000       0.00000    
      1590 OAC      31       OAC      O2       OD2C2A    2.05480       15.5994           0 -0.699000       2.39900    
      1591 OAC      31       OAC      DO2      DRUD     -2.05180      0.400000           0   0.00000       0.00000    
      1592 OAC      31       OAC      H        DUMH      0.00000       1.00800           0   0.00000       0.00000    
      1593 OAC      31       OAC      LPO11    LPD     -0.383000       0.00000          -1   0.00000       0.00000    
      1594 OAC      31       OAC      LPO12    LPD     -0.383000       0.00000          -1   0.00000       0.00000    
      1595 OAC      31       OAC      LPO21    LPD     -0.383000       0.00000          -1   0.00000       0.00000    
      1596 OAC      31       OAC      LPO22    LPD     -0.383000       0.00000          -1   0.00000       0.00000    
      1597 OAC      32       OAC      C1       CD2O2A    3.18170       11.6110           0  -1.01600      0.899000    
      1598 OAC      32       OAC      DC1      DRUD     -2.47370      0.400000           0   0.00000       0.00000    
      1599 OAC      32       OAC      C2       CD33A     2.98790       11.6110           0  -1.68100       1.41400    
      1600 OAC      32       OAC      DC2      DRUD     -3.18190      0.400000           0   0.00000       0.00000    
      1601 OAC      32       OAC      H1       HDA3A    0.400000E-02   1.00800           0   0.00000       0.00000    
      1602 OAC      32       OAC      H2       HDA3A    0.400000E-02   1.00800           0   0.00000       0.00000    
      1603 OAC      32       OAC      H3       HDA3A    0.400000E-02   1.00800           0   0.00000       0.00000    
      1604 OAC      32       OAC      O1       OD2C2A    2.05480       15.5994           0 -0.699000       2.39900    
      1605 OAC      32       OAC      DO1      DRUD     -2.05180      0.400000           0   0.00000       0.00000    
      1606 OAC      32       OAC      O2       OD2C2A    2.05480       15.5994           0 -0.699000       2.39900    
      1607 OAC      32       OAC      DO2      DRUD     -2.05180      0.400000           0   0.00000       0.00000    
      1608 OAC      32       OAC      H        DUMH      0.00000       1.00800           0   0.00000       0.00000    
      1609 OAC      32       OAC      LPO11    LPD     -0.383000       0.00000          -1   0.00000       0.00000    
      1610 OAC      32       OAC      LPO12    LPD     -0.383000       0.00000          -1   0.00000       0.00000    
      1611 OAC      32       OAC      LPO21    LPD     -0.383000       0.00000          -1   0.00000       0.00000    
      1612 OAC      32       OAC      LPO22    LPD     -0.383000       0.00000          -1   0.00000       0.00000    
      1613 OAC      33       OAC      C1       CD2O2A    3.18170       11.6110           0  -1.01600      0.899000    
      1614 OAC      33       OAC      DC1      DRUD     -2.47370      0.400000           0   0.00000       0.00000    
      1615 OAC      33       OAC      C2       CD33A     2.98790       11.6110           0  -1.68100       1.41400    
      1616 OAC      33       OAC      DC2      DRUD     -3.18190      0.400000           0   0.00000       0.00000    
      1617 OAC      33       OAC      H1       HDA3A    0.400000E-02   1.00800           0   0.00000       0.00000    
      1618 OAC      33       OAC      H2       HDA3A    0.400000E-02   1.00800           0   0.00000       0.00000    
      1619 OAC      33       OAC      H3       HDA3A    0.400000E-02   1.00800           0   0.00000       0.00000    
      1620 OAC      33       OAC      O1       OD2C2A    2.05480       15.5994           0 -0.699000       2.39900    
      1621 OAC      33       OAC      DO1      DRUD     -2.05180      0.400000           0   0.00000       0.00000    
      1622 OAC      33       OAC      O2       OD2C2A    2.05480       15.5994           0 -0.699000       2.39900    
      1623 OAC      33       OAC      DO2      DRUD     -2.05180      0.400000           0   0.00000       0.00000    
      1624 OAC      33       OAC      H        DUMH      0.00000       1.00800           0   0.00000       0.00000    
      1625 OAC      33       OAC      LPO11    LPD     -0.383000       0.00000          -1   0.00000       0.00000    
      1626 OAC      33       OAC      LPO12    LPD     -0.383000       0.00000          -1   0.00000       0.00000    
      1627 OAC      33       OAC      LPO21    LPD     -0.383000       0.00000          -1   0.00000       0.00000    
      1628 OAC      33       OAC      LPO22    LPD     -0.383000       0.00000          -1   0.00000       0.00000    
      1629 OAC      34       OAC      C1       CD2O2A    3.18170       11.6110           0  -1.01600      0.899000    
      1630 OAC      34       OAC      DC1      DRUD     -2.47370      0.400000           0   0.00000       0.00000    
      1631 OAC      34       OAC      C2       CD33A     2.98790       11.6110           0  -1.68100       1.41400    
      1632 OAC      34       OAC      DC2      DRUD     -3.18190      0.400000           0   0.00000       0.00000    
      1633 OAC      34       OAC      H1       HDA3A    0.400000E-02   1.00800           0   0.00000       0.00000    
      1634 OAC      34       OAC      H2       HDA3A    0.400000E-02   1.00800           0   0.00000       0.00000    
      1635 OAC      34       OAC      H3       HDA3A    0.400000E-02   1.00800           0   0.00000       0.00000    
      1636 OAC      34       OAC      O1       OD2C2A    2.05480       15.5994           0 -0.699000       2.39900    
      1637 OAC      34       OAC      DO1      DRUD     -2.05180      0.400000           0   0.00000       0.00000    
      1638 OAC      34       OAC      O2       OD2C2A    2.05480       15.5994           0 -0.699000       2.39900    
      1639 OAC      34       OAC      DO2      DRUD     -2.05180      0.400000           0   0.00000       0.00000    
      1640 OAC      34       OAC      H        DUMH      0.00000       1.00800           0   0.00000       0.00000    
      1641 OAC      34       OAC      LPO11    LPD     -0.383000       0.00000          -1   0.00000       0.00000    
      1642 OAC      34       OAC      LPO12    LPD     -0.383000       0.00000          -1   0.00000       0.00000    
      1643 OAC      34       OAC      LPO21    LPD     -0.383000       0.00000          -1   0.00000       0.00000    
      1644 OAC      34       OAC      LPO22    LPD     -0.383000       0.00000          -1   0.00000       0.00000    
      1645 OAC      35       OAC      C1       CD2O2A    3.18170       11.6110           0  -1.01600      0.899000    
      1646 OAC      35       OAC      DC1      DRUD     -2.47370      0.400000           0   0.00000       0.00000    
      1647 OAC      35       OAC      C2       CD33A     2.98790       11.6110           0  -1.68100       1.41400    
      1648 OAC      35       OAC      DC2      DRUD     -3.18190      0.400000           0   0.00000       0.00000    
      1649 OAC      35       OAC      H1       HDA3A    0.400000E-02   1.00800           0   0.00000       0.00000    
      1650 OAC      35       OAC      H2       HDA3A    0.400000E-02   1.00800           0   0.00000       0.00000    
      1651 OAC      35       OAC      H3       HDA3A    0.400000E-02   1.00800           0   0.00000       0.00000    
      1652 OAC      35       OAC      O1       OD2C2A    2.05480       15.5994           0 -0.699000       2.39900    
      1653 OAC      35       OAC      DO1      DRUD     -2.05180      0.400000           0   0.00000       0.00000    
      1654 OAC      35       OAC      O2       OD2C2A    2.05480       15.5994           0 -0.699000       2.39900    
      1655 OAC      35       OAC      DO2      DRUD     -2.05180      0.400000           0   0.00000       0.00000    
      1656 OAC      35       OAC      H        DUMH      0.00000       1.00800           0   0.00000       0.00000    
      1657 OAC      35       OAC      LPO11    LPD     -0.383000       0.00000          -1   0.00000       0.00000    
      1658 OAC      35       OAC      LPO12    LPD     -0.383000       0.00000          -1   0.00000       0.00000    
      1659 OAC      35       OAC      LPO21    LPD     -0.383000       0.00000          -1   0.00000       0.00000    
      1660 OAC      35       OAC      LPO22    LPD     -0.383000       0.00000          -1   0.00000       0.00000    
      1661 OAC      36       OAC      C1       CD2O2A    3.18170       11.6110           0  -1.01600      0.899000    
      1662 OAC      36       OAC      DC1      DRUD     -2.47370      0.400000           0   0.00000       0.00000    
      1663 OAC      36       OAC      C2       CD33A     2.98790       11.6110           0  -1.68100       1.41400    
      1664 OAC      36       OAC      DC2      DRUD     -3.18190      0.400000           0   0.00000       0.00000    
      1665 OAC      36       OAC      H1       HDA3A    0.400000E-02   1.00800           0   0.00000       0.00000    
      1666 OAC      36       OAC      H2       HDA3A    0.400000E-02   1.00800           0   0.00000       0.00000    
      1667 OAC      36       OAC      H3       HDA3A    0.400000E-02   1.00800           0   0.00000       0.00000    
      1668 OAC      36       OAC      O1       OD2C2A    2.05480       15.5994           0 -0.699000       2.39900    
      1669 OAC      36       OAC      DO1      DRUD     -2.05180      0.400000           0   0.00000       0.00000    
      1670 OAC      36       OAC      O2       OD2C2A    2.05480       15.5994           0 -0.699000       2.39900    
      1671 OAC      36       OAC      DO2      DRUD     -2.05180      0.400000           0   0.00000       0.00000    
      1672 OAC      36       OAC      H        DUMH      0.00000       1.00800           0   0.00000       0.00000    
      1673 OAC      36       OAC      LPO11    LPD     -0.383000       0.00000          -1   0.00000       0.00000    
      1674 OAC      36       OAC      LPO12    LPD     -0.383000       0.00000          -1   0.00000       0.00000    
      1675 OAC      36       OAC      LPO21    LPD     -0.383000       0.00000          -1   0.00000       0.00000    
      1676 OAC      36       OAC      LPO22    LPD     -0.383000       0.00000          -1   0.00000       0.00000    
      1677 OAC      37       OAC      C1       CD2O2A    3.18170       11.6110           0  -1.01600      0.899000    
      1678 OAC      37       OAC      DC1      DRUD     -2.47370      0.400000           0   0.00000       0.00000    
      1679 OAC      37       OAC      C2       CD33A     2.98790       11.6110           0  -1.68100       1.41400    
      1680 OAC      37       OAC      DC2      DRUD     -3.18190      0.400000           0   0.00000       0.00000    
      1681 OAC      37       OAC      H1       HDA3A    0.400000E-02   1.00800           0   0.00000       0.00000    
      1682 OAC      37       OAC      H2       HDA3A    0.400000E-02   1.00800           0   0.00000       0.00000    
      1683 OAC      37       OAC      H3       HDA3A    0.400000E-02   1.00800           0   0.00000       0.00000    
      1684 OAC      37       OAC      O1       OD2C2A    2.05480       15.5994           0 -0.699000       2.39900    
      1685 OAC      37       OAC      DO1      DRUD     -2.05180      0.400000           0   0.00000       0.00000    
      1686 OAC      37       OAC      O2       OD2C2A    2.05480       15.5994           0 -0.699000       2.39900    
      1687 OAC      37       OAC      DO2      DRUD     -2.05180      0.400000           0   0.00000       0.00000    
      1688 OAC      37       OAC      H        DUMH      0.00000       1.00800           0   0.00000       0.00000    
      1689 OAC      37       OAC      LPO11    LPD     -0.383000       0.00000          -1   0.00000       0.00000    
      1690 OAC      37       OAC      LPO12    LPD     -0.383000       0.00000          -1   0.00000       0.00000    
      1691 OAC      37       OAC      LPO21    LPD     -0.383000       0.00000          -1   0.00000       0.00000    
      1692 OAC      37       OAC      LPO22    LPD     -0.383000       0.00000          -1   0.00000       0.00000    
      1693 OAC      38       OAC      C1       CD2O2A    3.18170       11.6110           0  -1.01600      0.899000    
      1694 OAC      38       OAC      DC1      DRUD     -2.47370      0.400000           0   0.00000       0.00000    
      1695 OAC      38       OAC      C2       CD33A     2.98790       11.6110           0  -1.68100       1.41400    
      1696 OAC      38       OAC      DC2      DRUD     -3.18190      0.400000           0   0.00000       0.00000    
      1697 OAC      38       OAC      H1       HDA3A    0.400000E-02   1.00800           0   0.00000       0.00000    
      1698 OAC      38       OAC      H2       HDA3A    0.400000E-02   1.00800           0   0.00000       0.00000    
      1699 OAC      38       OAC      H3       HDA3A    0.400000E-02   1.00800           0   0.00000       0.00000    
      1700 OAC      38       OAC      O1       OD2C2A    2.05480       15.5994           0 -0.699000       2.39900    
      1701 OAC      38       OAC      DO1      DRUD     -2.05180      0.400000           0   0.00000       0.00000    
      1702 OAC      38       OAC      O2       OD2C2A    2.05480       15.5994           0 -0.699000       2.39900    
      1703 OAC      38       OAC      DO2      DRUD     -2.05180      0.400000           0   0.00000       0.00000    
      1704 OAC      38       OAC      H        DUMH      0.00000       1.00800           0   0.00000       0.00000    
      1705 OAC      38       OAC      LPO11    LPD     -0.383000       0.00000          -1   0.00000       0.00000    
      1706 OAC      38       OAC      LPO12    LPD     -0.383000       0.00000          -1   0.00000       0.00000    
      1707 OAC      38       OAC      LPO21    LPD     -0.383000       0.00000          -1   0.00000       0.00000    
      1708 OAC      38       OAC      LPO22    LPD     -0.383000       0.00000          -1   0.00000       0.00000    
      1709 OAC      39       OAC      C1       CD2O2A    3.18170       11.6110           0  -1.01600      0.899000    
      1710 OAC      39       OAC      DC1      DRUD     -2.47370      0.400000           0   0.00000       0.00000    
      1711 OAC      39       OAC      C2       CD33A     2.98790       11.6110           0  -1.68100       1.41400    
      1712 OAC      39       OAC      DC2      DRUD     -3.18190      0.400000           0   0.00000       0.00000    
      1713 OAC      39       OAC      H1       HDA3A    0.400000E-02   1.00800           0   0.00000       0.00000    
      1714 OAC      39       OAC      H2       HDA3A    0.400000E-02   1.00800           0   0.00000       0.00000    
      1715 OAC      39       OAC      H3       HDA3A    0.400000E-02   1.00800           0   0.00000       0.00000    
      1716 OAC      39       OAC      O1       OD2C2A    2.05480       15.5994           0 -0.699000       2.39900    
      1717 OAC      39       OAC      DO1      DRUD     -2.05180      0.400000           0   0.00000       0.00000    
      1718 OAC      39       OAC      O2       OD2C2A    2.05480       15.5994           0 -0.699000       2.39900    
      1719 OAC      39       OAC      DO2      DRUD     -2.05180      0.400000           0   0.00000       0.00000    
      1720 OAC      39       OAC      H        DUMH      0.00000       1.00800           0   0.00000       0.00000    
      1721 OAC      39       OAC      LPO11    LPD     -0.383000       0.00000          -1   0.00000       0.00000    
      1722 OAC      39       OAC      LPO12    LPD     -0.383000       0.00000          -1   0.00000       0.00000    
      1723 OAC      39       OAC      LPO21    LPD     -0.383000       0.00000          -1   0.00000       0.00000    
      1724 OAC      39       OAC      LPO22    LPD     -0.383000       0.00000          -1   0.00000       0.00000    
      1725 OAC      40       OAC      C1       CD2O2A    3.18170       11.6110           0  -1.01600      0.899000    
      1726 OAC      40       OAC      DC1      DRUD     -2.47370      0.400000           0   0.00000       0.00000    
      1727 OAC      40       OAC      C2       CD33A     2.98790       11.6110           0  -1.68100       1.41400    
      1728 OAC      40       OAC      DC2      DRUD     -3.18190      0.400000           0   0.00000       0.00000    
      1729 OAC      40       OAC      H1       HDA3A    0.400000E-02   1.00800           0   0.00000       0.00000    
      1730 OAC      40       OAC      H2       HDA3A    0.400000E-02   1.00800           0   0.00000       0.00000    
      1731 OAC      40       OAC      H3       HDA3A    0.400000E-02   1.00800           0   0.00000       0.00000    
      1732 OAC      40       OAC      O1       OD2C2A    2.05480       15.5994           0 -0.699000       2.39900    
      1733 OAC      40       OAC      DO1      DRUD     -2.05180      0.400000           0   0.00000       0.00000    
      1734 OAC      40       OAC      O2       OD2C2A    2.05480       15.5994           0 -0.699000       2.39900    
      1735 OAC      40       OAC      DO2      DRUD     -2.05180      0.400000           0   0.00000       0.00000    
      1736 OAC      40       OAC      H        DUMH      0.00000       1.00800           0   0.00000       0.00000    
      1737 OAC      40       OAC      LPO11    LPD     -0.383000       0.00000          -1   0.00000       0.00000    
      1738 OAC      40       OAC      LPO12    LPD     -0.383000       0.00000          -1   0.00000       0.00000    
      1739 OAC      40       OAC      LPO21    LPD     -0.383000       0.00000          -1   0.00000       0.00000    
      1740 OAC      40       OAC      LPO22    LPD     -0.383000       0.00000          -1   0.00000       0.00000    
      1741 OAC      41       OAC      C1       CD2O2A    3.18170       11.6110           0  -1.01600      0.899000    
      1742 OAC      41       OAC      DC1      DRUD     -2.47370      0.400000           0   0.00000       0.00000    
      1743 OAC      41       OAC      C2       CD33A     2.98790       11.6110           0  -1.68100       1.41400    
      1744 OAC      41       OAC      DC2      DRUD     -3.18190      0.400000           0   0.00000       0.00000    
      1745 OAC      41       OAC      H1       HDA3A    0.400000E-02   1.00800           0   0.00000       0.00000    
      1746 OAC      41       OAC      H2       HDA3A    0.400000E-02   1.00800           0   0.00000       0.00000    
      1747 OAC      41       OAC      H3       HDA3A    0.400000E-02   1.00800           0   0.00000       0.00000    
      1748 OAC      41       OAC      O1       OD2C2A    2.05480       15.5994           0 -0.699000       2.39900    
      1749 OAC      41       OAC      DO1      DRUD     -2.05180      0.400000           0   0.00000       0.00000    
      1750 OAC      41       OAC      O2       OD2C2A    2.05480       15.5994           0 -0.699000       2.39900    
      1751 OAC      41       OAC      DO2      DRUD     -2.05180      0.400000           0   0.00000       0.00000    
      1752 OAC      41       OAC      H        DUMH      0.00000       1.00800           0   0.00000       0.00000    
      1753 OAC      41       OAC      LPO11    LPD     -0.383000       0.00000          -1   0.00000       0.00000    
      1754 OAC      41       OAC      LPO12    LPD     -0.383000       0.00000          -1   0.00000       0.00000    
      1755 OAC      41       OAC      LPO21    LPD     -0.383000       0.00000          -1   0.00000       0.00000    
      1756 OAC      41       OAC      LPO22    LPD     -0.383000       0.00000          -1   0.00000       0.00000    
      1757 OAC      42       OAC      C1       CD2O2A    3.18170       11.6110           0  -1.01600      0.899000    
      1758 OAC      42       OAC      DC1      DRUD     -2.47370      0.400000           0   0.00000       0.00000    
      1759 OAC      42       OAC      C2       CD33A     2.98790       11.6110           0  -1.68100       1.41400    
      1760 OAC      42       OAC      DC2      DRUD     -3.18190      0.400000           0   0.00000       0.00000    
      1761 OAC      42       OAC      H1       HDA3A    0.400000E-02   1.00800           0   0.00000       0.00000    
      1762 OAC      42       OAC      H2       HDA3A    0.400000E-02   1.00800           0   0.00000       0.00000    
      1763 OAC      42       OAC      H3       HDA3A    0.400000E-02   1.00800           0   0.00000       0.00000    
      1764 OAC      42       OAC      O1       OD2C2A    2.05480       15.5994           0 -0.699000       2.39900    
      1765 OAC      42       OAC      DO1      DRUD     -2.05180      0.400000           0   0.00000       0.00000    
      1766 OAC      42       OAC      O2       OD2C2A    2.05480       15.5994           0 -0.699000       2.39900    
      1767 OAC      42       OAC      DO2      DRUD     -2.05180      0.400000           0   0.00000       0.00000    
      1768 OAC      42       OAC      H        DUMH      0.00000       1.00800           0   0.00000       0.00000    
      1769 OAC      42       OAC      LPO11    LPD     -0.383000       0.00000          -1   0.00000       0.00000    
      1770 OAC      42       OAC      LPO12    LPD     -0.383000       0.00000          -1   0.00000       0.00000    
      1771 OAC      42       OAC      LPO21    LPD     -0.383000       0.00000          -1   0.00000       0.00000    
      1772 OAC      42       OAC      LPO22    LPD     -0.383000       0.00000          -1   0.00000       0.00000    
      1773 OAC      43       OAC      C1       CD2O2A    3.18170       11.6110           0  -1.01600      0.899000    
      1774 OAC      43       OAC      DC1      DRUD     -2.47370      0.400000           0   0.00000       0.00000    
      1775 OAC      43       OAC      C2       CD33A     2.98790       11.6110           0  -1.68100       1.41400    
      1776 OAC      43       OAC      DC2      DRUD     -3.18190      0.400000           0   0.00000       0.00000    
      1777 OAC      43       OAC      H1       HDA3A    0.400000E-02   1.00800           0   0.00000       0.00000    
      1778 OAC      43       OAC      H2       HDA3A    0.400000E-02   1.00800           0   0.00000       0.00000    
      1779 OAC      43       OAC      H3       HDA3A    0.400000E-02   1.00800           0   0.00000       0.00000    
      1780 OAC      43       OAC      O1       OD2C2A    2.05480       15.5994           0 -0.699000       2.39900    
      1781 OAC      43       OAC      DO1      DRUD     -2.05180      0.400000           0   0.00000       0.00000    
      1782 OAC      43       OAC      O2       OD2C2A    2.05480       15.5994           0 -0.699000       2.39900    
      1783 OAC      43       OAC      DO2      DRUD     -2.05180      0.400000           0   0.00000       0.00000    
      1784 OAC      43       OAC      H        DUMH      0.00000       1.00800           0   0.00000       0.00000    
      1785 OAC      43       OAC      LPO11    LPD     -0.383000       0.00000          -1   0.00000       0.00000    
      1786 OAC      43       OAC      LPO12    LPD     -0.383000       0.00000          -1   0.00000       0.00000    
      1787 OAC      43       OAC      LPO21    LPD     -0.383000       0.00000          -1   0.00000       0.00000    
      1788 OAC      43       OAC      LPO22    LPD     -0.383000       0.00000          -1   0.00000       0.00000    
      1789 OAC      44       OAC      C1       CD2O2A    3.18170       11.6110           0  -1.01600      0.899000    
      1790 OAC      44       OAC      DC1      DRUD     -2.47370      0.400000           0   0.00000       0.00000    
      1791 OAC      44       OAC      C2       CD33A     2.98790       11.6110           0  -1.68100       1.41400    
      1792 OAC      44       OAC      DC2      DRUD     -3.18190      0.400000           0   0.00000       0.00000    
      1793 OAC      44       OAC      H1       HDA3A    0.400000E-02   1.00800           0   0.00000       0.00000    
      1794 OAC      44       OAC      H2       HDA3A    0.400000E-02   1.00800           0   0.00000       0.00000    
      1795 OAC      44       OAC      H3       HDA3A    0.400000E-02   1.00800           0   0.00000       0.00000    
      1796 OAC      44       OAC      O1       OD2C2A    2.05480       15.5994           0 -0.699000       2.39900    
      1797 OAC      44       OAC      DO1      DRUD     -2.05180      0.400000           0   0.00000       0.00000    
      1798 OAC      44       OAC      O2       OD2C2A    2.05480       15.5994           0 -0.699000       2.39900    
      1799 OAC      44       OAC      DO2      DRUD     -2.05180      0.400000           0   0.00000       0.00000    
      1800 OAC      44       OAC      H        DUMH      0.00000       1.00800           0   0.00000       0.00000    
      1801 OAC      44       OAC      LPO11    LPD     -0.383000       0.00000          -1   0.00000       0.00000    
      1802 OAC      44       OAC      LPO12    LPD     -0.383000       0.00000          -1   0.00000       0.00000    
      1803 OAC      44       OAC      LPO21    LPD     -0.383000       0.00000          -1   0.00000       0.00000    
      1804 OAC      44       OAC      LPO22    LPD     -0.383000       0.00000          -1   0.00000       0.00000    
      1805 OAC      45       OAC      C1       CD2O2A    3.18170       11.6110           0  -1.01600      0.899000    
      1806 OAC      45       OAC      DC1      DRUD     -2.47370      0.400000           0   0.00000       0.00000    
      1807 OAC      45       OAC      C2       CD33A     2.98790       11.6110           0  -1.68100       1.41400    
      1808 OAC      45       OAC      DC2      DRUD     -3.18190      0.400000           0   0.00000       0.00000    
      1809 OAC      45       OAC      H1       HDA3A    0.400000E-02   1.00800           0   0.00000       0.00000    
      1810 OAC      45       OAC      H2       HDA3A    0.400000E-02   1.00800           0   0.00000       0.00000    
      1811 OAC      45       OAC      H3       HDA3A    0.400000E-02   1.00800           0   0.00000       0.00000    
      1812 OAC      45       OAC      O1       OD2C2A    2.05480       15.5994           0 -0.699000       2.39900    
      1813 OAC      45       OAC      DO1      DRUD     -2.05180      0.400000           0   0.00000       0.00000    
      1814 OAC      45       OAC      O2       OD2C2A    2.05480       15.5994           0 -0.699000       2.39900    
      1815 OAC      45       OAC      DO2      DRUD     -2.05180      0.400000           0   0.00000       0.00000    
      1816 OAC      45       OAC      H        DUMH      0.00000       1.00800           0   0.00000       0.00000    
      1817 OAC      45       OAC      LPO11    LPD     -0.383000       0.00000          -1   0.00000       0.00000    
      1818 OAC      45       OAC      LPO12    LPD     -0.383000       0.00000          -1   0.00000       0.00000    
      1819 OAC      45       OAC      LPO21    LPD     -0.383000       0.00000          -1   0.00000       0.00000    
      1820 OAC      45       OAC      LPO22    LPD     -0.383000       0.00000          -1   0.00000       0.00000    
      1821 OAC      46       OAC      C1       CD2O2A    3.18170       11.6110           0  -1.01600      0.899000    
      1822 OAC      46       OAC      DC1      DRUD     -2.47370      0.400000           0   0.00000       0.00000    
      1823 OAC      46       OAC      C2       CD33A     2.98790       11.6110           0  -1.68100       1.41400    
      1824 OAC      46       OAC      DC2      DRUD     -3.18190      0.400000           0   0.00000       0.00000    
      1825 OAC      46       OAC      H1       HDA3A    0.400000E-02   1.00800           0   0.00000       0.00000    
      1826 OAC      46       OAC      H2       HDA3A    0.400000E-02   1.00800           0   0.00000       0.00000    
      1827 OAC      46       OAC      H3       HDA3A    0.400000E-02   1.00800           0   0.00000       0.00000    
      1828 OAC      46       OAC      O1       OD2C2A    2.05480       15.5994           0 -0.699000       2.39900    
      1829 OAC      46       OAC      DO1      DRUD     -2.05180      0.400000           0   0.00000       0.00000    
      1830 OAC      46       OAC      O2       OD2C2A    2.05480       15.5994           0 -0.699000       2.39900    
      1831 OAC      46       OAC      DO2      DRUD     -2.05180      0.400000           0   0.00000       0.00000    
      1832 OAC      46       OAC      H        DUMH      0.00000       1.00800           0   0.00000       0.00000    
      1833 OAC      46       OAC      LPO11    LPD     -0.383000       0.00000          -1   0.00000       0.00000    
      1834 OAC      46       OAC      LPO12    LPD     -0.383000       0.00000          -1   0.00000       0.00000    
      1835 OAC      46       OAC      LPO21    LPD     -0.383000       0.00000          -1   0.00000       0.00000    
      1836 OAC      46       OAC      LPO22    LPD     -0.383000       0.00000          -1   0.00000       0.00000    
      1837 OAC      47       OAC      C1       CD2O2A    3.18170       11.6110           0  -1.01600      0.899000    
      1838 OAC      47       OAC      DC1      DRUD     -2.47370      0.400000           0   0.00000       0.00000    
      1839 OAC      47       OAC      C2       CD33A     2.98790       11.6110           0  -1.68100       1.41400    
      1840 OAC      47       OAC      DC2      DRUD     -3.18190      0.400000           0   0.00000       0.00000    
      1841 OAC      47       OAC      H1       HDA3A    0.400000E-02   1.00800           0   0.00000       0.00000    
      1842 OAC      47       OAC      H2       HDA3A    0.400000E-02   1.00800           0   0.00000       0.00000    
      1843 OAC      47       OAC      H3       HDA3A    0.400000E-02   1.00800           0   0.00000       0.00000    
      1844 OAC      47       OAC      O1       OD2C2A    2.05480       15.5994           0 -0.699000       2.39900    
      1845 OAC      47       OAC      DO1      DRUD     -2.05180      0.400000           0   0.00000       0.00000    
      1846 OAC      47       OAC      O2       OD2C2A    2.05480       15.5994           0 -0.699000       2.39900    
      1847 OAC      47       OAC      DO2      DRUD     -2.05180      0.400000           0   0.00000       0.00000    
      1848 OAC      47       OAC      H        DUMH      0.00000       1.00800           0   0.00000       0.00000    
      1849 OAC      47       OAC      LPO11    LPD     -0.383000       0.00000          -1   0.00000       0.00000    
      1850 OAC      47       OAC      LPO12    LPD     -0.383000       0.00000          -1   0.00000       0.00000    
      1851 OAC      47       OAC      LPO21    LPD     -0.383000       0.00000          -1   0.00000       0.00000    
      1852 OAC      47       OAC      LPO22    LPD     -0.383000       0.00000          -1   0.00000       0.00000    
      1853 OAC      48       OAC      C1       CD2O2A    3.18170       11.6110           0  -1.01600      0.899000    
      1854 OAC      48       OAC      DC1      DRUD     -2.47370      0.400000           0   0.00000       0.00000    
      1855 OAC      48       OAC      C2       CD33A     2.98790       11.6110           0  -1.68100       1.41400    
      1856 OAC      48       OAC      DC2      DRUD     -3.18190      0.400000           0   0.00000       0.00000    
      1857 OAC      48       OAC      H1       HDA3A    0.400000E-02   1.00800           0   0.00000       0.00000    
      1858 OAC      48       OAC      H2       HDA3A    0.400000E-02   1.00800           0   0.00000       0.00000    
      1859 OAC      48       OAC      H3       HDA3A    0.400000E-02   1.00800           0   0.00000       0.00000    
      1860 OAC      48       OAC      O1       OD2C2A    2.05480       15.5994           0 -0.699000       2.39900    
      1861 OAC      48       OAC      DO1      DRUD     -2.05180      0.400000           0   0.00000       0.00000    
      1862 OAC      48       OAC      O2       OD2C2A    2.05480       15.5994           0 -0.699000       2.39900    
      1863 OAC      48       OAC      DO2      DRUD     -2.05180      0.400000           0   0.00000       0.00000    
      1864 OAC      48       OAC      H        DUMH      0.00000       1.00800           0   0.00000       0.00000    
      1865 OAC      48       OAC      LPO11    LPD     -0.383000       0.00000          -1   0.00000       0.00000    
      1866 OAC      48       OAC      LPO12    LPD     -0.383000       0.00000          -1   0.00000       0.00000    
      1867 OAC      48       OAC      LPO21    LPD     -0.383000       0.00000          -1   0.00000       0.00000    
      1868 OAC      48       OAC      LPO22    LPD     -0.383000       0.00000          -1   0.00000       0.00000    
      1869 OAC      49       OAC      C1       CD2O2A    3.18170       11.6110           0  -1.01600      0.899000    
      1870 OAC      49       OAC      DC1      DRUD     -2.47370      0.400000           0   0.00000       0.00000    
      1871 OAC      49       OAC      C2       CD33A     2.98790       11.6110           0  -1.68100       1.41400    
      1872 OAC      49       OAC      DC2      DRUD     -3.18190      0.400000           0   0.00000       0.00000    
      1873 OAC      49       OAC      H1       HDA3A    0.400000E-02   1.00800           0   0.00000       0.00000    
      1874 OAC      49       OAC      H2       HDA3A    0.400000E-02   1.00800           0   0.00000       0.00000    
      1875 OAC      49       OAC      H3       HDA3A    0.400000E-02   1.00800           0   0.00000       0.00000    
      1876 OAC      49       OAC      O1       OD2C2A    2.05480       15.5994           0 -0.699000       2.39900    
      1877 OAC      49       OAC      DO1      DRUD     -2.05180      0.400000           0   0.00000       0.00000    
      1878 OAC      49       OAC      O2       OD2C2A    2.05480       15.5994           0 -0.699000       2.39900    
      1879 OAC      49       OAC      DO2      DRUD     -2.05180      0.400000           0   0.00000       0.00000    
      1880 OAC      49       OAC      H        DUMH      0.00000       1.00800           0   0.00000       0.00000    
      1881 OAC      49       OAC      LPO11    LPD     -0.383000       0.00000          -1   0.00000       0.00000    
      1882 OAC      49       OAC      LPO12    LPD     -0.383000       0.00000          -1   0.00000       0.00000    
      1883 OAC      49       OAC      LPO21    LPD     -0.383000       0.00000          -1   0.00000       0.00000    
      1884 OAC      49       OAC      LPO22    LPD     -0.383000       0.00000          -1   0.00000       0.00000    
      1885 OAC      50       OAC      C1       CD2O2A    3.18170       11.6110           0  -1.01600      0.899000    
      1886 OAC      50       OAC      DC1      DRUD     -2.47370      0.400000           0   0.00000       0.00000    
      1887 OAC      50       OAC      C2       CD33A     2.98790       11.6110           0  -1.68100       1.41400    
      1888 OAC      50       OAC      DC2      DRUD     -3.18190      0.400000           0   0.00000       0.00000    
      1889 OAC      50       OAC      H1       HDA3A    0.400000E-02   1.00800           0   0.00000       0.00000    
      1890 OAC      50       OAC      H2       HDA3A    0.400000E-02   1.00800           0   0.00000       0.00000    
      1891 OAC      50       OAC      H3       HDA3A    0.400000E-02   1.00800           0   0.00000       0.00000    
      1892 OAC      50       OAC      O1       OD2C2A    2.05480       15.5994           0 -0.699000       2.39900    
      1893 OAC      50       OAC      DO1      DRUD     -2.05180      0.400000           0   0.00000       0.00000    
      1894 OAC      50       OAC      O2       OD2C2A    2.05480       15.5994           0 -0.699000       2.39900    
      1895 OAC      50       OAC      DO2      DRUD     -2.05180      0.400000           0   0.00000       0.00000    
      1896 OAC      50       OAC      H        DUMH      0.00000       1.00800           0   0.00000       0.00000    
      1897 OAC      50       OAC      LPO11    LPD     -0.383000       0.00000          -1   0.00000       0.00000    
      1898 OAC      50       OAC      LPO12    LPD     -0.383000       0.00000          -1   0.00000       0.00000    
      1899 OAC      50       OAC      LPO21    LPD     -0.383000       0.00000          -1   0.00000       0.00000    
      1900 OAC      50       OAC      LPO22    LPD     -0.383000       0.00000          -1   0.00000       0.00000    
      1901 OAC      51       OAC      C1       CD2O2A    3.18170       11.6110           0  -1.01600      0.899000    
      1902 OAC      51       OAC      DC1      DRUD     -2.47370      0.400000           0   0.00000       0.00000    
      1903 OAC      51       OAC      C2       CD33A     2.98790       11.6110           0  -1.68100       1.41400    
      1904 OAC      51       OAC      DC2      DRUD     -3.18190      0.400000           0   0.00000       0.00000    
      1905 OAC      51       OAC      H1       HDA3A    0.400000E-02   1.00800           0   0.00000       0.00000    
      1906 OAC      51       OAC      H2       HDA3A    0.400000E-02   1.00800           0   0.00000       0.00000    
      1907 OAC      51       OAC      H3       HDA3A    0.400000E-02   1.00800           0   0.00000       0.00000    
      1908 OAC      51       OAC      O1       OD2C2A    2.05480       15.5994           0 -0.699000       2.39900    
      1909 OAC      51       OAC      DO1      DRUD     -2.05180      0.400000           0   0.00000       0.00000    
      1910 OAC      51       OAC      O2       OD2C2A    2.05480       15.5994           0 -0.699000       2.39900    
      1911 OAC      51       OAC      DO2      DRUD     -2.05180      0.400000           0   0.00000       0.00000    
      1912 OAC      51       OAC      H        DUMH      0.00000       1.00800           0   0.00000       0.00000    
      1913 OAC      51       OAC      LPO11    LPD     -0.383000       0.00000          -1   0.00000       0.00000    
      1914 OAC      51       OAC      LPO12    LPD     -0.383000       0.00000          -1   0.00000       0.00000    
      1915 OAC      51       OAC      LPO21    LPD     -0.383000       0.00000          -1   0.00000       0.00000    
      1916 OAC      51       OAC      LPO22    LPD     -0.383000       0.00000          -1   0.00000       0.00000    
      1917 OAC      52       OAC      C1       CD2O2A    3.18170       11.6110           0  -1.01600      0.899000    
      1918 OAC      52       OAC      DC1      DRUD     -2.47370      0.400000           0   0.00000       0.00000    
      1919 OAC      52       OAC      C2       CD33A     2.98790       11.6110           0  -1.68100       1.41400    
      1920 OAC      52       OAC      DC2      DRUD     -3.18190      0.400000           0   0.00000       0.00000    
      1921 OAC      52       OAC      H1       HDA3A    0.400000E-02   1.00800           0   0.00000       0.00000    
      1922 OAC      52       OAC      H2       HDA3A    0.400000E-02   1.00800           0   0.00000       0.00000    
      1923 OAC      52       OAC      H3       HDA3A    0.400000E-02   1.00800           0   0.00000       0.00000    
      1924 OAC      52       OAC      O1       OD2C2A    2.05480       15.5994           0 -0.699000       2.39900    
      1925 OAC      52       OAC      DO1      DRUD     -2.05180      0.400000           0   0.00000       0.00000    
      1926 OAC      52       OAC      O2       OD2C2A    2.05480       15.5994           0 -0.699000       2.39900    
      1927 OAC      52       OAC      DO2      DRUD     -2.05180      0.400000           0   0.00000       0.00000    
      1928 OAC      52       OAC      H        DUMH      0.00000       1.00800           0   0.00000       0.00000    
      1929 OAC      52       OAC      LPO11    LPD     -0.383000       0.00000          -1   0.00000       0.00000    
      1930 OAC      52       OAC      LPO12    LPD     -0.383000       0.00000          -1   0.00000       0.00000    
      1931 OAC      52       OAC      LPO21    LPD     -0.383000       0.00000          -1   0.00000       0.00000    
      1932 OAC      52       OAC      LPO22    LPD     -0.383000       0.00000          -1   0.00000       0.00000    
      1933 OAC      53       OAC      C1       CD2O2A    3.18170       11.6110           0  -1.01600      0.899000    
      1934 OAC      53       OAC      DC1      DRUD     -2.47370      0.400000           0   0.00000       0.00000    
      1935 OAC      53       OAC      C2       CD33A     2.98790       11.6110           0  -1.68100       1.41400    
      1936 OAC      53       OAC      DC2      DRUD     -3.18190      0.400000           0   0.00000       0.00000    
      1937 OAC      53       OAC      H1       HDA3A    0.400000E-02   1.00800           0   0.00000       0.00000    
      1938 OAC      53       OAC      H2       HDA3A    0.400000E-02   1.00800           0   0.00000       0.00000    
      1939 OAC      53       OAC      H3       HDA3A    0.400000E-02   1.00800           0   0.00000       0.00000    
      1940 OAC      53       OAC      O1       OD2C2A    2.05480       15.5994           0 -0.699000       2.39900    
      1941 OAC      53       OAC      DO1      DRUD     -2.05180      0.400000           0   0.00000       0.00000    
      1942 OAC      53       OAC      O2       OD2C2A    2.05480       15.5994           0 -0.699000       2.39900    
      1943 OAC      53       OAC      DO2      DRUD     -2.05180      0.400000           0   0.00000       0.00000    
      1944 OAC      53       OAC      H        DUMH      0.00000       1.00800           0   0.00000       0.00000    
      1945 OAC      53       OAC      LPO11    LPD     -0.383000       0.00000          -1   0.00000       0.00000    
      1946 OAC      53       OAC      LPO12    LPD     -0.383000       0.00000          -1   0.00000       0.00000    
      1947 OAC      53       OAC      LPO21    LPD     -0.383000       0.00000          -1   0.00000       0.00000    
      1948 OAC      53       OAC      LPO22    LPD     -0.383000       0.00000          -1   0.00000       0.00000    
      1949 OAC      54       OAC      C1       CD2O2A    3.18170       11.6110           0  -1.01600      0.899000    
      1950 OAC      54       OAC      DC1      DRUD     -2.47370      0.400000           0   0.00000       0.00000    
      1951 OAC      54       OAC      C2       CD33A     2.98790       11.6110           0  -1.68100       1.41400    
      1952 OAC      54       OAC      DC2      DRUD     -3.18190      0.400000           0   0.00000       0.00000    
      1953 OAC      54       OAC      H1       HDA3A    0.400000E-02   1.00800           0   0.00000       0.00000    
      1954 OAC      54       OAC      H2       HDA3A    0.400000E-02   1.00800           0   0.00000       0.00000    
      1955 OAC      54       OAC      H3       HDA3A    0.400000E-02   1.00800           0   0.00000       0.00000    
      1956 OAC      54       OAC      O1       OD2C2A    2.05480       15.5994           0 -0.699000       2.39900    
      1957 OAC      54       OAC      DO1      DRUD     -2.05180      0.400000           0   0.00000       0.00000    
      1958 OAC      54       OAC      O2       OD2C2A    2.05480       15.5994           0 -0.699000       2.39900    
      1959 OAC      54       OAC      DO2      DRUD     -2.05180      0.400000           0   0.00000       0.00000    
      1960 OAC      54       OAC      H        DUMH      0.00000       1.00800           0   0.00000       0.00000    
      1961 OAC      54       OAC      LPO11    LPD     -0.383000       0.00000          -1   0.00000       0.00000    
      1962 OAC      54       OAC      LPO12    LPD     -0.383000       0.00000          -1   0.00000       0.00000    
      1963 OAC      54       OAC      LPO21    LPD     -0.383000       0.00000          -1   0.00000       0.00000    
      1964 OAC      54       OAC      LPO22    LPD     -0.383000       0.00000          -1   0.00000       0.00000    
      1965 OAC      55       OAC      C1       CD2O2A    3.18170       11.6110           0  -1.01600      0.899000    
      1966 OAC      55       OAC      DC1      DRUD     -2.47370      0.400000           0   0.00000       0.00000    
      1967 OAC      55       OAC      C2       CD33A     2.98790       11.6110           0  -1.68100       1.41400    
      1968 OAC      55       OAC      DC2      DRUD     -3.18190      0.400000           0   0.00000       0.00000    
      1969 OAC      55       OAC      H1       HDA3A    0.400000E-02   1.00800           0   0.00000       0.00000    
      1970 OAC      55       OAC      H2       HDA3A    0.400000E-02   1.00800           0   0.00000       0.00000    
      1971 OAC      55       OAC      H3       HDA3A    0.400000E-02   1.00800           0   0.00000       0.00000    
      1972 OAC      55       OAC      O1       OD2C2A    2.05480       15.5994           0 -0.699000       2.39900    
      1973 OAC      55       OAC      DO1      DRUD     -2.05180      0.400000           0   0.00000       0.00000    
      1974 OAC      55       OAC      O2       OD2C2A    2.05480       15.5994           0 -0.699000       2.39900    
      1975 OAC      55       OAC      DO2      DRUD     -2.05180      0.400000           0   0.00000       0.00000    
      1976 OAC      55       OAC      H        DUMH      0.00000       1.00800           0   0.00000       0.00000    
      1977 OAC      55       OAC      LPO11    LPD     -0.383000       0.00000          -1   0.00000       0.00000    
      1978 OAC      55       OAC      LPO12    LPD     -0.383000       0.00000          -1   0.00000       0.00000    
      1979 OAC      55       OAC      LPO21    LPD     -0.383000       0.00000          -1   0.00000       0.00000    
      1980 OAC      55       OAC      LPO22    LPD     -0.383000       0.00000          -1   0.00000       0.00000    
      1981 OAC      56       OAC      C1       CD2O2A    3.18170       11.6110           0  -1.01600      0.899000    
      1982 OAC      56       OAC      DC1      DRUD     -2.47370      0.400000           0   0.00000       0.00000    
      1983 OAC      56       OAC      C2       CD33A     2.98790       11.6110           0  -1.68100       1.41400    
      1984 OAC      56       OAC      DC2      DRUD     -3.18190      0.400000           0   0.00000       0.00000    
      1985 OAC      56       OAC      H1       HDA3A    0.400000E-02   1.00800           0   0.00000       0.00000    
      1986 OAC      56       OAC      H2       HDA3A    0.400000E-02   1.00800           0   0.00000       0.00000    
      1987 OAC      56       OAC      H3       HDA3A    0.400000E-02   1.00800           0   0.00000       0.00000    
      1988 OAC      56       OAC      O1       OD2C2A    2.05480       15.5994           0 -0.699000       2.39900    
      1989 OAC      56       OAC      DO1      DRUD     -2.05180      0.400000           0   0.00000       0.00000    
      1990 OAC      56       OAC      O2       OD2C2A    2.05480       15.5994           0 -0.699000       2.39900    
      1991 OAC      56       OAC      DO2      DRUD     -2.05180      0.400000           0   0.00000       0.00000    
      1992 OAC      56       OAC      H        DUMH      0.00000       1.00800           0   0.00000       0.00000    
      1993 OAC      56       OAC      LPO11    LPD     -0.383000       0.00000          -1   0.00000       0.00000    
      1994 OAC      56       OAC      LPO12    LPD     -0.383000       0.00000          -1   0.00000       0.00000    
      1995 OAC      56       OAC      LPO21    LPD     -0.383000       0.00000          -1   0.00000       0.00000    
      1996 OAC      56       OAC      LPO22    LPD     -0.383000       0.00000          -1   0.00000       0.00000    
      1997 OAC      57       OAC      C1       CD2O2A    3.18170       11.6110           0  -1.01600      0.899000    
      1998 OAC      57       OAC      DC1      DRUD     -2.47370      0.400000           0   0.00000       0.00000    
      1999 OAC      57       OAC      C2       CD33A     2.98790       11.6110           0  -1.68100       1.41400    
      2000 OAC      57       OAC      DC2      DRUD     -3.18190      0.400000           0   0.00000       0.00000    
      2001 OAC      57       OAC      H1       HDA3A    0.400000E-02   1.00800           0   0.00000       0.00000    
      2002 OAC      57       OAC      H2       HDA3A    0.400000E-02   1.00800           0   0.00000       0.00000    
      2003 OAC      57       OAC      H3       HDA3A    0.400000E-02   1.00800           0   0.00000       0.00000    
      2004 OAC      57       OAC      O1       OD2C2A    2.05480       15.5994           0 -0.699000       2.39900    
      2005 OAC      57       OAC      DO1      DRUD     -2.05180      0.400000           0   0.00000       0.00000    
      2006 OAC      57       OAC      O2       OD2C2A    2.05480       15.5994           0 -0.699000       2.39900    
      2007 OAC      57       OAC      DO2      DRUD     -2.05180      0.400000           0   0.00000       0.00000    
      2008 OAC      57       OAC      H        DUMH      0.00000       1.00800           0   0.00000       0.00000    
      2009 OAC      57       OAC      LPO11    LPD     -0.383000       0.00000          -1   0.00000       0.00000    
      2010 OAC      57       OAC      LPO12    LPD     -0.383000       0.00000          -1   0.00000       0.00000    
      2011 OAC      57       OAC      LPO21    LPD     -0.383000       0.00000          -1   0.00000       0.00000    
      2012 OAC      57       OAC      LPO22    LPD     -0.383000       0.00000          -1   0.00000       0.00000    
      2013 OAC      58       OAC      C1       CD2O2A    3.18170       11.6110           0  -1.01600      0.899000    
      2014 OAC      58       OAC      DC1      DRUD     -2.47370      0.400000           0   0.00000       0.00000    
      2015 OAC      58       OAC      C2       CD33A     2.98790       11.6110           0  -1.68100       1.41400    
      2016 OAC      58       OAC      DC2      DRUD     -3.18190      0.400000           0   0.00000       0.00000    
      2017 OAC      58       OAC      H1       HDA3A    0.400000E-02   1.00800           0   0.00000       0.00000    
      2018 OAC      58       OAC      H2       HDA3A    0.400000E-02   1.00800           0   0.00000       0.00000    
      2019 OAC      58       OAC      H3       HDA3A    0.400000E-02   1.00800           0   0.00000       0.00000    
      2020 OAC      58       OAC      O1       OD2C2A    2.05480       15.5994           0 -0.699000       2.39900    
      2021 OAC      58       OAC      DO1      DRUD     -2.05180      0.400000           0   0.00000       0.00000    
      2022 OAC      58       OAC      O2       OD2C2A    2.05480       15.5994           0 -0.699000       2.39900    
      2023 OAC      58       OAC      DO2      DRUD     -2.05180      0.400000           0   0.00000       0.00000    
      2024 OAC      58       OAC      H        DUMH      0.00000       1.00800           0   0.00000       0.00000    
      2025 OAC      58       OAC      LPO11    LPD     -0.383000       0.00000          -1   0.00000       0.00000    
      2026 OAC      58       OAC      LPO12    LPD     -0.383000       0.00000          -1   0.00000       0.00000    
      2027 OAC      58       OAC      LPO21    LPD     -0.383000       0.00000          -1   0.00000       0.00000    
      2028 OAC      58       OAC      LPO22    LPD     -0.383000       0.00000          -1   0.00000       0.00000    
      2029 OAC      59       OAC      C1       CD2O2A    3.18170       11.6110           0  -1.01600      0.899000    
      2030 OAC      59       OAC      DC1      DRUD     -2.47370      0.400000           0   0.00000       0.00000    
      2031 OAC      59       OAC      C2       CD33A     2.98790       11.6110           0  -1.68100       1.41400    
      2032 OAC      59       OAC      DC2      DRUD     -3.18190      0.400000           0   0.00000       0.00000    
      2033 OAC      59       OAC      H1       HDA3A    0.400000E-02   1.00800           0   0.00000       0.00000    
      2034 OAC      59       OAC      H2       HDA3A    0.400000E-02   1.00800           0   0.00000       0.00000    
      2035 OAC      59       OAC      H3       HDA3A    0.400000E-02   1.00800           0   0.00000       0.00000    
      2036 OAC      59       OAC      O1       OD2C2A    2.05480       15.5994           0 -0.699000       2.39900    
      2037 OAC      59       OAC      DO1      DRUD     -2.05180      0.400000           0   0.00000       0.00000    
      2038 OAC      59       OAC      O2       OD2C2A    2.05480       15.5994           0 -0.699000       2.39900    
      2039 OAC      59       OAC      DO2      DRUD     -2.05180      0.400000           0   0.00000       0.00000    
      2040 OAC      59       OAC      H        DUMH      0.00000       1.00800           0   0.00000       0.00000    
      2041 OAC      59       OAC      LPO11    LPD     -0.383000       0.00000          -1   0.00000       0.00000    
      2042 OAC      59       OAC      LPO12    LPD     -0.383000       0.00000          -1   0.00000       0.00000    
      2043 OAC      59       OAC      LPO21    LPD     -0.383000       0.00000          -1   0.00000       0.00000    
      2044 OAC      59       OAC      LPO22    LPD     -0.383000       0.00000          -1   0.00000       0.00000    
      2045 OAC      60       OAC      C1       CD2O2A    3.18170       11.6110           0  -1.01600      0.899000    
      2046 OAC      60       OAC      DC1      DRUD     -2.47370      0.400000           0   0.00000       0.00000    
      2047 OAC      60       OAC      C2       CD33A     2.98790       11.6110           0  -1.68100       1.41400    
      2048 OAC      60       OAC      DC2      DRUD     -3.18190      0.400000           0   0.00000       0.00000    
      2049 OAC      60       OAC      H1       HDA3A    0.400000E-02   1.00800           0   0.00000       0.00000    
      2050 OAC      60       OAC      H2       HDA3A    0.400000E-02   1.00800           0   0.00000       0.00000    
      2051 OAC      60       OAC      H3       HDA3A    0.400000E-02   1.00800           0   0.00000       0.00000    
      2052 OAC      60       OAC      O1       OD2C2A    2.05480       15.5994           0 -0.699000       2.39900    
      2053 OAC      60       OAC      DO1      DRUD     -2.05180      0.400000           0   0.00000       0.00000    
      2054 OAC      60       OAC      O2       OD2C2A    2.05480       15.5994           0 -0.699000       2.39900    
      2055 OAC      60       OAC      DO2      DRUD     -2.05180      0.400000           0   0.00000       0.00000    
      2056 OAC      60       OAC      H        DUMH      0.00000       1.00800           0   0.00000       0.00000    
      2057 OAC      60       OAC      LPO11    LPD     -0.383000       0.00000          -1   0.00000       0.00000    
      2058 OAC      60       OAC      LPO12    LPD     -0.383000       0.00000          -1   0.00000       0.00000    
      2059 OAC      60       OAC      LPO21    LPD     -0.383000       0.00000          -1   0.00000       0.00000    
      2060 OAC      60       OAC      LPO22    LPD     -0.383000       0.00000          -1   0.00000       0.00000    
      2061 OAC      61       OAC      C1       CD2O2A    3.18170       11.6110           0  -1.01600      0.899000    
      2062 OAC      61       OAC      DC1      DRUD     -2.47370      0.400000           0   0.00000       0.00000    
      2063 OAC      61       OAC      C2       CD33A     2.98790       11.6110           0  -1.68100       1.41400    
      2064 OAC      61       OAC      DC2      DRUD     -3.18190      0.400000           0   0.00000       0.00000    
      2065 OAC      61       OAC      H1       HDA3A    0.400000E-02   1.00800           0   0.00000       0.00000    
      2066 OAC      61       OAC      H2       HDA3A    0.400000E-02   1.00800           0   0.00000       0.00000    
      2067 OAC      61       OAC      H3       HDA3A    0.400000E-02   1.00800           0   0.00000       0.00000    
      2068 OAC      61       OAC      O1       OD2C2A    2.05480       15.5994           0 -0.699000       2.39900    
      2069 OAC      61       OAC      DO1      DRUD     -2.05180      0.400000           0   0.00000       0.00000    
      2070 OAC      61       OAC      O2       OD2C2A    2.05480       15.5994           0 -0.699000       2.39900    
      2071 OAC      61       OAC      DO2      DRUD     -2.05180      0.400000           0   0.00000       0.00000    
      2072 OAC      61       OAC      H        DUMH      0.00000       1.00800           0   0.00000       0.00000    
      2073 OAC      61       OAC      LPO11    LPD     -0.383000       0.00000          -1   0.00000       0.00000    
      2074 OAC      61       OAC      LPO12    LPD     -0.383000       0.00000          -1   0.00000       0.00000    
      2075 OAC      61       OAC      LPO21    LPD     -0.383000       0.00000          -1   0.00000       0.00000    
      2076 OAC      61       OAC      LPO22    LPD     -0.383000       0.00000          -1   0.00000       0.00000    
      2077 OAC      62       OAC      C1       CD2O2A    3.18170       11.6110           0  -1.01600      0.899000    
      2078 OAC      62       OAC      DC1      DRUD     -2.47370      0.400000           0   0.00000       0.00000    
      2079 OAC      62       OAC      C2       CD33A     2.98790       11.6110           0  -1.68100       1.41400    
      2080 OAC      62       OAC      DC2      DRUD     -3.18190      0.400000           0   0.00000       0.00000    
      2081 OAC      62       OAC      H1       HDA3A    0.400000E-02   1.00800           0   0.00000       0.00000    
      2082 OAC      62       OAC      H2       HDA3A    0.400000E-02   1.00800           0   0.00000       0.00000    
      2083 OAC      62       OAC      H3       HDA3A    0.400000E-02   1.00800           0   0.00000       0.00000    
      2084 OAC      62       OAC      O1       OD2C2A    2.05480       15.5994           0 -0.699000       2.39900    
      2085 OAC      62       OAC      DO1      DRUD     -2.05180      0.400000           0   0.00000       0.00000    
      2086 OAC      62       OAC      O2       OD2C2A    2.05480       15.5994           0 -0.699000       2.39900    
      2087 OAC      62       OAC      DO2      DRUD     -2.05180      0.400000           0   0.00000       0.00000    
      2088 OAC      62       OAC      H        DUMH      0.00000       1.00800           0   0.00000       0.00000    
      2089 OAC      62       OAC      LPO11    LPD     -0.383000       0.00000          -1   0.00000       0.00000    
      2090 OAC      62       OAC      LPO12    LPD     -0.383000       0.00000          -1   0.00000       0.00000    
      2091 OAC      62       OAC      LPO21    LPD     -0.383000       0.00000          -1   0.00000       0.00000    
      2092 OAC      62       OAC      LPO22    LPD     -0.383000       0.00000          -1   0.00000       0.00000    
      2093 OAC      63       OAC      C1       CD2O2A    3.18170       11.6110           0  -1.01600      0.899000    
      2094 OAC      63       OAC      DC1      DRUD     -2.47370      0.400000           0   0.00000       0.00000    
      2095 OAC      63       OAC      C2       CD33A     2.98790       11.6110           0  -1.68100       1.41400    
      2096 OAC      63       OAC      DC2      DRUD     -3.18190      0.400000           0   0.00000       0.00000    
      2097 OAC      63       OAC      H1       HDA3A    0.400000E-02   1.00800           0   0.00000       0.00000    
      2098 OAC      63       OAC      H2       HDA3A    0.400000E-02   1.00800           0   0.00000       0.00000    
      2099 OAC      63       OAC      H3       HDA3A    0.400000E-02   1.00800           0   0.00000       0.00000    
      2100 OAC      63       OAC      O1       OD2C2A    2.05480       15.5994           0 -0.699000       2.39900    
      2101 OAC      63       OAC      DO1      DRUD     -2.05180      0.400000           0   0.00000       0.00000    
      2102 OAC      63       OAC      O2       OD2C2A    2.05480       15.5994           0 -0.699000       2.39900    
      2103 OAC      63       OAC      DO2      DRUD     -2.05180      0.400000           0   0.00000       0.00000    
      2104 OAC      63       OAC      H        DUMH      0.00000       1.00800           0   0.00000       0.00000    
      2105 OAC      63       OAC      LPO11    LPD     -0.383000       0.00000          -1   0.00000       0.00000    
      2106 OAC      63       OAC      LPO12    LPD     -0.383000       0.00000          -1   0.00000       0.00000    
      2107 OAC      63       OAC      LPO21    LPD     -0.383000       0.00000          -1   0.00000       0.00000    
      2108 OAC      63       OAC      LPO22    LPD     -0.383000       0.00000          -1   0.00000       0.00000    
      2109 OAC      64       OAC      C1       CD2O2A    3.18170       11.6110           0  -1.01600      0.899000    
      2110 OAC      64       OAC      DC1      DRUD     -2.47370      0.400000           0   0.00000       0.00000    
      2111 OAC      64       OAC      C2       CD33A     2.98790       11.6110           0  -1.68100       1.41400    
      2112 OAC      64       OAC      DC2      DRUD     -3.18190      0.400000           0   0.00000       0.00000    
      2113 OAC      64       OAC      H1       HDA3A    0.400000E-02   1.00800           0   0.00000       0.00000    
      2114 OAC      64       OAC      H2       HDA3A    0.400000E-02   1.00800           0   0.00000       0.00000    
      2115 OAC      64       OAC      H3       HDA3A    0.400000E-02   1.00800           0   0.00000       0.00000    
      2116 OAC      64       OAC      O1       OD2C2A    2.05480       15.5994           0 -0.699000       2.39900    
      2117 OAC      64       OAC      DO1      DRUD     -2.05180      0.400000           0   0.00000       0.00000    
      2118 OAC      64       OAC      O2       OD2C2A    2.05480       15.5994           0 -0.699000       2.39900    
      2119 OAC      64       OAC      DO2      DRUD     -2.05180      0.400000           0   0.00000       0.00000    
      2120 OAC      64       OAC      H        DUMH      0.00000       1.00800           0   0.00000       0.00000    
      2121 OAC      64       OAC      LPO11    LPD     -0.383000       0.00000          -1   0.00000       0.00000    
      2122 OAC      64       OAC      LPO12    LPD     -0.383000       0.00000          -1   0.00000       0.00000    
      2123 OAC      64       OAC      LPO21    LPD     -0.383000       0.00000          -1   0.00000       0.00000    
      2124 OAC      64       OAC      LPO22    LPD     -0.383000       0.00000          -1   0.00000       0.00000    
      2125 OAC      65       OAC      C1       CD2O2A    3.18170       11.6110           0  -1.01600      0.899000    
      2126 OAC      65       OAC      DC1      DRUD     -2.47370      0.400000           0   0.00000       0.00000    
      2127 OAC      65       OAC      C2       CD33A     2.98790       11.6110           0  -1.68100       1.41400    
      2128 OAC      65       OAC      DC2      DRUD     -3.18190      0.400000           0   0.00000       0.00000    
      2129 OAC      65       OAC      H1       HDA3A    0.400000E-02   1.00800           0   0.00000       0.00000    
      2130 OAC      65       OAC      H2       HDA3A    0.400000E-02   1.00800           0   0.00000       0.00000    
      2131 OAC      65       OAC      H3       HDA3A    0.400000E-02   1.00800           0   0.00000       0.00000    
      2132 OAC      65       OAC      O1       OD2C2A    2.05480       15.5994           0 -0.699000       2.39900    
      2133 OAC      65       OAC      DO1      DRUD     -2.05180      0.400000           0   0.00000       0.00000    
      2134 OAC      65       OAC      O2       OD2C2A    2.05480       15.5994           0 -0.699000       2.39900    
      2135 OAC      65       OAC      DO2      DRUD     -2.05180      0.400000           0   0.00000       0.00000    
      2136 OAC      65       OAC      H        DUMH      0.00000       1.00800           0   0.00000       0.00000    
      2137 OAC      65       OAC      LPO11    LPD     -0.383000       0.00000          -1   0.00000       0.00000    
      2138 OAC      65       OAC      LPO12    LPD     -0.383000       0.00000          -1   0.00000       0.00000    
      2139 OAC      65       OAC      LPO21    LPD     -0.383000       0.00000          -1   0.00000       0.00000    
      2140 OAC      65       OAC      LPO22    LPD     -0.383000       0.00000          -1   0.00000       0.00000    
      2141 OAC      66       OAC      C1       CD2O2A    3.18170       11.6110           0  -1.01600      0.899000    
      2142 OAC      66       OAC      DC1      DRUD     -2.47370      0.400000           0   0.00000       0.00000    
      2143 OAC      66       OAC      C2       CD33A     2.98790       11.6110           0  -1.68100       1.41400    
      2144 OAC      66       OAC      DC2      DRUD     -3.18190      0.400000           0   0.00000       0.00000    
      2145 OAC      66       OAC      H1       HDA3A    0.400000E-02   1.00800           0   0.00000       0.00000    
      2146 OAC      66       OAC      H2       HDA3A    0.400000E-02   1.00800           0   0.00000       0.00000    
      2147 OAC      66       OAC      H3       HDA3A    0.400000E-02   1.00800           0   0.00000       0.00000    
      2148 OAC      66       OAC      O1       OD2C2A    2.05480       15.5994           0 -0.699000       2.39900    
      2149 OAC      66       OAC      DO1      DRUD     -2.05180      0.400000           0   0.00000       0.00000    
      2150 OAC      66       OAC      O2       OD2C2A    2.05480       15.5994           0 -0.699000       2.39900    
      2151 OAC      66       OAC      DO2      DRUD     -2.05180      0.400000           0   0.00000       0.00000    
      2152 OAC      66       OAC      H        DUMH      0.00000       1.00800           0   0.00000       0.00000    
      2153 OAC      66       OAC      LPO11    LPD     -0.383000       0.00000          -1   0.00000       0.00000    
      2154 OAC      66       OAC      LPO12    LPD     -0.383000       0.00000          -1   0.00000       0.00000    
      2155 OAC      66       OAC      LPO21    LPD     -0.383000       0.00000          -1   0.00000       0.00000    
      2156 OAC      66       OAC      LPO22    LPD     -0.383000       0.00000          -1   0.00000       0.00000    
      2157 OAC      67       OAC      C1       CD2O2A    3.18170       11.6110           0  -1.01600      0.899000    
      2158 OAC      67       OAC      DC1      DRUD     -2.47370      0.400000           0   0.00000       0.00000    
      2159 OAC      67       OAC      C2       CD33A     2.98790       11.6110           0  -1.68100       1.41400    
      2160 OAC      67       OAC      DC2      DRUD     -3.18190      0.400000           0   0.00000       0.00000    
      2161 OAC      67       OAC      H1       HDA3A    0.400000E-02   1.00800           0   0.00000       0.00000    
      2162 OAC      67       OAC      H2       HDA3A    0.400000E-02   1.00800           0   0.00000       0.00000    
      2163 OAC      67       OAC      H3       HDA3A    0.400000E-02   1.00800           0   0.00000       0.00000    
      2164 OAC      67       OAC      O1       OD2C2A    2.05480       15.5994           0 -0.699000       2.39900    
      2165 OAC      67       OAC      DO1      DRUD     -2.05180      0.400000           0   0.00000       0.00000    
      2166 OAC      67       OAC      O2       OD2C2A    2.05480       15.5994           0 -0.699000       2.39900    
      2167 OAC      67       OAC      DO2      DRUD     -2.05180      0.400000           0   0.00000       0.00000    
      2168 OAC      67       OAC      H        DUMH      0.00000       1.00800           0   0.00000       0.00000    
      2169 OAC      67       OAC      LPO11    LPD     -0.383000       0.00000          -1   0.00000       0.00000    
      2170 OAC      67       OAC      LPO12    LPD     -0.383000       0.00000          -1   0.00000       0.00000    
      2171 OAC      67       OAC      LPO21    LPD     -0.383000       0.00000          -1   0.00000       0.00000    
      2172 OAC      67       OAC      LPO22    LPD     -0.383000       0.00000          -1   0.00000       0.00000    
      2173 OAC      68       OAC      C1       CD2O2A    3.18170       11.6110           0  -1.01600      0.899000    
      2174 OAC      68       OAC      DC1      DRUD     -2.47370      0.400000           0   0.00000       0.00000    
      2175 OAC      68       OAC      C2       CD33A     2.98790       11.6110           0  -1.68100       1.41400    
      2176 OAC      68       OAC      DC2      DRUD     -3.18190      0.400000           0   0.00000       0.00000    
      2177 OAC      68       OAC      H1       HDA3A    0.400000E-02   1.00800           0   0.00000       0.00000    
      2178 OAC      68       OAC      H2       HDA3A    0.400000E-02   1.00800           0   0.00000       0.00000    
      2179 OAC      68       OAC      H3       HDA3A    0.400000E-02   1.00800           0   0.00000       0.00000    
      2180 OAC      68       OAC      O1       OD2C2A    2.05480       15.5994           0 -0.699000       2.39900    
      2181 OAC      68       OAC      DO1      DRUD     -2.05180      0.400000           0   0.00000       0.00000    
      2182 OAC      68       OAC      O2       OD2C2A    2.05480       15.5994           0 -0.699000       2.39900    
      2183 OAC      68       OAC      DO2      DRUD     -2.05180      0.400000           0   0.00000       0.00000    
      2184 OAC      68       OAC      H        DUMH      0.00000       1.00800           0   0.00000       0.00000    
      2185 OAC      68       OAC      LPO11    LPD     -0.383000       0.00000          -1   0.00000       0.00000    
      2186 OAC      68       OAC      LPO12    LPD     -0.383000       0.00000          -1   0.00000       0.00000    
      2187 OAC      68       OAC      LPO21    LPD     -0.383000       0.00000          -1   0.00000       0.00000    
      2188 OAC      68       OAC      LPO22    LPD     -0.383000       0.00000          -1   0.00000       0.00000    
      2189 OAC      69       OAC      C1       CD2O2A    3.18170       11.6110           0  -1.01600      0.899000    
      2190 OAC      69       OAC      DC1      DRUD     -2.47370      0.400000           0   0.00000       0.00000    
      2191 OAC      69       OAC      C2       CD33A     2.98790       11.6110           0  -1.68100       1.41400    
      2192 OAC      69       OAC      DC2      DRUD     -3.18190      0.400000           0   0.00000       0.00000    
      2193 OAC      69       OAC      H1       HDA3A    0.400000E-02   1.00800           0   0.00000       0.00000    
      2194 OAC      69       OAC      H2       HDA3A    0.400000E-02   1.00800           0   0.00000       0.00000    
      2195 OAC      69       OAC      H3       HDA3A    0.400000E-02   1.00800           0   0.00000       0.00000    
      2196 OAC      69       OAC      O1       OD2C2A    2.05480       15.5994           0 -0.699000       2.39900    
      2197 OAC      69       OAC      DO1      DRUD     -2.05180      0.400000           0   0.00000       0.00000    
      2198 OAC      69       OAC      O2       OD2C2A    2.05480       15.5994           0 -0.699000       2.39900    
      2199 OAC      69       OAC      DO2      DRUD     -2.05180      0.400000           0   0.00000       0.00000    
      2200 OAC      69       OAC      H        DUMH      0.00000       1.00800           0   0.00000       0.00000    
      2201 OAC      69       OAC      LPO11    LPD     -0.383000       0.00000          -1   0.00000       0.00000    
      2202 OAC      69       OAC      LPO12    LPD     -0.383000       0.00000          -1   0.00000       0.00000    
      2203 OAC      69       OAC      LPO21    LPD     -0.383000       0.00000          -1   0.00000       0.00000    
      2204 OAC      69       OAC      LPO22    LPD     -0.383000       0.00000          -1   0.00000       0.00000    
      2205 OAC      70       OAC      C1       CD2O2A    3.18170       11.6110           0  -1.01600      0.899000    
      2206 OAC      70       OAC      DC1      DRUD     -2.47370      0.400000           0   0.00000       0.00000    
      2207 OAC      70       OAC      C2       CD33A     2.98790       11.6110           0  -1.68100       1.41400    
      2208 OAC      70       OAC      DC2      DRUD     -3.18190      0.400000           0   0.00000       0.00000    
      2209 OAC      70       OAC      H1       HDA3A    0.400000E-02   1.00800           0   0.00000       0.00000    
      2210 OAC      70       OAC      H2       HDA3A    0.400000E-02   1.00800           0   0.00000       0.00000    
      2211 OAC      70       OAC      H3       HDA3A    0.400000E-02   1.00800           0   0.00000       0.00000    
      2212 OAC      70       OAC      O1       OD2C2A    2.05480       15.5994           0 -0.699000       2.39900    
      2213 OAC      70       OAC      DO1      DRUD     -2.05180      0.400000           0   0.00000       0.00000    
      2214 OAC      70       OAC      O2       OD2C2A    2.05480       15.5994           0 -0.699000       2.39900    
      2215 OAC      70       OAC      DO2      DRUD     -2.05180      0.400000           0   0.00000       0.00000    
      2216 OAC      70       OAC      H        DUMH      0.00000       1.00800           0   0.00000       0.00000    
      2217 OAC      70       OAC      LPO11    LPD     -0.383000       0.00000          -1   0.00000       0.00000    
      2218 OAC      70       OAC      LPO12    LPD     -0.383000       0.00000          -1   0.00000       0.00000    
      2219 OAC      70       OAC      LPO21    LPD     -0.383000       0.00000          -1   0.00000       0.00000    
      2220 OAC      70       OAC      LPO22    LPD     -0.383000       0.00000          -1   0.00000       0.00000    
      2221 OAC      71       OAC      C1       CD2O2A    3.18170       11.6110           0  -1.01600      0.899000    
      2222 OAC      71       OAC      DC1      DRUD     -2.47370      0.400000           0   0.00000       0.00000    
      2223 OAC      71       OAC      C2       CD33A     2.98790       11.6110           0  -1.68100       1.41400    
      2224 OAC      71       OAC      DC2      DRUD     -3.18190      0.400000           0   0.00000       0.00000    
      2225 OAC      71       OAC      H1       HDA3A    0.400000E-02   1.00800           0   0.00000       0.00000    
      2226 OAC      71       OAC      H2       HDA3A    0.400000E-02   1.00800           0   0.00000       0.00000    
      2227 OAC      71       OAC      H3       HDA3A    0.400000E-02   1.00800           0   0.00000       0.00000    
      2228 OAC      71       OAC      O1       OD2C2A    2.05480       15.5994           0 -0.699000       2.39900    
      2229 OAC      71       OAC      DO1      DRUD     -2.05180      0.400000           0   0.00000       0.00000    
      2230 OAC      71       OAC      O2       OD2C2A    2.05480       15.5994           0 -0.699000       2.39900    
      2231 OAC      71       OAC      DO2      DRUD     -2.05180      0.400000           0   0.00000       0.00000    
      2232 OAC      71       OAC      H        DUMH      0.00000       1.00800           0   0.00000       0.00000    
      2233 OAC      71       OAC      LPO11    LPD     -0.383000       0.00000          -1   0.00000       0.00000    
      2234 OAC      71       OAC      LPO12    LPD     -0.383000       0.00000          -1   0.00000       0.00000    
      2235 OAC      71       OAC      LPO21    LPD     -0.383000       0.00000          -1   0.00000       0.00000    
      2236 OAC      71       OAC      LPO22    LPD     -0.383000       0.00000          -1   0.00000       0.00000    
      2237 OAC      72       OAC      C1       CD2O2A    3.18170       11.6110           0  -1.01600      0.899000    
      2238 OAC      72       OAC      DC1      DRUD     -2.47370      0.400000           0   0.00000       0.00000    
      2239 OAC      72       OAC      C2       CD33A     2.98790       11.6110           0  -1.68100       1.41400    
      2240 OAC      72       OAC      DC2      DRUD     -3.18190      0.400000           0   0.00000       0.00000    
      2241 OAC      72       OAC      H1       HDA3A    0.400000E-02   1.00800           0   0.00000       0.00000    
      2242 OAC      72       OAC      H2       HDA3A    0.400000E-02   1.00800           0   0.00000       0.00000    
      2243 OAC      72       OAC      H3       HDA3A    0.400000E-02   1.00800           0   0.00000       0.00000    
      2244 OAC      72       OAC      O1       OD2C2A    2.05480       15.5994           0 -0.699000       2.39900    
      2245 OAC      72       OAC      DO1      DRUD     -2.05180      0.400000           0   0.00000       0.00000    
      2246 OAC      72       OAC      O2       OD2C2A    2.05480       15.5994           0 -0.699000       2.39900    
      2247 OAC      72       OAC      DO2      DRUD     -2.05180      0.400000           0   0.00000       0.00000    
      2248 OAC      72       OAC      H        DUMH      0.00000       1.00800           0   0.00000       0.00000    
      2249 OAC      72       OAC      LPO11    LPD     -0.383000       0.00000          -1   0.00000       0.00000    
      2250 OAC      72       OAC      LPO12    LPD     -0.383000       0.00000          -1   0.00000       0.00000    
      2251 OAC      72       OAC      LPO21    LPD     -0.383000       0.00000          -1   0.00000       0.00000    
      2252 OAC      72       OAC      LPO22    LPD     -0.383000       0.00000          -1   0.00000       0.00000    
      2253 OAC      73       OAC      C1       CD2O2A    3.18170       11.6110           0  -1.01600      0.899000    
      2254 OAC      73       OAC      DC1      DRUD     -2.47370      0.400000           0   0.00000       0.00000    
      2255 OAC      73       OAC      C2       CD33A     2.98790       11.6110           0  -1.68100       1.41400    
      2256 OAC      73       OAC      DC2      DRUD     -3.18190      0.400000           0   0.00000       0.00000    
      2257 OAC      73       OAC      H1       HDA3A    0.400000E-02   1.00800           0   0.00000       0.00000    
      2258 OAC      73       OAC      H2       HDA3A    0.400000E-02   1.00800           0   0.00000       0.00000    
      2259 OAC      73       OAC      H3       HDA3A    0.400000E-02   1.00800           0   0.00000       0.00000    
      2260 OAC      73       OAC      O1       OD2C2A    2.05480       15.5994           0 -0.699000       2.39900    
      2261 OAC      73       OAC      DO1      DRUD     -2.05180      0.400000           0   0.00000       0.00000    
      2262 OAC      73       OAC      O2       OD2C2A    2.05480       15.5994           0 -0.699000       2.39900    
      2263 OAC      73       OAC      DO2      DRUD     -2.05180      0.400000           0   0.00000       0.00000    
      2264 OAC      73       OAC      H        DUMH      0.00000       1.00800           0   0.00000       0.00000    
      2265 OAC      73       OAC      LPO11    LPD     -0.383000       0.00000          -1   0.00000       0.00000    
      2266 OAC      73       OAC      LPO12    LPD     -0.383000       0.00000          -1   0.00000       0.00000    
      2267 OAC      73       OAC      LPO21    LPD     -0.383000       0.00000          -1   0.00000       0.00000    
      2268 OAC      73       OAC      LPO22    LPD     -0.383000       0.00000          -1   0.00000       0.00000    
      2269 OAC      74       OAC      C1       CD2O2A    3.18170       11.6110           0  -1.01600      0.899000    
      2270 OAC      74       OAC      DC1      DRUD     -2.47370      0.400000           0   0.00000       0.00000    
      2271 OAC      74       OAC      C2       CD33A     2.98790       11.6110           0  -1.68100       1.41400    
      2272 OAC      74       OAC      DC2      DRUD     -3.18190      0.400000           0   0.00000       0.00000    
      2273 OAC      74       OAC      H1       HDA3A    0.400000E-02   1.00800           0   0.00000       0.00000    
      2274 OAC      74       OAC      H2       HDA3A    0.400000E-02   1.00800           0   0.00000       0.00000    
      2275 OAC      74       OAC      H3       HDA3A    0.400000E-02   1.00800           0   0.00000       0.00000    
      2276 OAC      74       OAC      O1       OD2C2A    2.05480       15.5994           0 -0.699000       2.39900    
      2277 OAC      74       OAC      DO1      DRUD     -2.05180      0.400000           0   0.00000       0.00000    
      2278 OAC      74       OAC      O2       OD2C2A    2.05480       15.5994           0 -0.699000       2.39900    
      2279 OAC      74       OAC      DO2      DRUD     -2.05180      0.400000           0   0.00000       0.00000    
      2280 OAC      74       OAC      H        DUMH      0.00000       1.00800           0   0.00000       0.00000    
      2281 OAC      74       OAC      LPO11    LPD     -0.383000       0.00000          -1   0.00000       0.00000    
      2282 OAC      74       OAC      LPO12    LPD     -0.383000       0.00000          -1   0.00000       0.00000    
      2283 OAC      74       OAC      LPO21    LPD     -0.383000       0.00000          -1   0.00000       0.00000    
      2284 OAC      74       OAC      LPO22    LPD     -0.383000       0.00000          -1   0.00000       0.00000    
      2285 OAC      75       OAC      C1       CD2O2A    3.18170       11.6110           0  -1.01600      0.899000    
      2286 OAC      75       OAC      DC1      DRUD     -2.47370      0.400000           0   0.00000       0.00000    
      2287 OAC      75       OAC      C2       CD33A     2.98790       11.6110           0  -1.68100       1.41400    
      2288 OAC      75       OAC      DC2      DRUD     -3.18190      0.400000           0   0.00000       0.00000    
      2289 OAC      75       OAC      H1       HDA3A    0.400000E-02   1.00800           0   0.00000       0.00000    
      2290 OAC      75       OAC      H2       HDA3A    0.400000E-02   1.00800           0   0.00000       0.00000    
      2291 OAC      75       OAC      H3       HDA3A    0.400000E-02   1.00800           0   0.00000       0.00000    
      2292 OAC      75       OAC      O1       OD2C2A    2.05480       15.5994           0 -0.699000       2.39900    
      2293 OAC      75       OAC      DO1      DRUD     -2.05180      0.400000           0   0.00000       0.00000    
      2294 OAC      75       OAC      O2       OD2C2A    2.05480       15.5994           0 -0.699000       2.39900    
      2295 OAC      75       OAC      DO2      DRUD     -2.05180      0.400000           0   0.00000       0.00000    
      2296 OAC      75       OAC      H        DUMH      0.00000       1.00800           0   0.00000       0.00000    
      2297 OAC      75       OAC      LPO11    LPD     -0.383000       0.00000          -1   0.00000       0.00000    
      2298 OAC      75       OAC      LPO12    LPD     -0.383000       0.00000          -1   0.00000       0.00000    
      2299 OAC      75       OAC      LPO21    LPD     -0.383000       0.00000          -1   0.00000       0.00000    
      2300 OAC      75       OAC      LPO22    LPD     -0.383000       0.00000          -1   0.00000       0.00000    
      2301 OAC      76       OAC      C1       CD2O2A    3.18170       11.6110           0  -1.01600      0.899000    
      2302 OAC      76       OAC      DC1      DRUD     -2.47370      0.400000           0   0.00000       0.00000    
      2303 OAC      76       OAC      C2       CD33A     2.98790       11.6110           0  -1.68100       1.41400    
      2304 OAC      76       OAC      DC2      DRUD     -3.18190      0.400000           0   0.00000       0.00000    
      2305 OAC      76       OAC      H1       HDA3A    0.400000E-02   1.00800           0   0.00000       0.00000    
      2306 OAC      76       OAC      H2       HDA3A    0.400000E-02   1.00800           0   0.00000       0.00000    
      2307 OAC      76       OAC      H3       HDA3A    0.400000E-02   1.00800           0   0.00000       0.00000    
      2308 OAC      76       OAC      O1       OD2C2A    2.05480       15.5994           0 -0.699000       2.39900    
      2309 OAC      76       OAC      DO1      DRUD     -2.05180      0.400000           0   0.00000       0.00000    
      2310 OAC      76       OAC      O2       OD2C2A    2.05480       15.5994           0 -0.699000       2.39900    
      2311 OAC      76       OAC      DO2      DRUD     -2.05180      0.400000           0   0.00000       0.00000    
      2312 OAC      76       OAC      H        DUMH      0.00000       1.00800           0   0.00000       0.00000    
      2313 OAC      76       OAC      LPO11    LPD     -0.383000       0.00000          -1   0.00000       0.00000    
      2314 OAC      76       OAC      LPO12    LPD     -0.383000       0.00000          -1   0.00000       0.00000    
      2315 OAC      76       OAC      LPO21    LPD     -0.383000       0.00000          -1   0.00000       0.00000    
      2316 OAC      76       OAC      LPO22    LPD     -0.383000       0.00000          -1   0.00000       0.00000    
      2317 OAC      77       OAC      C1       CD2O2A    3.18170       11.6110           0  -1.01600      0.899000    
      2318 OAC      77       OAC      DC1      DRUD     -2.47370      0.400000           0   0.00000       0.00000    
      2319 OAC      77       OAC      C2       CD33A     2.98790       11.6110           0  -1.68100       1.41400    
      2320 OAC      77       OAC      DC2      DRUD     -3.18190      0.400000           0   0.00000       0.00000    
      2321 OAC      77       OAC      H1       HDA3A    0.400000E-02   1.00800           0   0.00000       0.00000    
      2322 OAC      77       OAC      H2       HDA3A    0.400000E-02   1.00800           0   0.00000       0.00000    
      2323 OAC      77       OAC      H3       HDA3A    0.400000E-02   1.00800           0   0.00000       0.00000    
      2324 OAC      77       OAC      O1       OD2C2A    2.05480       15.5994           0 -0.699000       2.39900    
      2325 OAC      77       OAC      DO1      DRUD     -2.05180      0.400000           0   0.00000       0.00000    
      2326 OAC      77       OAC      O2       OD2C2A    2.05480       15.5994           0 -0.699000       2.39900    
      2327 OAC      77       OAC      DO2      DRUD     -2.05180      0.400000           0   0.00000       0.00000    
      2328 OAC      77       OAC      H        DUMH      0.00000       1.00800           0   0.00000       0.00000    
      2329 OAC      77       OAC      LPO11    LPD     -0.383000       0.00000          -1   0.00000       0.00000    
      2330 OAC      77       OAC      LPO12    LPD     -0.383000       0.00000          -1   0.00000       0.00000    
      2331 OAC      77       OAC      LPO21    LPD     -0.383000       0.00000          -1   0.00000       0.00000    
      2332 OAC      77       OAC      LPO22    LPD     -0.383000       0.00000          -1   0.00000       0.00000    
      2333 OAC      78       OAC      C1       CD2O2A    3.18170       11.6110           0  -1.01600      0.899000    
      2334 OAC      78       OAC      DC1      DRUD     -2.47370      0.400000           0   0.00000       0.00000    
      2335 OAC      78       OAC      C2       CD33A     2.98790       11.6110           0  -1.68100       1.41400    
      2336 OAC      78       OAC      DC2      DRUD     -3.18190      0.400000           0   0.00000       0.00000    
      2337 OAC      78       OAC      H1       HDA3A    0.400000E-02   1.00800           0   0.00000       0.00000    
      2338 OAC      78       OAC      H2       HDA3A    0.400000E-02   1.00800           0   0.00000       0.00000    
      2339 OAC      78       OAC      H3       HDA3A    0.400000E-02   1.00800           0   0.00000       0.00000    
      2340 OAC      78       OAC      O1       OD2C2A    2.05480       15.5994           0 -0.699000       2.39900    
      2341 OAC      78       OAC      DO1      DRUD     -2.05180      0.400000           0   0.00000       0.00000    
      2342 OAC      78       OAC      O2       OD2C2A    2.05480       15.5994           0 -0.699000       2.39900    
      2343 OAC      78       OAC      DO2      DRUD     -2.05180      0.400000           0   0.00000       0.00000    
      2344 OAC      78       OAC      H        DUMH      0.00000       1.00800           0   0.00000       0.00000    
      2345 OAC      78       OAC      LPO11    LPD     -0.383000       0.00000          -1   0.00000       0.00000    
      2346 OAC      78       OAC      LPO12    LPD     -0.383000       0.00000          -1   0.00000       0.00000    
      2347 OAC      78       OAC      LPO21    LPD     -0.383000       0.00000          -1   0.00000       0.00000    
      2348 OAC      78       OAC      LPO22    LPD     -0.383000       0.00000          -1   0.00000       0.00000    
      2349 OAC      79       OAC      C1       CD2O2A    3.18170       11.6110           0  -1.01600      0.899000    
      2350 OAC      79       OAC      DC1      DRUD     -2.47370      0.400000           0   0.00000       0.00000    
      2351 OAC      79       OAC      C2       CD33A     2.98790       11.6110           0  -1.68100       1.41400    
      2352 OAC      79       OAC      DC2      DRUD     -3.18190      0.400000           0   0.00000       0.00000    
      2353 OAC      79       OAC      H1       HDA3A    0.400000E-02   1.00800           0   0.00000       0.00000    
      2354 OAC      79       OAC      H2       HDA3A    0.400000E-02   1.00800           0   0.00000       0.00000    
      2355 OAC      79       OAC      H3       HDA3A    0.400000E-02   1.00800           0   0.00000       0.00000    
      2356 OAC      79       OAC      O1       OD2C2A    2.05480       15.5994           0 -0.699000       2.39900    
      2357 OAC      79       OAC      DO1      DRUD     -2.05180      0.400000           0   0.00000       0.00000    
      2358 OAC      79       OAC      O2       OD2C2A    2.05480       15.5994           0 -0.699000       2.39900    
      2359 OAC      79       OAC      DO2      DRUD     -2.05180      0.400000           0   0.00000       0.00000    
      2360 OAC      79       OAC      H        DUMH      0.00000       1.00800           0   0.00000       0.00000    
      2361 OAC      79       OAC      LPO11    LPD     -0.383000       0.00000          -1   0.00000       0.00000    
      2362 OAC      79       OAC      LPO12    LPD     -0.383000       0.00000          -1   0.00000       0.00000    
      2363 OAC      79       OAC      LPO21    LPD     -0.383000       0.00000          -1   0.00000       0.00000    
      2364 OAC      79       OAC      LPO22    LPD     -0.383000       0.00000          -1   0.00000       0.00000    
      2365 OAC      80       OAC      C1       CD2O2A    3.18170       11.6110           0  -1.01600      0.899000    
      2366 OAC      80       OAC      DC1      DRUD     -2.47370      0.400000           0   0.00000       0.00000    
      2367 OAC      80       OAC      C2       CD33A     2.98790       11.6110           0  -1.68100       1.41400    
      2368 OAC      80       OAC      DC2      DRUD     -3.18190      0.400000           0   0.00000       0.00000    
      2369 OAC      80       OAC      H1       HDA3A    0.400000E-02   1.00800           0   0.00000       0.00000    
      2370 OAC      80       OAC      H2       HDA3A    0.400000E-02   1.00800           0   0.00000       0.00000    
      2371 OAC      80       OAC      H3       HDA3A    0.400000E-02   1.00800           0   0.00000       0.00000    
      2372 OAC      80       OAC      O1       OD2C2A    2.05480       15.5994           0 -0.699000       2.39900    
      2373 OAC      80       OAC      DO1      DRUD     -2.05180      0.400000           0   0.00000       0.00000    
      2374 OAC      80       OAC      O2       OD2C2A    2.05480       15.5994           0 -0.699000       2.39900    
      2375 OAC      80       OAC      DO2      DRUD     -2.05180      0.400000           0   0.00000       0.00000    
      2376 OAC      80       OAC      H        DUMH      0.00000       1.00800           0   0.00000       0.00000    
      2377 OAC      80       OAC      LPO11    LPD     -0.383000       0.00000          -1   0.00000       0.00000    
      2378 OAC      80       OAC      LPO12    LPD     -0.383000       0.00000          -1   0.00000       0.00000    
      2379 OAC      80       OAC      LPO21    LPD     -0.383000       0.00000          -1   0.00000       0.00000    
      2380 OAC      80       OAC      LPO22    LPD     -0.383000       0.00000          -1   0.00000       0.00000    
      2381 OAC      81       OAC      C1       CD2O2A    3.18170       11.6110           0  -1.01600      0.899000    
      2382 OAC      81       OAC      DC1      DRUD     -2.47370      0.400000           0   0.00000       0.00000    
      2383 OAC      81       OAC      C2       CD33A     2.98790       11.6110           0  -1.68100       1.41400    
      2384 OAC      81       OAC      DC2      DRUD     -3.18190      0.400000           0   0.00000       0.00000    
      2385 OAC      81       OAC      H1       HDA3A    0.400000E-02   1.00800           0   0.00000       0.00000    
      2386 OAC      81       OAC      H2       HDA3A    0.400000E-02   1.00800           0   0.00000       0.00000    
      2387 OAC      81       OAC      H3       HDA3A    0.400000E-02   1.00800           0   0.00000       0.00000    
      2388 OAC      81       OAC      O1       OD2C2A    2.05480       15.5994           0 -0.699000       2.39900    
      2389 OAC      81       OAC      DO1      DRUD     -2.05180      0.400000           0   0.00000       0.00000    
      2390 OAC      81       OAC      O2       OD2C2A    2.05480       15.5994           0 -0.699000       2.39900    
      2391 OAC      81       OAC      DO2      DRUD     -2.05180      0.400000           0   0.00000       0.00000    
      2392 OAC      81       OAC      H        DUMH      0.00000       1.00800           0   0.00000       0.00000    
      2393 OAC      81       OAC      LPO11    LPD     -0.383000       0.00000          -1   0.00000       0.00000    
      2394 OAC      81       OAC      LPO12    LPD     -0.383000       0.00000          -1   0.00000       0.00000    
      2395 OAC      81       OAC      LPO21    LPD     -0.383000       0.00000          -1   0.00000       0.00000    
      2396 OAC      81       OAC      LPO22    LPD     -0.383000       0.00000          -1   0.00000       0.00000    
      2397 OAC      82       OAC      C1       CD2O2A    3.18170       11.6110           0  -1.01600      0.899000    
      2398 OAC      82       OAC      DC1      DRUD     -2.47370      0.400000           0   0.00000       0.00000    
      2399 OAC      82       OAC      C2       CD33A     2.98790       11.6110           0  -1.68100       1.41400    
      2400 OAC      82       OAC      DC2      DRUD     -3.18190      0.400000           0   0.00000       0.00000    
      2401 OAC      82       OAC      H1       HDA3A    0.400000E-02   1.00800           0   0.00000       0.00000    
      2402 OAC      82       OAC      H2       HDA3A    0.400000E-02   1.00800           0   0.00000       0.00000    
      2403 OAC      82       OAC      H3       HDA3A    0.400000E-02   1.00800           0   0.00000       0.00000    
      2404 OAC      82       OAC      O1       OD2C2A    2.05480       15.5994           0 -0.699000       2.39900    
      2405 OAC      82       OAC      DO1      DRUD     -2.05180      0.400000           0   0.00000       0.00000    
      2406 OAC      82       OAC      O2       OD2C2A    2.05480       15.5994           0 -0.699000       2.39900    
      2407 OAC      82       OAC      DO2      DRUD     -2.05180      0.400000           0   0.00000       0.00000    
      2408 OAC      82       OAC      H        DUMH      0.00000       1.00800           0   0.00000       0.00000    
      2409 OAC      82       OAC      LPO11    LPD     -0.383000       0.00000          -1   0.00000       0.00000    
      2410 OAC      82       OAC      LPO12    LPD     -0.383000       0.00000          -1   0.00000       0.00000    
      2411 OAC      82       OAC      LPO21    LPD     -0.383000       0.00000          -1   0.00000       0.00000    
      2412 OAC      82       OAC      LPO22    LPD     -0.383000       0.00000          -1   0.00000       0.00000    
      2413 OAC      83       OAC      C1       CD2O2A    3.18170       11.6110           0  -1.01600      0.899000    
      2414 OAC      83       OAC      DC1      DRUD     -2.47370      0.400000           0   0.00000       0.00000    
      2415 OAC      83       OAC      C2       CD33A     2.98790       11.6110           0  -1.68100       1.41400    
      2416 OAC      83       OAC      DC2      DRUD     -3.18190      0.400000           0   0.00000       0.00000    
      2417 OAC      83       OAC      H1       HDA3A    0.400000E-02   1.00800           0   0.00000       0.00000    
      2418 OAC      83       OAC      H2       HDA3A    0.400000E-02   1.00800           0   0.00000       0.00000    
      2419 OAC      83       OAC      H3       HDA3A    0.400000E-02   1.00800           0   0.00000       0.00000    
      2420 OAC      83       OAC      O1       OD2C2A    2.05480       15.5994           0 -0.699000       2.39900    
      2421 OAC      83       OAC      DO1      DRUD     -2.05180      0.400000           0   0.00000       0.00000    
      2422 OAC      83       OAC      O2       OD2C2A    2.05480       15.5994           0 -0.699000       2.39900    
      2423 OAC      83       OAC      DO2      DRUD     -2.05180      0.400000           0   0.00000       0.00000    
      2424 OAC      83       OAC      H        DUMH      0.00000       1.00800           0   0.00000       0.00000    
      2425 OAC      83       OAC      LPO11    LPD     -0.383000       0.00000          -1   0.00000       0.00000    
      2426 OAC      83       OAC      LPO12    LPD     -0.383000       0.00000          -1   0.00000       0.00000    
      2427 OAC      83       OAC      LPO21    LPD     -0.383000       0.00000          -1   0.00000       0.00000    
      2428 OAC      83       OAC      LPO22    LPD     -0.383000       0.00000          -1   0.00000       0.00000    
      2429 OAC      84       OAC      C1       CD2O2A    3.18170       11.6110           0  -1.01600      0.899000    
      2430 OAC      84       OAC      DC1      DRUD     -2.47370      0.400000           0   0.00000       0.00000    
      2431 OAC      84       OAC      C2       CD33A     2.98790       11.6110           0  -1.68100       1.41400    
      2432 OAC      84       OAC      DC2      DRUD     -3.18190      0.400000           0   0.00000       0.00000    
      2433 OAC      84       OAC      H1       HDA3A    0.400000E-02   1.00800           0   0.00000       0.00000    
      2434 OAC      84       OAC      H2       HDA3A    0.400000E-02   1.00800           0   0.00000       0.00000    
      2435 OAC      84       OAC      H3       HDA3A    0.400000E-02   1.00800           0   0.00000       0.00000    
      2436 OAC      84       OAC      O1       OD2C2A    2.05480       15.5994           0 -0.699000       2.39900    
      2437 OAC      84       OAC      DO1      DRUD     -2.05180      0.400000           0   0.00000       0.00000    
      2438 OAC      84       OAC      O2       OD2C2A    2.05480       15.5994           0 -0.699000       2.39900    
      2439 OAC      84       OAC      DO2      DRUD     -2.05180      0.400000           0   0.00000       0.00000    
      2440 OAC      84       OAC      H        DUMH      0.00000       1.00800           0   0.00000       0.00000    
      2441 OAC      84       OAC      LPO11    LPD     -0.383000       0.00000          -1   0.00000       0.00000    
      2442 OAC      84       OAC      LPO12    LPD     -0.383000       0.00000          -1   0.00000       0.00000    
      2443 OAC      84       OAC      LPO21    LPD     -0.383000       0.00000          -1   0.00000       0.00000    
      2444 OAC      84       OAC      LPO22    LPD     -0.383000       0.00000          -1   0.00000       0.00000    
      2445 OAC      85       OAC      C1       CD2O2A    3.18170       11.6110           0  -1.01600      0.899000    
      2446 OAC      85       OAC      DC1      DRUD     -2.47370      0.400000           0   0.00000       0.00000    
      2447 OAC      85       OAC      C2       CD33A     2.98790       11.6110           0  -1.68100       1.41400    
      2448 OAC      85       OAC      DC2      DRUD     -3.18190      0.400000           0   0.00000       0.00000    
      2449 OAC      85       OAC      H1       HDA3A    0.400000E-02   1.00800           0   0.00000       0.00000    
      2450 OAC      85       OAC      H2       HDA3A    0.400000E-02   1.00800           0   0.00000       0.00000    
      2451 OAC      85       OAC      H3       HDA3A    0.400000E-02   1.00800           0   0.00000       0.00000    
      2452 OAC      85       OAC      O1       OD2C2A    2.05480       15.5994           0 -0.699000       2.39900    
      2453 OAC      85       OAC      DO1      DRUD     -2.05180      0.400000           0   0.00000       0.00000    
      2454 OAC      85       OAC      O2       OD2C2A    2.05480       15.5994           0 -0.699000       2.39900    
      2455 OAC      85       OAC      DO2      DRUD     -2.05180      0.400000           0   0.00000       0.00000    
      2456 OAC      85       OAC      H        DUMH      0.00000       1.00800           0   0.00000       0.00000    
      2457 OAC      85       OAC      LPO11    LPD     -0.383000       0.00000          -1   0.00000       0.00000    
      2458 OAC      85       OAC      LPO12    LPD     -0.383000       0.00000          -1   0.00000       0.00000    
      2459 OAC      85       OAC      LPO21    LPD     -0.383000       0.00000          -1   0.00000       0.00000    
      2460 OAC      85       OAC      LPO22    LPD     -0.383000       0.00000          -1   0.00000       0.00000    
      2461 OAC      86       OAC      C1       CD2O2A    3.18170       11.6110           0  -1.01600      0.899000    
      2462 OAC      86       OAC      DC1      DRUD     -2.47370      0.400000           0   0.00000       0.00000    
      2463 OAC      86       OAC      C2       CD33A     2.98790       11.6110           0  -1.68100       1.41400    
      2464 OAC      86       OAC      DC2      DRUD     -3.18190      0.400000           0   0.00000       0.00000    
      2465 OAC      86       OAC      H1       HDA3A    0.400000E-02   1.00800           0   0.00000       0.00000    
      2466 OAC      86       OAC      H2       HDA3A    0.400000E-02   1.00800           0   0.00000       0.00000    
      2467 OAC      86       OAC      H3       HDA3A    0.400000E-02   1.00800           0   0.00000       0.00000    
      2468 OAC      86       OAC      O1       OD2C2A    2.05480       15.5994           0 -0.699000       2.39900    
      2469 OAC      86       OAC      DO1      DRUD     -2.05180      0.400000           0   0.00000       0.00000    
      2470 OAC      86       OAC      O2       OD2C2A    2.05480       15.5994           0 -0.699000       2.39900    
      2471 OAC      86       OAC      DO2      DRUD     -2.05180      0.400000           0   0.00000       0.00000    
      2472 OAC      86       OAC      H        DUMH      0.00000       1.00800           0   0.00000       0.00000    
      2473 OAC      86       OAC      LPO11    LPD     -0.383000       0.00000          -1   0.00000       0.00000    
      2474 OAC      86       OAC      LPO12    LPD     -0.383000       0.00000          -1   0.00000       0.00000    
      2475 OAC      86       OAC      LPO21    LPD     -0.383000       0.00000          -1   0.00000       0.00000    
      2476 OAC      86       OAC      LPO22    LPD     -0.383000       0.00000          -1   0.00000       0.00000    
      2477 OAC      87       OAC      C1       CD2O2A    3.18170       11.6110           0  -1.01600      0.899000    
      2478 OAC      87       OAC      DC1      DRUD     -2.47370      0.400000           0   0.00000       0.00000    
      2479 OAC      87       OAC      C2       CD33A     2.98790       11.6110           0  -1.68100       1.41400    
      2480 OAC      87       OAC      DC2      DRUD     -3.18190      0.400000           0   0.00000       0.00000    
      2481 OAC      87       OAC      H1       HDA3A    0.400000E-02   1.00800           0   0.00000       0.00000    
      2482 OAC      87       OAC      H2       HDA3A    0.400000E-02   1.00800           0   0.00000       0.00000    
      2483 OAC      87       OAC      H3       HDA3A    0.400000E-02   1.00800           0   0.00000       0.00000    
      2484 OAC      87       OAC      O1       OD2C2A    2.05480       15.5994           0 -0.699000       2.39900    
      2485 OAC      87       OAC      DO1      DRUD     -2.05180      0.400000           0   0.00000       0.00000    
      2486 OAC      87       OAC      O2       OD2C2A    2.05480       15.5994           0 -0.699000       2.39900    
      2487 OAC      87       OAC      DO2      DRUD     -2.05180      0.400000           0   0.00000       0.00000    
      2488 OAC      87       OAC      H        DUMH      0.00000       1.00800           0   0.00000       0.00000    
      2489 OAC      87       OAC      LPO11    LPD     -0.383000       0.00000          -1   0.00000       0.00000    
      2490 OAC      87       OAC      LPO12    LPD     -0.383000       0.00000          -1   0.00000       0.00000    
      2491 OAC      87       OAC      LPO21    LPD     -0.383000       0.00000          -1   0.00000       0.00000    
      2492 OAC      87       OAC      LPO22    LPD     -0.383000       0.00000          -1   0.00000       0.00000    
      2493 OAC      88       OAC      C1       CD2O2A    3.18170       11.6110           0  -1.01600      0.899000    
      2494 OAC      88       OAC      DC1      DRUD     -2.47370      0.400000           0   0.00000       0.00000    
      2495 OAC      88       OAC      C2       CD33A     2.98790       11.6110           0  -1.68100       1.41400    
      2496 OAC      88       OAC      DC2      DRUD     -3.18190      0.400000           0   0.00000       0.00000    
      2497 OAC      88       OAC      H1       HDA3A    0.400000E-02   1.00800           0   0.00000       0.00000    
      2498 OAC      88       OAC      H2       HDA3A    0.400000E-02   1.00800           0   0.00000       0.00000    
      2499 OAC      88       OAC      H3       HDA3A    0.400000E-02   1.00800           0   0.00000       0.00000    
      2500 OAC      88       OAC      O1       OD2C2A    2.05480       15.5994           0 -0.699000       2.39900    
      2501 OAC      88       OAC      DO1      DRUD     -2.05180      0.400000           0   0.00000       0.00000    
      2502 OAC      88       OAC      O2       OD2C2A    2.05480       15.5994           0 -0.699000       2.39900    
      2503 OAC      88       OAC      DO2      DRUD     -2.05180      0.400000           0   0.00000       0.00000    
      2504 OAC      88       OAC      H        DUMH      0.00000       1.00800           0   0.00000       0.00000    
      2505 OAC      88       OAC      LPO11    LPD     -0.383000       0.00000          -1   0.00000       0.00000    
      2506 OAC      88       OAC      LPO12    LPD     -0.383000       0.00000          -1   0.00000       0.00000    
      2507 OAC      88       OAC      LPO21    LPD     -0.383000       0.00000          -1   0.00000       0.00000    
      2508 OAC      88       OAC      LPO22    LPD     -0.383000       0.00000          -1   0.00000       0.00000    
      2509 OAC      89       OAC      C1       CD2O2A    3.18170       11.6110           0  -1.01600      0.899000    
      2510 OAC      89       OAC      DC1      DRUD     -2.47370      0.400000           0   0.00000       0.00000    
      2511 OAC      89       OAC      C2       CD33A     2.98790       11.6110           0  -1.68100       1.41400    
      2512 OAC      89       OAC      DC2      DRUD     -3.18190      0.400000           0   0.00000       0.00000    
      2513 OAC      89       OAC      H1       HDA3A    0.400000E-02   1.00800           0   0.00000       0.00000    
      2514 OAC      89       OAC      H2       HDA3A    0.400000E-02   1.00800           0   0.00000       0.00000    
      2515 OAC      89       OAC      H3       HDA3A    0.400000E-02   1.00800           0   0.00000       0.00000    
      2516 OAC      89       OAC      O1       OD2C2A    2.05480       15.5994           0 -0.699000       2.39900    
      2517 OAC      89       OAC      DO1      DRUD     -2.05180      0.400000           0   0.00000       0.00000    
      2518 OAC      89       OAC      O2       OD2C2A    2.05480       15.5994           0 -0.699000       2.39900    
      2519 OAC      89       OAC      DO2      DRUD     -2.05180      0.400000           0   0.00000       0.00000    
      2520 OAC      89       OAC      H        DUMH      0.00000       1.00800           0   0.00000       0.00000    
      2521 OAC      89       OAC      LPO11    LPD     -0.383000       0.00000          -1   0.00000       0.00000    
      2522 OAC      89       OAC      LPO12    LPD     -0.383000       0.00000          -1   0.00000       0.00000    
      2523 OAC      89       OAC      LPO21    LPD     -0.383000       0.00000          -1   0.00000       0.00000    
      2524 OAC      89       OAC      LPO22    LPD     -0.383000       0.00000          -1   0.00000       0.00000    
      2525 OAC      90       OAC      C1       CD2O2A    3.18170       11.6110           0  -1.01600      0.899000    
      2526 OAC      90       OAC      DC1      DRUD     -2.47370      0.400000           0   0.00000       0.00000    
      2527 OAC      90       OAC      C2       CD33A     2.98790       11.6110           0  -1.68100       1.41400    
      2528 OAC      90       OAC      DC2      DRUD     -3.18190      0.400000           0   0.00000       0.00000    
      2529 OAC      90       OAC      H1       HDA3A    0.400000E-02   1.00800           0   0.00000       0.00000    
      2530 OAC      90       OAC      H2       HDA3A    0.400000E-02   1.00800           0   0.00000       0.00000    
      2531 OAC      90       OAC      H3       HDA3A    0.400000E-02   1.00800           0   0.00000       0.00000    
      2532 OAC      90       OAC      O1       OD2C2A    2.05480       15.5994           0 -0.699000       2.39900    
      2533 OAC      90       OAC      DO1      DRUD     -2.05180      0.400000           0   0.00000       0.00000    
      2534 OAC      90       OAC      O2       OD2C2A    2.05480       15.5994           0 -0.699000       2.39900    
      2535 OAC      90       OAC      DO2      DRUD     -2.05180      0.400000           0   0.00000       0.00000    
      2536 OAC      90       OAC      H        DUMH      0.00000       1.00800           0   0.00000       0.00000    
      2537 OAC      90       OAC      LPO11    LPD     -0.383000       0.00000          -1   0.00000       0.00000    
      2538 OAC      90       OAC      LPO12    LPD     -0.383000       0.00000          -1   0.00000       0.00000    
      2539 OAC      90       OAC      LPO21    LPD     -0.383000       0.00000          -1   0.00000       0.00000    
      2540 OAC      90       OAC      LPO22    LPD     -0.383000       0.00000          -1   0.00000       0.00000    
      2541 OAC      91       OAC      C1       CD2O2A    3.18170       11.6110           0  -1.01600      0.899000    
      2542 OAC      91       OAC      DC1      DRUD     -2.47370      0.400000           0   0.00000       0.00000    
      2543 OAC      91       OAC      C2       CD33A     2.98790       11.6110           0  -1.68100       1.41400    
      2544 OAC      91       OAC      DC2      DRUD     -3.18190      0.400000           0   0.00000       0.00000    
      2545 OAC      91       OAC      H1       HDA3A    0.400000E-02   1.00800           0   0.00000       0.00000    
      2546 OAC      91       OAC      H2       HDA3A    0.400000E-02   1.00800           0   0.00000       0.00000    
      2547 OAC      91       OAC      H3       HDA3A    0.400000E-02   1.00800           0   0.00000       0.00000    
      2548 OAC      91       OAC      O1       OD2C2A    2.05480       15.5994           0 -0.699000       2.39900    
      2549 OAC      91       OAC      DO1      DRUD     -2.05180      0.400000           0   0.00000       0.00000    
      2550 OAC      91       OAC      O2       OD2C2A    2.05480       15.5994           0 -0.699000       2.39900    
      2551 OAC      91       OAC      DO2      DRUD     -2.05180      0.400000           0   0.00000       0.00000    
      2552 OAC      91       OAC      H        DUMH      0.00000       1.00800           0   0.00000       0.00000    
      2553 OAC      91       OAC      LPO11    LPD     -0.383000       0.00000          -1   0.00000       0.00000    
      2554 OAC      91       OAC      LPO12    LPD     -0.383000       0.00000          -1   0.00000       0.00000    
      2555 OAC      91       OAC      LPO21    LPD     -0.383000       0.00000          -1   0.00000       0.00000    
      2556 OAC      91       OAC      LPO22    LPD     -0.383000       0.00000          -1   0.00000       0.00000    
      2557 OAC      92       OAC      C1       CD2O2A    3.18170       11.6110           0  -1.01600      0.899000    
      2558 OAC      92       OAC      DC1      DRUD     -2.47370      0.400000           0   0.00000       0.00000    
      2559 OAC      92       OAC      C2       CD33A     2.98790       11.6110           0  -1.68100       1.41400    
      2560 OAC      92       OAC      DC2      DRUD     -3.18190      0.400000           0   0.00000       0.00000    
      2561 OAC      92       OAC      H1       HDA3A    0.400000E-02   1.00800           0   0.00000       0.00000    
      2562 OAC      92       OAC      H2       HDA3A    0.400000E-02   1.00800           0   0.00000       0.00000    
      2563 OAC      92       OAC      H3       HDA3A    0.400000E-02   1.00800           0   0.00000       0.00000    
      2564 OAC      92       OAC      O1       OD2C2A    2.05480       15.5994           0 -0.699000       2.39900    
      2565 OAC      92       OAC      DO1      DRUD     -2.05180      0.400000           0   0.00000       0.00000    
      2566 OAC      92       OAC      O2       OD2C2A    2.05480       15.5994           0 -0.699000       2.39900    
      2567 OAC      92       OAC      DO2      DRUD     -2.05180      0.400000           0   0.00000       0.00000    
      2568 OAC      92       OAC      H        DUMH      0.00000       1.00800           0   0.00000       0.00000    
      2569 OAC      92       OAC      LPO11    LPD     -0.383000       0.00000          -1   0.00000       0.00000    
      2570 OAC      92       OAC      LPO12    LPD     -0.383000       0.00000          -1   0.00000       0.00000    
      2571 OAC      92       OAC      LPO21    LPD     -0.383000       0.00000          -1   0.00000       0.00000    
      2572 OAC      92       OAC      LPO22    LPD     -0.383000       0.00000          -1   0.00000       0.00000    
      2573 OAC      93       OAC      C1       CD2O2A    3.18170       11.6110           0  -1.01600      0.899000    
      2574 OAC      93       OAC      DC1      DRUD     -2.47370      0.400000           0   0.00000       0.00000    
      2575 OAC      93       OAC      C2       CD33A     2.98790       11.6110           0  -1.68100       1.41400    
      2576 OAC      93       OAC      DC2      DRUD     -3.18190      0.400000           0   0.00000       0.00000    
      2577 OAC      93       OAC      H1       HDA3A    0.400000E-02   1.00800           0   0.00000       0.00000    
      2578 OAC      93       OAC      H2       HDA3A    0.400000E-02   1.00800           0   0.00000       0.00000    
      2579 OAC      93       OAC      H3       HDA3A    0.400000E-02   1.00800           0   0.00000       0.00000    
      2580 OAC      93       OAC      O1       OD2C2A    2.05480       15.5994           0 -0.699000       2.39900    
      2581 OAC      93       OAC      DO1      DRUD     -2.05180      0.400000           0   0.00000       0.00000    
      2582 OAC      93       OAC      O2       OD2C2A    2.05480       15.5994           0 -0.699000       2.39900    
      2583 OAC      93       OAC      DO2      DRUD     -2.05180      0.400000           0   0.00000       0.00000    
      2584 OAC      93       OAC      H        DUMH      0.00000       1.00800           0   0.00000       0.00000    
      2585 OAC      93       OAC      LPO11    LPD     -0.383000       0.00000          -1   0.00000       0.00000    
      2586 OAC      93       OAC      LPO12    LPD     -0.383000       0.00000          -1   0.00000       0.00000    
      2587 OAC      93       OAC      LPO21    LPD     -0.383000       0.00000          -1   0.00000       0.00000    
      2588 OAC      93       OAC      LPO22    LPD     -0.383000       0.00000          -1   0.00000       0.00000    
      2589 OAC      94       OAC      C1       CD2O2A    3.18170       11.6110           0  -1.01600      0.899000    
      2590 OAC      94       OAC      DC1      DRUD     -2.47370      0.400000           0   0.00000       0.00000    
      2591 OAC      94       OAC      C2       CD33A     2.98790       11.6110           0  -1.68100       1.41400    
      2592 OAC      94       OAC      DC2      DRUD     -3.18190      0.400000           0   0.00000       0.00000    
      2593 OAC      94       OAC      H1       HDA3A    0.400000E-02   1.00800           0   0.00000       0.00000    
      2594 OAC      94       OAC      H2       HDA3A    0.400000E-02   1.00800           0   0.00000       0.00000    
      2595 OAC      94       OAC      H3       HDA3A    0.400000E-02   1.00800           0   0.00000       0.00000    
      2596 OAC      94       OAC      O1       OD2C2A    2.05480       15.5994           0 -0.699000       2.39900    
      2597 OAC      94       OAC      DO1      DRUD     -2.05180      0.400000           0   0.00000       0.00000    
      2598 OAC      94       OAC      O2       OD2C2A    2.05480       15.5994           0 -0.699000       2.39900    
      2599 OAC      94       OAC      DO2      DRUD     -2.05180      0.400000           0   0.00000       0.00000    
      2600 OAC      94       OAC      H        DUMH      0.00000       1.00800           0   0.00000       0.00000    
      2601 OAC      94       OAC      LPO11    LPD     -0.383000       0.00000          -1   0.00000       0.00000    
      2602 OAC      94       OAC      LPO12    LPD     -0.383000       0.00000          -1   0.00000       0.00000    
      2603 OAC      94       OAC      LPO21    LPD     -0.383000       0.00000          -1   0.00000       0.00000    
      2604 OAC      94       OAC      LPO22    LPD     -0.383000       0.00000          -1   0.00000       0.00000    
      2605 OAC      95       OAC      C1       CD2O2A    3.18170       11.6110           0  -1.01600      0.899000    
      2606 OAC      95       OAC      DC1      DRUD     -2.47370      0.400000           0   0.00000       0.00000    
      2607 OAC      95       OAC      C2       CD33A     2.98790       11.6110           0  -1.68100       1.41400    
      2608 OAC      95       OAC      DC2      DRUD     -3.18190      0.400000           0   0.00000       0.00000    
      2609 OAC      95       OAC      H1       HDA3A    0.400000E-02   1.00800           0   0.00000       0.00000    
      2610 OAC      95       OAC      H2       HDA3A    0.400000E-02   1.00800           0   0.00000       0.00000    
      2611 OAC      95       OAC      H3       HDA3A    0.400000E-02   1.00800           0   0.00000       0.00000    
      2612 OAC      95       OAC      O1       OD2C2A    2.05480       15.5994           0 -0.699000       2.39900    
      2613 OAC      95       OAC      DO1      DRUD     -2.05180      0.400000           0   0.00000       0.00000    
      2614 OAC      95       OAC      O2       OD2C2A    2.05480       15.5994           0 -0.699000       2.39900    
      2615 OAC      95       OAC      DO2      DRUD     -2.05180      0.400000           0   0.00000       0.00000    
      2616 OAC      95       OAC      H        DUMH      0.00000       1.00800           0   0.00000       0.00000    
      2617 OAC      95       OAC      LPO11    LPD     -0.383000       0.00000          -1   0.00000       0.00000    
      2618 OAC      95       OAC      LPO12    LPD     -0.383000       0.00000          -1   0.00000       0.00000    
      2619 OAC      95       OAC      LPO21    LPD     -0.383000       0.00000          -1   0.00000       0.00000    
      2620 OAC      95       OAC      LPO22    LPD     -0.383000       0.00000          -1   0.00000       0.00000    
      2621 OAC      96       OAC      C1       CD2O2A    3.18170       11.6110           0  -1.01600      0.899000    
      2622 OAC      96       OAC      DC1      DRUD     -2.47370      0.400000           0   0.00000       0.00000    
      2623 OAC      96       OAC      C2       CD33A     2.98790       11.6110           0  -1.68100       1.41400    
      2624 OAC      96       OAC      DC2      DRUD     -3.18190      0.400000           0   0.00000       0.00000    
      2625 OAC      96       OAC      H1       HDA3A    0.400000E-02   1.00800           0   0.00000       0.00000    
      2626 OAC      96       OAC      H2       HDA3A    0.400000E-02   1.00800           0   0.00000       0.00000    
      2627 OAC      96       OAC      H3       HDA3A    0.400000E-02   1.00800           0   0.00000       0.00000    
      2628 OAC      96       OAC      O1       OD2C2A    2.05480       15.5994           0 -0.699000       2.39900    
      2629 OAC      96       OAC      DO1      DRUD     -2.05180      0.400000           0   0.00000       0.00000    
      2630 OAC      96       OAC      O2       OD2C2A    2.05480       15.5994           0 -0.699000       2.39900    
      2631 OAC      96       OAC      DO2      DRUD     -2.05180      0.400000           0   0.00000       0.00000    
      2632 OAC      96       OAC      H        DUMH      0.00000       1.00800           0   0.00000       0.00000    
      2633 OAC      96       OAC      LPO11    LPD     -0.383000       0.00000          -1   0.00000       0.00000    
      2634 OAC      96       OAC      LPO12    LPD     -0.383000       0.00000          -1   0.00000       0.00000    
      2635 OAC      96       OAC      LPO21    LPD     -0.383000       0.00000          -1   0.00000       0.00000    
      2636 OAC      96       OAC      LPO22    LPD     -0.383000       0.00000          -1   0.00000       0.00000    
      2637 OAC      97       OAC      C1       CD2O2A    3.18170       11.6110           0  -1.01600      0.899000    
      2638 OAC      97       OAC      DC1      DRUD     -2.47370      0.400000           0   0.00000       0.00000    
      2639 OAC      97       OAC      C2       CD33A     2.98790       11.6110           0  -1.68100       1.41400    
      2640 OAC      97       OAC      DC2      DRUD     -3.18190      0.400000           0   0.00000       0.00000    
      2641 OAC      97       OAC      H1       HDA3A    0.400000E-02   1.00800           0   0.00000       0.00000    
      2642 OAC      97       OAC      H2       HDA3A    0.400000E-02   1.00800           0   0.00000       0.00000    
      2643 OAC      97       OAC      H3       HDA3A    0.400000E-02   1.00800           0   0.00000       0.00000    
      2644 OAC      97       OAC      O1       OD2C2A    2.05480       15.5994           0 -0.699000       2.39900    
      2645 OAC      97       OAC      DO1      DRUD     -2.05180      0.400000           0   0.00000       0.00000    
      2646 OAC      97       OAC      O2       OD2C2A    2.05480       15.5994           0 -0.699000       2.39900    
      2647 OAC      97       OAC      DO2      DRUD     -2.05180      0.400000           0   0.00000       0.00000    
      2648 OAC      97       OAC      H        DUMH      0.00000       1.00800           0   0.00000       0.00000    
      2649 OAC      97       OAC      LPO11    LPD     -0.383000       0.00000          -1   0.00000       0.00000    
      2650 OAC      97       OAC      LPO12    LPD     -0.383000       0.00000          -1   0.00000       0.00000    
      2651 OAC      97       OAC      LPO21    LPD     -0.383000       0.00000          -1   0.00000       0.00000    
      2652 OAC      97       OAC      LPO22    LPD     -0.383000       0.00000          -1   0.00000       0.00000    
      2653 OAC      98       OAC      C1       CD2O2A    3.18170       11.6110           0  -1.01600      0.899000    
      2654 OAC      98       OAC      DC1      DRUD     -2.47370      0.400000           0   0.00000       0.00000    
      2655 OAC      98       OAC      C2       CD33A     2.98790       11.6110           0  -1.68100       1.41400    
      2656 OAC      98       OAC      DC2      DRUD     -3.18190      0.400000           0   0.00000       0.00000    
      2657 OAC      98       OAC      H1       HDA3A    0.400000E-02   1.00800           0   0.00000       0.00000    
      2658 OAC      98       OAC      H2       HDA3A    0.400000E-02   1.00800           0   0.00000       0.00000    
      2659 OAC      98       OAC      H3       HDA3A    0.400000E-02   1.00800           0   0.00000       0.00000    
      2660 OAC      98       OAC      O1       OD2C2A    2.05480       15.5994           0 -0.699000       2.39900    
      2661 OAC      98       OAC      DO1      DRUD     -2.05180      0.400000           0   0.00000       0.00000    
      2662 OAC      98       OAC      O2       OD2C2A    2.05480       15.5994           0 -0.699000       2.39900    
      2663 OAC      98       OAC      DO2      DRUD     -2.05180      0.400000           0   0.00000       0.00000    
      2664 OAC      98       OAC      H        DUMH      0.00000       1.00800           0   0.00000       0.00000    
      2665 OAC      98       OAC      LPO11    LPD     -0.383000       0.00000          -1   0.00000       0.00000    
      2666 OAC      98       OAC      LPO12    LPD     -0.383000       0.00000          -1   0.00000       0.00000    
      2667 OAC      98       OAC      LPO21    LPD     -0.383000       0.00000          -1   0.00000       0.00000    
      2668 OAC      98       OAC      LPO22    LPD     -0.383000       0.00000          -1   0.00000       0.00000    
      2669 OAC      99       OAC      C1       CD2O2A    3.18170       11.6110           0  -1.01600      0.899000    
      2670 OAC      99       OAC      DC1      DRUD     -2.47370      0.400000           0   0.00000       0.00000    
      2671 OAC      99       OAC      C2       CD33A     2.98790       11.6110           0  -1.68100       1.41400    
      2672 OAC      99       OAC      DC2      DRUD     -3.18190      0.400000           0   0.00000       0.00000    
      2673 OAC      99       OAC      H1       HDA3A    0.400000E-02   1.00800           0   0.00000       0.00000    
      2674 OAC      99       OAC      H2       HDA3A    0.400000E-02   1.00800           0   0.00000       0.00000    
      2675 OAC      99       OAC      H3       HDA3A    0.400000E-02   1.00800           0   0.00000       0.00000    
      2676 OAC      99       OAC      O1       OD2C2A    2.05480       15.5994           0 -0.699000       2.39900    
      2677 OAC      99       OAC      DO1      DRUD     -2.05180      0.400000           0   0.00000       0.00000    
      2678 OAC      99       OAC      O2       OD2C2A    2.05480       15.5994           0 -0.699000       2.39900    
      2679 OAC      99       OAC      DO2      DRUD     -2.05180      0.400000           0   0.00000       0.00000    
      2680 OAC      99       OAC      H        DUMH      0.00000       1.00800           0   0.00000       0.00000    
      2681 OAC      99       OAC      LPO11    LPD     -0.383000       0.00000          -1   0.00000       0.00000    
      2682 OAC      99       OAC      LPO12    LPD     -0.383000       0.00000          -1   0.00000       0.00000    
      2683 OAC      99       OAC      LPO21    LPD     -0.383000       0.00000          -1   0.00000       0.00000    
      2684 OAC      99       OAC      LPO22    LPD     -0.383000       0.00000          -1   0.00000       0.00000    
      2685 OAC      100      OAC      C1       CD2O2A    3.18170       11.6110           0  -1.01600      0.899000    
      2686 OAC      100      OAC      DC1      DRUD     -2.47370      0.400000           0   0.00000       0.00000    
      2687 OAC      100      OAC      C2       CD33A     2.98790       11.6110           0  -1.68100       1.41400    
      2688 OAC      100      OAC      DC2      DRUD     -3.18190      0.400000           0   0.00000       0.00000    
      2689 OAC      100      OAC      H1       HDA3A    0.400000E-02   1.00800           0   0.00000       0.00000    
      2690 OAC      100      OAC      H2       HDA3A    0.400000E-02   1.00800           0   0.00000       0.00000    
      2691 OAC      100      OAC      H3       HDA3A    0.400000E-02   1.00800           0   0.00000       0.00000    
      2692 OAC      100      OAC      O1       OD2C2A    2.05480       15.5994           0 -0.699000       2.39900    
      2693 OAC      100      OAC      DO1      DRUD     -2.05180      0.400000           0   0.00000       0.00000    
      2694 OAC      100      OAC      O2       OD2C2A    2.05480       15.5994           0 -0.699000       2.39900    
      2695 OAC      100      OAC      DO2      DRUD     -2.05180      0.400000           0   0.00000       0.00000    
      2696 OAC      100      OAC      H        DUMH      0.00000       1.00800           0   0.00000       0.00000    
      2697 OAC      100      OAC      LPO11    LPD     -0.383000       0.00000          -1   0.00000       0.00000    
      2698 OAC      100      OAC      LPO12    LPD     -0.383000       0.00000          -1   0.00000       0.00000    
      2699 OAC      100      OAC      LPO21    LPD     -0.383000       0.00000          -1   0.00000       0.00000    
      2700 OAC      100      OAC      LPO22    LPD     -0.383000       0.00000          -1   0.00000       0.00000    

      2500 !NBOND: bonds
         1         2         3         4         1         3         3         5
         3         6         1         7         1         8         1         9
         3        10         3        11        12        13        14        15
        12        14        14        16        14        17        12        18
        12        19        12        20        14        21        14        22
        23        24        25        26        23        25        25        27
        25        28        23        29        23        30        23        31
        25        32        25        33        34        35        36        37
        34        36        36        38        36        39        34        40
        34        41        34        42        36        43        36        44
        45        46        47        48        45        47        47        49
        47        50        45        51        45        52        45        53
        47        54        47        55        56        57        58        59
        56        58        58        60        58        61        56        62
        56        63        56        64        58        65        58        66
        67        68        69        70        67        69        69        71
        69        72        67        73        67        74        67        75
        69        76        69        77        78        79        80        81
        78        80        80        82        80        83        78        84
        78        85        78        86        80        87        80        88
        89        90        91        92        89        91        91        93
        91        94        89        95        89        96        89        97
        91        98        91        99       100       101       102       103
       100       102       102       104       102       105       100       106
       100       107       100       108       102       109       102       110
       111       112       113       114       111       113       113       115
       113       116       111       117       111       118       111       119
       113       120       113       121       122       123       124       125
       122       124       124       126       124       127       122       128
       122       129       122       130       124       131       124       132
       133       134       135       136       133       135       135       137
       135       138       133       139       133       140       133       141
       135       142       135       143       144       145       146       147
       144       146       146       148       146       149       144       150
       144       151       144       152       146       153       146       154
       155       156       157       158       155       157       157       159
       157       160       155       161       155       162       155       163
       157       164       157       165       166       167       168       169
       166       168       168       170       168       171       166       172
       166       173       166       174       168       175       168       176
       177       178       179       180       177       179       179       181
       179       182       177       183       177       184       177       185
       179       186       179       187       188       189       190       191
       188       190       190       192       190       193       188       194
       188       195       188       196       190       197       190       198
       199       200       201       202       199       201       201       203
       201       204       199       205       199       206       199       207
       201       208       201       209       210       211       212       213
       210       212       212       214       212       215       210       216
       210       217       210       218       212       219       212       220
       221       222       223       224       221       223       223       225
       223       226       221       227       221       228       221       229
       223       230       223       231       232       233       234       235
       232       234       234       236       234       237       232       238
       232       239       232       240       234       241       234       242
       243       244       245       246       243       245       245       247
       245       248       243       249       243       250       243       251
       245       252       245       253       254       255       256       257
       254       256       256       258       256       259       254       260
       254       261       254       262       256       263       256       264
       265       266       267       268       265       267       267       269
       267       270       265       271       265       272       265       273
       267       274       267       275       276       277       278       279
       276       278       278       280       278       281       276       282
       276       283       276       284       278       285       278       286
       287       288       289       290       287       289       289       291
       289       292       287       293       287       294       287       295
       289       296       289       297       298       299       300       301
       298       300       300       302       300       303       298       304
       298       305       298       306       300       307       300       308
       309       310       311       312       309       311       311       313
       311       314       309       315       309       316       309       317
       311       318       311       319       320       321       322       323
       320       322       322       324       322       325       320       326
       320       327       320       328       322       329       322       330
       331       332       333       334       331       333       333       335
       333       336       331       337       331       338       331       339
       333       340       333       341       342       343       344       345
       342       344       344       346       344       347       342       348
       342       349       342       350       344       351       344       352
       353       354       355       356       353       355       355       357
       355       358       353       359       353       360       353       361
       355       362       355       363       364       365       366       367
       364       366       366       368       366       369       364       370
       364       371       364       372       366       373       366       374
       375       376       377       378       375       377       377       379
       377       380       375       381       375       382       375       383
       377       384       377       385       386       387       388       389
       386       388       388       390       388       391       386       392
       386       393       386       394       388       395       388       396
       397       398       399       400       397       399       399       401
       399       402       397       403       397       404       397       405
       399       406       399       407       408       409       410       411
       408       410       410       412       410       413       408       414
       408       415       408       416       410       417       410       418
       419       420       421       422       419       421       421       423
       421       424       419       425       419       426       419       427
       421       428       421       429       430       431       432       433
       430       432       432       434       432       435       430       436
       430       437       430       438       432       439       432       440
       441       442       443       444       441       443       443       445
       443       446       441       447       441       448       441       449
       443       450       443       451       452       453       454       455
       452       454       454       456       454       457       452       458
       452       459       452       460       454       461       454       462
       463       464       465       466       463       465       465       467
       465       468       463       469       463       470       463       471
       465       472       465       473       474       475       476       477
       474       476       476       478       476       479       474       480
       474       481       474       482       476       483       476       484
       485       486       487       488       485       487       487       489
       487       490       485       491       485       492       485       493
       487       494       487       495       496       497       498       499
       496       498       498       500       498       501       496       502
       496       503       496       504       498       505       498       506
       507       508       509       510       507       509       509       511
       509       512       507       513       507       514       507       515
       509       516       509       517       518       519       520       521
       518       520       520       522       520       523       518       524
       518       525       518       526       520       527       520       528
       529       530       531       532       529       531       531       533
       531       534       529       535       529       536       529       537
       531       538       531       539       540       541       542       543
       540       542       542       544       542       545       540       546
       540       547       540       548       542       549       542       550
       551       552       553       554       551       553       553       555
       553       556       551       557       551       558       551       559
       553       560       553       561       562       563       564       565
       562       564       564       566       564       567       562       568
       562       569       562       570       564       571       564       572
       573       574       575       576       573       575       575       577
       575       578       573       579       573       580       573       581
       575       582       575       583       584       585       586       587
       584       586       586       588       586       589       584       590
       584       591       584       592       586       593       586       594
       595       596       597       598       595       597       597       599
       597       600       595       601       595       602       595       603
       597       604       597       605       606       607       608       609
       606       608       608       610       608       611       606       612
       606       613       606       614       608       615       608       616
       617       618       619       620       617       619       619       621
       619       622       617       623       617       624       617       625
       619       626       619       627       628       629       630       631
       628       630       630       632       630       633       628       634
       628       635       628       636       630       637       630       638
       639       640       641       642       639       641       641       643
       641       644       639       645       639       646       639       647
       641       648       641       649       650       651       652       653
       650       652       652       654       652       655       650       656
       650       657       650       658       652       659       652       660
       661       662       663       664       661       663       663       665
       663       666       661       667       661       668       661       669
       663       670       663       671       672       673       674       675
       672       674       674       676       674       677       672       678
       672       679       672       680       674       681       674       682
       683       684       685       686       683       685       685       687
       685       688       683       689       683       690       683       691
       685       692       685       693       694       695       696       697
       694       696       696       698       696       699       694       700
       694       701       694       702       696       703       696       704
       705       706       707       708       705       707       707       709
       707       710       705       711       705       712       705       713
       707       714       707       715       716       717       718       719
       716       718       718       720       718       721       716       722
       716       723       716       724       718       725       718       726
       727       728       729       730       727       729       729       731
       729       732       727       733       727       734       727       735
       729       736       729       737       738       739       740       741
       738       740       740       742       740       743       738       744
       738       745       738       746       740       747       740       748
       749       750       751       752       749       751       751       753
       751       754       749       755       749       756       749       757
       751       758       751       759       760       761       762       763
       760       762       762       764       762       765       760       766
       760       767       760       768       762       769       762       770
       771       772       773       774       771       773       773       775
       773       776       771       777       771       778       771       779
       773       780       773       781       782       783       784       785
       782       784       784       786       784       787       782       788
       782       789       782       790       784       791       784       792
       793       794       795       796       793       795       795       797
       795       798       793       799       793       800       793       801
       795       802       795       803       804       805       806       807
       804       806       806       808       806       809       804       810
       804       811       804       812       806       813       806       814
       815       816       817       818       815       817       817       819
       817       820       815       821       815       822       815       823
       817       824       817       825       826       827       828       829
       826       828       828       830       828       831       826       832
       826       833       826       834       828       835       828       836
       837       838       839       840       837       839       839       841
       839       842       837       843       837       844       837       845
       839       846       839       847       848       849       850       851
       848       850       850       852       850       853       848       854
       848       855       848       856       850       857       850       858
       859       860       861       862       859       861       861       863
       861       864       859       865       859       866       859       867
       861       868       861       869       870       871       872       873
       870       872       872       874       872       875       870       876
       870       877       870       878       872       879       872       880
       881       882       883       884       881       883       883       885
       883       886       881       887       881       888       881       889
       883       890       883       891       892       893       894       895
       892       894       894       896       894       897       892       898
       892       899       892       900       894       901       894       902
       903       904       905       906       903       905       905       907
       905       908       903       909       903       910       903       911
       905       912       905       913       914       915       916       917
       914       916       916       918       916       919       914       920
       914       921       914       922       916       923       916       924
       925       926       927       928       925       927       927       929
       927       930       925       931       925       932       925       933
       927       934       927       935       936       937       938       939
       936       938       938       940       938       941       936       942
       936       943       936       944       938       945       938       946
       947       948       949       950       947       949       949       951
       949       952       947       953       947       954       947       955
       949       956       949       957       958       959       960       961
       958       960       960       962       960       963       958       964
       958       965       958       966       960       967       960       968
       969       970       971       972       969       971       971       973
       971       974       969       975       969       976       969       977
       971       978       971       979       980       981       982       983
       980       982       982       984       982       985       980       986
       980       987       980       988       982       989       982       990
       991       992       993       994       991       993       993       995
       993       996       991       997       991       998       991       999
       993      1000       993      1001      1002      1003      1004      1005
      1002      1004      1004      1006      1004      1007      1002      1008
      1002      1009      1002      1010      1004      1011      1004      1012
      1013      1014      1015      1016      1013      1015      1015      1017
      1015      1018      1013      1019      1013      1020      1013      1021
      1015      1022      1015      1023      1024      1025      1026      1027
      1024      1026      1026      1028      1026      1029      1024      1030
      1024      1031      1024      1032      1026      1033      1026      1034
      1035      1036      1037      1038      1035      1037      1037      1039
      1037      1040      1035      1041      1035      1042      1035      1043
      1037      1044      1037      1045      1046      1047      1048      1049
      1046      1048      1048      1050      1048      1051      1046      1052
      1046      1053      1046      1054      1048      1055      1048      1056
      1057      1058      1059      1060      1057      1059      1059      1061
      1059      1062      1057      1063      1057      1064      1057      1065
      1059      1066      1059      1067      1068      1069      1070      1071
      1068      1070      1070      1072      1070      1073      1068      1074
      1068      1075      1068      1076      1070      1077      1070      1078
      1079      1080      1081      1082      1079      1081      1081      1083
      1081      1084      1079      1085      1079      1086      1079      1087
      1081      1088      1081      1089      1090      1091      1092      1093
      1090      1092      1092      1094      1092      1095      1090      1096
      1090      1097      1090      1098      1092      1099      1092      1100
      1101      1102      1103      1104      1108      1109      1110      1111
      1103      1101      1101      1108      1101      1110      1103      1105
      1103      1106      1103      1107      1110      1112      1108      1113
      1108      1114      1110      1115      1110      1116      1117      1118
      1119      1120      1124      1125      1126      1127      1119      1117
      1117      1124      1117      1126      1119      1121      1119      1122
      1119      1123      1126      1128      1124      1129      1124      1130
      1126      1131      1126      1132      1133      1134      1135      1136
      1140      1141      1142      1143      1135      1133      1133      1140
      1133      1142      1135      1137      1135      1138      1135      1139
      1142      1144      1140      1145      1140      1146      1142      1147
      1142      1148      1149      1150      1151      1152      1156      1157
      1158      1159      1151      1149      1149      1156      1149      1158
      1151      1153      1151      1154      1151      1155      1158      1160
      1156      1161      1156      1162      1158      1163      1158      1164
      1165      1166      1167      1168      1172      1173      1174      1175
      1167      1165      1165      1172      1165      1174      1167      1169
      1167      1170      1167      1171      1174      1176      1172      1177
      1172      1178      1174      1179      1174      1180      1181      1182
      1183      1184      1188      1189      1190      1191      1183      1181
      1181      1188      1181      1190      1183      1185      1183      1186
      1183      1187      1190      1192      1188      1193      1188      1194
      1190      1195      1190      1196      1197      1198      1199      1200
      1204      1205      1206      1207      1199      1197      1197      1204
      1197      1206      1199      1201      1199      1202      1199      1203
      1206      1208      1204      1209      1204      1210      1206      1211
      1206      1212      1213      1214      1215      1216      1220      1221
      1222      1223      1215      1213      1213      1220      1213      1222
      1215      1217      1215      1218      1215      1219      1222      1224
      1220      1225      1220      1226      1222      1227      1222      1228
      1229      1230      1231      1232      1236      1237      1238      1239
      1231      1229      1229      1236      1229      1238      1231      1233
      1231      1234      1231      1235      1238      1240      1236      1241
      1236      1242      1238      1243      1238      1244      1245      1246
      1247      1248      1252      1253      1254      1255      1247      1245
      1245      1252      1245      1254      1247      1249      1247      1250
      1247      1251      1254      1256      1252      1257      1252      1258
      1254      1259      1254      1260      1261      1262      1263      1264
      1268      1269      1270      1271      1263      1261      1261      1268
      1261      1270      1263      1265      1263      1266      1263      1267
      1270      1272      1268      1273      1268      1274      1270      1275
      1270      1276      1277      1278      1279      1280      1284      1285
      1286      1287      1279      1277      1277      1284      1277      1286
      1279      1281      1279      1282      1279      1283      1286      1288
      1284      1289      1284      1290      1286      1291      1286      1292
      1293      1294      1295      1296      1300      1301      1302      1303
      1295      1293      1293      1300      1293      1302      1295      1297
      1295      1298      1295      1299      1302      1304      1300      1305
      1300      1306      1302      1307      1302      1308      1309      1310
      1311      1312      1316      1317      1318      1319      1311      1309
      1309      1316      1309      1318      1311      1313      1311      1314
      1311      1315      1318      1320      1316      1321      1316      1322
      1318      1323      1318      1324      1325      1326      1327      1328
      1332      1333      1334      1335      1327      1325      1325      1332
      1325      1334      1327      1329      1327      1330      1327      1331
      1334      1336      1332      1337      1332      1338      1334      1339
      1334      1340      1341      1342      1343      1344      1348      1349
      1350      1351      1343      1341      1341      1348      1341      1350
      1343      1345      1343      1346      1343      1347      1350      1352
      1348      1353      1348      1354      1350      1355      1350      1356
      1357      1358      1359      1360      1364      1365      1366      1367
      1359      1357      1357      1364      1357      1366      1359      1361
      1359      1362      1359      1363      1366      1368      1364      1369
      1364      1370      1366      1371      1366      1372      1373      1374
      1375      1376      1380      1381      1382      1383      1375      1373
      1373      1380      1373      1382      1375      1377      1375      1378
      1375      1379      1382      1384      1380      1385      1380      1386
      1382      1387      1382      1388      1389      1390      1391      1392
      1396      1397      1398      1399      1391      1389      1389      1396
      1389      1398      1391      1393      1391      1394      1391      1395
      1398      1400      1396      1401      1396      1402      1398      1403
      1398      1404      1405      1406      1407      1408      1412      1413
      1414      1415      1407      1405      1405      1412      1405      1414
      1407      1409      1407      1410      1407      1411      1414      1416
      1412      1417      1412      1418      1414      1419      1414      1420
      1421      1422      1423      1424      1428      1429      1430      1431
      1423      1421      1421      1428      1421      1430      1423      1425
      1423      1426      1423      1427      1430      1432      1428      1433
      1428      1434      1430      1435      1430      1436      1437      1438
      1439      1440      1444      1445      1446      1447      1439      1437
      1437      1444      1437      1446      1439      1441      1439      1442
      1439      1443      1446      1448      1444      1449      1444      1450
      1446      1451      1446      1452      1453      1454      1455      1456
      1460      1461      1462      1463      1455      1453      1453      1460
      1453      1462      1455      1457      1455      1458      1455      1459
      1462      1464      1460      1465      1460      1466      1462      1467
      1462      1468      1469      1470      1471      1472      1476      1477
      1478      1479      1471      1469      1469      1476      1469      1478
      1471      1473      1471      1474      1471      1475      1478      1480
      1476      1481      1476      1482      1478      1483      1478      1484
      1485      1486      1487      1488      1492      1493      1494      1495
      1487      1485      1485      1492      1485      1494      1487      1489
      1487      1490      1487      1491      1494      1496      1492      1497
      1492      1498      1494      1499      1494      1500      1501      1502
      1503      1504      1508      1509      1510      1511      1503      1501
      1501      1508      1501      1510      1503      1505      1503      1506
      1503      1507      1510      1512      1508      1513      1508      1514
      1510      1515      1510      1516      1517      1518      1519      1520
      1524      1525      1526      1527      1519      1517      1517      1524
      1517      1526      1519      1521      1519      1522      1519      1523
      1526      1528      1524      1529      1524      1530      1526      1531
      1526      1532      1533      1534      1535      1536      1540      1541
      1542      1543      1535      1533      1533      1540      1533      1542
      1535      1537      1535      1538      1535      1539      1542      1544
      1540      1545      1540      1546      1542      1547      1542      1548
      1549      1550      1551      1552      1556      1557      1558      1559
      1551      1549      1549      1556      1549      1558      1551      1553
      1551      1554      1551      1555      1558      1560      1556      1561
      1556      1562      1558      1563      1558      1564      1565      1566
      1567      1568      1572      1573      1574      1575      1567      1565
      1565      1572      1565      1574      1567      1569      1567      1570
      1567      1571      1574      1576      1572      1577      1572      1578
      1574      1579      1574      1580      1581      1582      1583      1584
      1588      1589      1590      1591      1583      1581      1581      1588
      1581      1590      1583      1585      1583      1586      1583      1587
      1590      1592      1588      1593      1588      1594      1590      1595
      1590      1596      1597      1598      1599      1600      1604      1605
      1606      1607      1599      1597      1597      1604      1597      1606
      1599      1601      1599      1602      1599      1603      1606      1608
      1604      1609      1604      1610      1606      1611      1606      1612
      1613      1614      1615      1616      1620      1621      1622      1623
      1615      1613      1613      1620      1613      1622      1615      1617
      1615      1618      1615      1619      1622      1624      1620      1625
      1620      1626      1622      1627      1622      1628      1629      1630
      1631      1632      1636      1637      1638      1639      1631      1629
      1629      1636      1629      1638      1631      1633      1631      1634
      1631      1635      1638      1640      1636      1641      1636      1642
      1638      1643      1638      1644      1645      1646      1647      1648
      1652      1653      1654      1655      1647      1645      1645      1652
      1645      1654      1647      1649      1647      1650      1647      1651
      1654      1656      1652      1657      1652      1658      1654      1659
      1654      1660      1661      1662      1663      1664      1668      1669
      1670      1671      1663      1661      1661      1668      1661      1670
      1663      1665      1663      1666      1663      1667      1670      1672
      1668      1673      1668      1674      1670      1675      1670      1676
      1677      1678      1679      1680      1684      1685      1686      1687
      1679      1677      1677      1684      1677      1686      1679      1681
      1679      1682      1679      1683      1686      1688      1684      1689
      1684      1690      1686      1691      1686      1692      1693      1694
      1695      1696      1700      1701      1702      1703      1695      1693
      1693      1700      1693      1702      1695      1697      1695      1698
      1695      1699      1702      1704      1700      1705      1700      1706
      1702      1707      1702      1708      1709      1710      1711      1712
      1716      1717      1718      1719      1711      1709      1709      1716
      1709      1718      1711      1713      1711      1714      1711      1715
      1718      1720      1716      1721      1716      1722      1718      1723
      1718      1724      1725      1726      1727      1728      1732      1733
      1734      1735      1727      1725      1725      1732      1725      1734
      1727      1729      1727      1730      1727      1731      1734      1736
      1732      1737      1732      1738      1734      1739      1734      1740
      1741      1742      1743      1744      1748      1749      1750      1751
      1743      1741      1741      1748      1741      1750      1743      1745
      1743      1746      1743      1747      1750      1752      1748      1753
      1748      1754      1750      1755      1750      1756      1757      1758
      1759      1760      1764      1765      1766      1767      1759      1757
      1757      1764      1757      1766      1759      1761      1759      1762
      1759      1763      1766      1768      1764      1769      1764      1770
      1766      1771      1766      1772      1773      1774      1775      1776
      1780      1781      1782      1783      1775      1773      1773      1780
      1773      1782      1775      1777      1775      1778      1775      1779
      1782      1784      1780      1785      1780      1786      1782      1787
      1782      1788      1789      1790      1791      1792      1796      1797
      1798      1799      1791      1789      1789      1796      1789      1798
      1791      1793      1791      1794      1791      1795      1798      1800
      1796      1801      1796      1802      1798      1803      1798      1804
      1805      1806      1807      1808      1812      1813      1814      1815
      1807      1805      1805      1812      1805      1814      1807      1809
      1807      1810      1807      1811      1814      1816      1812      1817
      1812      1818      1814      1819      1814      1820      1821      1822
      1823      1824      1828      1829      1830      1831      1823      1821
      1821      1828      1821      1830      1823      1825      1823      1826
      1823      1827      1830      1832      1828      1833      1828      1834
      1830      1835      1830      1836      1837      1838      1839      1840
      1844      1845      1846      1847      1839      1837      1837      1844
      1837      1846      1839      1841      1839      1842      1839      1843
      1846      1848      1844      1849      1844      1850      1846      1851
      1846      1852      1853      1854      1855      1856      1860      1861
      1862      1863      1855      1853      1853      1860      1853      1862
      1855      1857      1855      1858      1855      1859      1862      1864
      1860      1865      1860      1866      1862      1867      1862      1868
      1869      1870      1871      1872      1876      1877      1878      1879
      1871      1869      1869      1876      1869      1878      1871      1873
      1871      1874      1871      1875      1878      1880      1876      1881
      1876      1882      1878      1883      1878      1884      1885      1886
      1887      1888      1892      1893      1894      1895      1887      1885
      1885      1892      1885      1894      1887      1889      1887      1890
      1887      1891      1894      1896      1892      1897      1892      1898
      1894      1899      1894      1900      1901      1902      1903      1904
      1908      1909      1910      1911      1903      1901      1901      1908
      1901      1910      1903      1905      1903      1906      1903      1907
      1910      1912      1908      1913      1908      1914      1910      1915
      1910      1916      1917      1918      1919      1920      1924      1925
      1926      1927      1919      1917      1917      1924      1917      1926
      1919      1921      1919      1922      1919      1923      1926      1928
      1924      1929      1924      1930      1926      1931      1926      1932
      1933      1934      1935      1936      1940      1941      1942      1943
      1935      1933      1933      1940      1933      1942      1935      1937
      1935      1938      1935      1939      1942      1944      1940      1945
      1940      1946      1942      1947      1942      1948      1949      1950
      1951      1952      1956      1957      1958      1959      1951      1949
      1949      1956      1949      1958      1951      1953      1951      1954
      1951      1955      1958      1960      1956      1961      1956      1962
      1958      1963      1958      1964      1965      1966      1967      1968
      1972      1973      1974      1975      1967      1965      1965      1972
      1965      1974      1967      1969      1967      1970      1967      1971
      1974      1976      1972      1977      1972      1978      1974      1979
      1974      1980      1981      1982      1983      1984      1988      1989
      1990      1991      1983      1981      1981      1988      1981      1990
      1983      1985      1983      1986      1983      1987      1990      1992
      1988      1993      1988      1994      1990      1995      1990      1996
      1997      1998      1999      2000      2004      2005      2006      2007
      1999      1997      1997      2004      1997      2006      1999      2001
      1999      2002      1999      2003      2006      2008      2004      2009
      2004      2010      2006      2011      2006      2012      2013      2014
      2015      2016      2020      2021      2022      2023      2015      2013
      2013      2020      2013      2022      2015      2017      2015      2018
      2015      2019      2022      2024      2020      2025      2020      2026
      2022      2027      2022      2028      2029      2030      2031      2032
      2036      2037      2038      2039      2031      2029      2029      2036
      2029      2038      2031      2033      2031      2034      2031      2035
      2038      2040      2036      2041      2036      2042      2038      2043
      2038      2044      2045      2046      2047      2048      2052      2053
      2054      2055      2047      2045      2045      2052      2045      2054
      2047      2049      2047      2050      2047      2051      2054      2056
      2052      2057      2052      2058      2054      2059      2054      2060
      2061      2062      2063      2064      2068      2069      2070      2071
      2063      2061      2061      2068      2061      2070      2063      2065
      2063      2066      2063      2067      2070      2072      2068      2073
      2068      2074      2070      2075      2070      2076      2077      2078
      2079      2080      2084      2085      2086      2087      2079      2077
      2077      2084      2077      2086      2079      2081      2079      2082
      2079      2083      2086      2088      2084      2089      2084      2090
      2086      2091      2086      2092      2093      2094      2095      2096
      2100      2101      2102      2103      2095      2093      2093      2100
      2093      2102      2095      2097      2095      2098      2095      2099
      2102      2104      2100      2105      2100      2106      2102      2107
      2102      2108      2109      2110      2111      2112      2116      2117
      2118      2119      2111      2109      2109      2116      2109      2118
      2111      2113      2111      2114      2111      2115      2118      2120
      2116      2121      2116      2122      2118      2123      2118      2124
      2125      2126      2127      2128      2132      2133      2134      2135
      2127      2125      2125      2132      2125      2134      2127      2129
      2127      2130      2127      2131      2134      2136      2132      2137
      2132      2138      2134      2139      2134      2140      2141      2142
      2143      2144      2148      2149      2150      2151      2143      2141
      2141      2148      2141      2150      2143      2145      2143      2146
      2143      2147      2150      2152      2148      2153      2148      2154
      2150      2155      2150      2156      2157      2158      2159      2160
      2164      2165      2166      2167      2159      2157      2157      2164
      2157      2166      2159      2161      2159      2162      2159      2163
      2166      2168      2164      2169      2164      2170      2166      2171
      2166      2172      2173      2174      2175      2176      2180      2181
      2182      2183      2175      2173      2173      2180      2173      2182
      2175      2177      2175      2178      2175      2179      2182      2184
      2180      2185      2180      2186      2182      2187      2182      2188
      2189      2190      2191      2192      2196      2197      2198      2199
      2191      2189      2189      2196      2189      2198      2191      2193
      2191      2194      2191      2195      2198      2200      2196      2201
      2196      2202      2198      2203      2198      2204      2205      2206
      2207      2208      2212      2213      2214      2215      2207      2205
      2205      2212      2205      2214      2207      2209      2207      2210
      2207      2211      2214      2216      2212      2217      2212      2218
      2214      2219      2214      2220      2221      2222      2223      2224
      2228      2229      2230      2231      2223      2221      2221      2228
      2221      2230      2223      2225      2223      2226      2223      2227
      2230      2232      2228      2233      2228      2234      2230      2235
      2230      2236      2237      2238      2239      2240      2244      2245
      2246      2247      2239      2237      2237      2244      2237      2246
      2239      2241      2239      2242      2239      2243      2246      2248
      2244      2249      2244      2250      2246      2251      2246      2252
      2253      2254      2255      2256      2260      2261      2262      2263
      2255      2253      2253      2260      2253      2262      2255      2257
      2255      2258      2255      2259      2262      2264      2260      2265
      2260      2266      2262      2267      2262      2268      2269      2270
      2271      2272      2276      2277      2278      2279      2271      2269
      2269      2276      2269      2278      2271      2273      2271      2274
      2271      2275      2278      2280      2276      2281      2276      2282
      2278      2283      2278      2284      2285      2286      2287      2288
      2292      2293      2294      2295      2287      2285      2285      2292
      2285      2294      2287      2289      2287      2290      2287      2291
      2294      2296      2292      2297      2292      2298      2294      2299
      2294      2300      2301      2302      2303      2304      2308      2309
      2310      2311      2303      2301      2301      2308      2301      2310
      2303      2305      2303      2306      2303      2307      2310      2312
      2308      2313      2308      2314      2310      2315      2310      2316
      2317      2318      2319      2320      2324      2325      2326      2327
      2319      2317      2317      2324      2317      2326      2319      2321
      2319      2322      2319      2323      2326      2328      2324      2329
      2324      2330      2326      2331      2326      2332      2333      2334
      2335      2336      2340      2341      2342      2343      2335      2333
      2333      2340      2333      2342      2335      2337      2335      2338
      2335      2339      2342      2344      2340      2345      2340      2346
      2342      2347      2342      2348      2349      2350      2351      2352
      2356      2357      2358      2359      2351      2349      2349      2356
      2349      2358      2351      2353      2351      2354      2351      2355
      2358      2360      2356      2361      2356      2362      2358      2363
      2358      2364      2365      2366      2367      2368      2372      2373
      2374      2375      2367      2365      2365      2372      2365      2374
      2367      2369      2367      2370      2367      2371      2374      2376
      2372      2377      2372      2378      2374      2379      2374      2380
      2381      2382      2383      2384      2388      2389      2390      2391
      2383      2381      2381      2388      2381      2390      2383      2385
      2383      2386      2383      2387      2390      2392      2388      2393
      2388      2394      2390      2395      2390      2396      2397      2398
      2399      2400      2404      2405      2406      2407      2399      2397
      2397      2404      2397      2406      2399      2401      2399      2402
      2399      2403      2406      2408      2404      2409      2404      2410
      2406      2411      2406      2412      2413      2414      2415      2416
      2420      2421      2422      2423      2415      2413      2413      2420
      2413      2422      2415      2417      2415      2418      2415      2419
      2422      2424      2420      2425      2420      2426      2422      2427
      2422      2428      2429      2430      2431      2432      2436      2437
      2438      2439      2431      2429      2429      2436      2429      2438
      2431      2433      2431      2434      2431      2435      2438      2440
      2436      2441      2436      2442      2438      2443      2438      2444
      2445      2446      2447      2448      2452      2453      2454      2455
      2447      2445      2445      2452      2445      2454      2447      2449
      2447      2450      2447      2451      2454      2456      2452      2457
      2452      2458      2454      2459      2454      2460      2461      2462
      2463      2464      2468      2469      2470      2471      2463      2461
      2461      2468      2461      2470      2463      2465      2463      2466
      2463      2467      2470      2472      2468      2473      2468      2474
      2470      2475      2470      2476      2477      2478      2479      2480
      2484      2485      2486      2487      2479      2477      2477      2484
      2477      2486      2479      2481      2479      2482      2479      2483
      2486      2488      2484      2489      2484      2490      2486      2491
      2486      2492      2493      2494      2495      2496      2500      2501
      2502      2503      2495      2493      2493      2500      2493      2502
      2495      2497      2495      2498      2495      2499      2502      2504
      2500      2505      2500      2506      2502      2507      2502      2508
      2509      2510      2511      2512      2516      2517      2518      2519
      2511      2509      2509      2516      2509      2518      2511      2513
      2511      2514      2511      2515      2518      2520      2516      2521
      2516      2522      2518      2523      2518      2524      2525      2526
      2527      2528      2532      2533      2534      2535      2527      2525
      2525      2532      2525      2534      2527      2529      2527      2530
      2527      2531      2534      2536      2532      2537      2532      2538
      2534      2539      2534      2540      2541      2542      2543      2544
      2548      2549      2550      2551      2543      2541      2541      2548
      2541      2550      2543      2545      2543      2546      2543      2547
      2550      2552      2548      2553      2548      2554      2550      2555
      2550      2556      2557      2558      2559      2560      2564      2565
      2566      2567      2559      2557      2557      2564      2557      2566
      2559      2561      2559      2562      2559      2563      2566      2568
      2564      2569      2564      2570      2566      2571      2566      2572
      2573      2574      2575      2576      2580      2581      2582      2583
      2575      2573      2573      2580      2573      2582      2575      2577
      2575      2578      2575      2579      2582      2584      2580      2585
      2580      2586      2582      2587      2582      2588      2589      2590
      2591      2592      2596      2597      2598      2599      2591      2589
      2589      2596      2589      2598      2591      2593      2591      2594
      2591      2595      2598      2600      2596      2601      2596      2602
      2598      2603      2598      2604      2605      2606      2607      2608
      2612      2613      2614      2615      2607      2605      2605      2612
      2605      2614      2607      2609      2607      2610      2607      2611
      2614      2616      2612      2617      2612      2618      2614      2619
      2614      2620      2621      2622      2623      2624      2628      2629
      2630      2631      2623      2621      2621      2628      2621      2630
      2623      2625      2623      2626      2623      2627      2630      2632
      2628      2633      2628      2634      2630      2635      2630      2636
      2637      2638      2639      2640      2644      2645      2646      2647
      2639      2637      2637      2644      2637      2646      2639      2641
      2639      2642      2639      2643      2646      2648      2644      2649
      2644      2650      2646      2651      2646      2652      2653      2654
      2655      2656      2660      2661      2662      2663      2655      2653
      2653      2660      2653      2662      2655      2657      2655      2658
      2655      2659      2662      2664      2660      2665      2660      2666
      2662      2667      2662      2668      2669      2670      2671      2672
      2676      2677      2678      2679      2671      2669      2669      2676
      2669      2678      2671      2673      2671      2674      2671      2675
      2678      2680      2676      2681      2676      2682      2678      2683
      2678      2684      2685      2686      2687      2688      2692      2693
      2694      2695      2687      2685      2685      2692      2685      2694
      2687      2689      2687      2690      2687      2691      2694      2696
      2692      2697      2692      2698      2694      2699      2694      2700

      1900 !NTHETA: angles
         3         1         7         3         1         8         3         1         9
         7         1         8         7         1         9         8         1         9
         1         3         5         1         3         6         5         3         6
        14        12        18        14        12        19        14        12        20
        18        12        19        18        12        20        19        12        20
        12        14        16        12        14        17        16        14        17
        25        23        29        25        23        30        25        23        31
        29        23        30        29        23        31        30        23        31
        23        25        27        23        25        28        27        25        28
        36        34        40        36        34        41        36        34        42
        40        34        41        40        34        42        41        34        42
        34        36        38        34        36        39        38        36        39
        47        45        51        47        45        52        47        45        53
        51        45        52        51        45        53        52        45        53
        45        47        49        45        47        50        49        47        50
        58        56        62        58        56        63        58        56        64
        62        56        63        62        56        64        63        56        64
        56        58        60        56        58        61        60        58        61
        69        67        73        69        67        74        69        67        75
        73        67        74        73        67        75        74        67        75
        67        69        71        67        69        72        71        69        72
        80        78        84        80        78        85        80        78        86
        84        78        85        84        78        86        85        78        86
        78        80        82        78        80        83        82        80        83
        91        89        95        91        89        96        91        89        97
        95        89        96        95        89        97        96        89        97
        89        91        93        89        91        94        93        91        94
       102       100       106       102       100       107       102       100       108
       106       100       107       106       100       108       107       100       108
       100       102       104       100       102       105       104       102       105
       113       111       117       113       111       118       113       111       119
       117       111       118       117       111       119       118       111       119
       111       113       115       111       113       116       115       113       116
       124       122       128       124       122       129       124       122       130
       128       122       129       128       122       130       129       122       130
       122       124       126       122       124       127       126       124       127
       135       133       139       135       133       140       135       133       141
       139       133       140       139       133       141       140       133       141
       133       135       137       133       135       138       137       135       138
       146       144       150       146       144       151       146       144       152
       150       144       151       150       144       152       151       144       152
       144       146       148       144       146       149       148       146       149
       157       155       161       157       155       162       157       155       163
       161       155       162       161       155       163       162       155       163
       155       157       159       155       157       160       159       157       160
       168       166       172       168       166       173       168       166       174
       172       166       173       172       166       174       173       166       174
       166       168       170       166       168       171       170       168       171
       179       177       183       179       177       184       179       177       185
       183       177       184       183       177       185       184       177       185
       177       179       181       177       179       182       181       179       182
       190       188       194       190       188       195       190       188       196
       194       188       195       194       188       196       195       188       196
       188       190       192       188       190       193       192       190       193
       201       199       205       201       199       206       201       199       207
       205       199       206       205       199       207       206       199       207
       199       201       203       199       201       204       203       201       204
       212       210       216       212       210       217       212       210       218
       216       210       217       216       210       218       217       210       218
       210       212       214       210       212       215       214       212       215
       223       221       227       223       221       228       223       221       229
       227       221       228       227       221       229       228       221       229
       221       223       225       221       223       226       225       223       226
       234       232       238       234       232       239       234       232       240
       238       232       239       238       232       240       239       232       240
       232       234       236       232       234       237       236       234       237
       245       243       249       245       243       250       245       243       251
       249       243       250       249       243       251       250       243       251
       243       245       247       243       245       248       247       245       248
       256       254       260       256       254       261       256       254       262
       260       254       261       260       254       262       261       254       262
       254       256       258       254       256       259       258       256       259
       267       265       271       267       265       272       267       265       273
       271       265       272       271       265       273       272       265       273
       265       267       269       265       267       270       269       267       270
       278       276       282       278       276       283       278       276       284
       282       276       283       282       276       284       283       276       284
       276       278       280       276       278       281       280       278       281
       289       287       293       289       287       294       289       287       295
       293       287       294       293       287       295       294       287       295
       287       289       291       287       289       292       291       289       292
       300       298       304       300       298       305       300       298       306
       304       298       305       304       298       306       305       298       306
       298       300       302       298       300       303       302       300       303
       311       309       315       311       309       316       311       309       317
       315       309       316       315       309       317       316       309       317
       309       311       313       309       311       314       313       311       314
       322       320       326       322       320       327       322       320       328
       326       320       327       326       320       328       327       320       328
       320       322       324       320       322       325       324       322       325
       333       331       337       333       331       338       333       331       339
       337       331       338       337       331       339       338       331       339
       331       333       335       331       333       336       335       333       336
       344       342       348       344       342       349       344       342       350
       348       342       349       348       342       350       349       342       350
       342       344       346       342       344       347       346       344       347
       355       353       359       355       353       360       355       353       361
       359       353       360       359       353       361       360       353       361
       353       355       357       353       355       358       357       355       358
       366       364       370       366       364       371       366       364       372
       370       364       371       370       364       372       371       364       372
       364       366       368       364       366       369       368       366       369
       377       375       381       377       375       382       377       375       383
       381       375       382       381       375       383       382       375       383
       375       377       379       375       377       380       379       377       380
       388       386       392       388       386       393       388       386       394
       392       386       393       392       386       394       393       386       394
       386       388       390       386       388       391       390       388       391
       399       397       403       399       397       404       399       397       405
       403       397       404       403       397       405       404       397       405
       397       399       401       397       399       402       401       399       402
       410       408       414       410       408       415       410       408       416
       414       408       415       414       408       416       415       408       416
       408       410       412       408       410       413       412       410       413
       421       419       425       421       419       426       421       419       427
       425       419       426       425       419       427       426       419       427
       419       421       423       419       421       424       423       421       424
       432       430       436       432       430       437       432       430       438
       436       430       437       436       430       438       437       430       438
       430       432       434       430       432       435       434       432       435
       443       441       447       443       441       448       443       441       449
       447       441       448       447       441       449       448       441       449
       441       443       445       441       443       446       445       443       446
       454       452       458       454       452       459       454       452       460
       458       452       459       458       452       460       459       452       460
       452       454       456       452       454       457       456       454       457
       465       463       469       465       463       470       465       463       471
       469       463       470       469       463       471       470       463       471
       463       465       467       463       465       468       467       465       468
       476       474       480       476       474       481       476       474       482
       480       474       481       480       474       482       481       474       482
       474       476       478       474       476       479       478       476       479
       487       485       491       487       485       492       487       485       493
       491       485       492       491       485       493       492       485       493
       485       487       489       485       487       490       489       487       490
       498       496       502       498       496       503       498       496       504
       502       496       503       502       496       504       503       496       504
       496       498       500       496       498       501       500       498       501
       509       507       513       509       507       514       509       507       515
       513       507       514       513       507       515       514       507       515
       507       509       511       507       509       512       511       509       512
       520       518       524       520       518       525       520       518       526
       524       518       525       524       518       526       525       518       526
       518       520       522       518       520       523       522       520       523
       531       529       535       531       529       536       531       529       537
       535       529       536       535       529       537       536       529       537
       529       531       533       529       531       534       533       531       534
       542       540       546       542       540       547       542       540       548
       546       540       547       546       540       548       547       540       548
       540       542       544       540       542       545       544       542       545
       553       551       557       553       551       558       553       551       559
       557       551       558       557       551       559       558       551       559
       551       553       555       551       553       556       555       553       556
       564       562       568       564       562       569       564       562       570
       568       562       569       568       562       570       569       562       570
       562       564       566       562       564       567       566       564       567
       575       573       579       575       573       580       575       573       581
       579       573       580       579       573       581       580       573       581
       573       575       577       573       575       578       577       575       578
       586       584       590       586       584       591       586       584       592
       590       584       591       590       584       592       591       584       592
       584       586       588       584       586       589       588       586       589
       597       595       601       597       595       602       597       595       603
       601       595       602       601       595       603       602       595       603
       595       597       599       595       597       600       599       597       600
       608       606       612       608       606       613       608       606       614
       612       606       613       612       606       614       613       606       614
       606       608       610       606       608       611       610       608       611
       619       617       623       619       617       624       619       617       625
       623       617       624       623       617       625       624       617       625
       617       619       621       617       619       622       621       619       622
       630       628       634       630       628       635       630       628       636
       634       628       635       634       628       636       635       628       636
       628       630       632       628       630       633       632       630       633
       641       639       645       641       639       646       641       639       647
       645       639       646       645       639       647       646       639       647
       639       641       643       639       641       644       643       641       644
       652       650       656       652       650       657       652       650       658
       656       650       657       656       650       658       657       650       658
       650       652       654       650       652       655       654       652       655
       663       661       667       663       661       668       663       661       669
       667       661       668       667       661       669       668       661       669
       661       663       665       661       663       666       665       663       666
       674       672       678       674       672       679       674       672       680
       678       672       679       678       672       680       679       672       680
       672       674       676       672       674       677       676       674       677
       685       683       689       685       683       690       685       683       691
       689       683       690       689       683       691       690       683       691
       683       685       687       683       685       688       687       685       688
       696       694       700       696       694       701       696       694       702
       700       694       701       700       694       702       701       694       702
       694       696       698       694       696       699       698       696       699
       707       705       711       707       705       712       707       705       713
       711       705       712       711       705       713       712       705       713
       705       707       709       705       707       710       709       707       710
       718       716       722       718       716       723       718       716       724
       722       716       723       722       716       724       723       716       724
       716       718       720       716       718       721       720       718       721
       729       727       733       729       727       734       729       727       735
       733       727       734       733       727       735       734       727       735
       727       729       731       727       729       732       731       729       732
       740       738       744       740       738       745       740       738       746
       744       738       745       744       738       746       745       738       746
       738       740       742       738       740       743       742       740       743
       751       749       755       751       749       756       751       749       757
       755       749       756       755       749       757       756       749       757
       749       751       753       749       751       754       753       751       754
       762       760       766       762       760       767       762       760       768
       766       760       767       766       760       768       767       760       768
       760       762       764       760       762       765       764       762       765
       773       771       777       773       771       778       773       771       779
       777       771       778       777       771       779       778       771       779
       771       773       775       771       773       776       775       773       776
       784       782       788       784       782       789       784       782       790
       788       782       789       788       782       790       789       782       790
       782       784       786       782       784       787       786       784       787
       795       793       799       795       793       800       795       793       801
       799       793       800       799       793       801       800       793       801
       793       795       797       793       795       798       797       795       798
       806       804       810       806       804       811       806       804       812
       810       804       811       810       804       812       811       804       812
       804       806       808       804       806       809       808       806       809
       817       815       821       817       815       822       817       815       823
       821       815       822       821       815       823       822       815       823
       815       817       819       815       817       820       819       817       820
       828       826       832       828       826       833       828       826       834
       832       826       833       832       826       834       833       826       834
       826       828       830       826       828       831       830       828       831
       839       837       843       839       837       844       839       837       845
       843       837       844       843       837       845       844       837       845
       837       839       841       837       839       842       841       839       842
       850       848       854       850       848       855       850       848       856
       854       848       855       854       848       856       855       848       856
       848       850       852       848       850       853       852       850       853
       861       859       865       861       859       866       861       859       867
       865       859       866       865       859       867       866       859       867
       859       861       863       859       861       864       863       861       864
       872       870       876       872       870       877       872       870       878
       876       870       877       876       870       878       877       870       878
       870       872       874       870       872       875       874       872       875
       883       881       887       883       881       888       883       881       889
       887       881       888       887       881       889       888       881       889
       881       883       885       881       883       886       885       883       886
       894       892       898       894       892       899       894       892       900
       898       892       899       898       892       900       899       892       900
       892       894       896       892       894       897       896       894       897
       905       903       909       905       903       910       905       903       911
       909       903       910       909       903       911       910       903       911
       903       905       907       903       905       908       907       905       908
       916       914       920       916       914       921       916       914       922
       920       914       921       920       914       922       921       914       922
       914       916       918       914       916       919       918       916       919
       927       925       931       927       925       932       927       925       933
       931       925       932       931       925       933       932       925       933
       925       927       929       925       927       930       929       927       930
       938       936       942       938       936       943       938       936       944
       942       936       943       942       936       944       943       936       944
       936       938       940       936       938       941       940       938       941
       949       947       953       949       947       954       949       947       955
       953       947       954       953       947       955       954       947       955
       947       949       951       947       949       952       951       949       952
       960       958       964       960       958       965       960       958       966
       964       958       965       964       958       966       965       958       966
       958       960       962       958       960       963       962       960       963
       971       969       975       971       969       976       971       969       977
       975       969       976       975       969       977       976       969       977
       969       971       973       969       971       974       973       971       974
       982       980       986       982       980       987       982       980       988
       986       980       987       986       980       988       987       980       988
       980       982       984       980       982       985       984       982       985
       993       991       997       993       991       998       993       991       999
       997       991       998       997       991       999       998       991       999
       991       993       995       991       993       996       995       993       996
      1004      1002      1008      1004      1002      1009      1004      1002      1010
      1008      1002      1009      1008      1002      1010      1009      1002      1010
      1002      1004      1006      1002      1004      1007      1006      1004      1007
      1015      1013      1019      1015      1013      1020      1015      1013      1021
      1019      1013      1020      1019      1013      1021      1020      1013      1021
      1013      1015      1017      1013      1015      1018      1017      1015      1018
      1026      1024      1030      1026      1024      1031      1026      1024      1032
      1030      1024      1031      1030      1024      1032      1031      1024      1032
      1024      1026      1028      1024      1026      1029      1028      1026      1029
      1037      1035      1041      1037      1035      1042      1037      1035      1043
      1041      1035      1042      1041      1035      1043      1042      1035      1043
      1035      1037      1039      1035      1037      1040      1039      1037      1040
      1048      1046      1052      1048      1046      1053      1048      1046      1054
      1052      1046      1053      1052      1046      1054      1053      1046      1054
      1046      1048      1050      1046      1048      1051      1050      1048      1051
      1059      1057      1063      1059      1057      1064      1059      1057      1065
      1063      1057      1064      1063      1057      1065      1064      1057      1065
      1057      1059      1061      1057      1059      1062      1061      1059      1062
      1070      1068      1074      1070      1068      1075      1070      1068      1076
      1074      1068      1075      1074      1068      1076      1075      1068      1076
      1068      1070      1072      1068      1070      1073      1072      1070      1073
      1081      1079      1085      1081      1079      1086      1081      1079      1087
      1085      1079      1086      1085      1079      1087      1086      1079      1087
      1079      1081      1083      1079      1081      1084      1083      1081      1084
      1092      1090      1096      1092      1090      1097      1092      1090      1098
      1096      1090      1097      1096      1090      1098      1097      1090      1098
      1090      1092      1094      1090      1092      1095      1094      1092      1095
      1103      1101      1108      1103      1101      1110      1108      1101      1110
      1101      1103      1105      1101      1103      1106      1101      1103      1107
      1105      1103      1106      1105      1103      1107      1106      1103      1107
      1101      1110      1112      1119      1117      1124      1119      1117      1126
      1124      1117      1126      1117      1119      1121      1117      1119      1122
      1117      1119      1123      1121      1119      1122      1121      1119      1123
      1122      1119      1123      1117      1126      1128      1135      1133      1140
      1135      1133      1142      1140      1133      1142      1133      1135      1137
      1133      1135      1138      1133      1135      1139      1137      1135      1138
      1137      1135      1139      1138      1135      1139      1133      1142      1144
      1151      1149      1156      1151      1149      1158      1156      1149      1158
      1149      1151      1153      1149      1151      1154      1149      1151      1155
      1153      1151      1154      1153      1151      1155      1154      1151      1155
      1149      1158      1160      1167      1165      1172      1167      1165      1174
      1172      1165      1174      1165      1167      1169      1165      1167      1170
      1165      1167      1171      1169      1167      1170      1169      1167      1171
      1170      1167      1171      1165      1174      1176      1183      1181      1188
      1183      1181      1190      1188      1181      1190      1181      1183      1185
      1181      1183      1186      1181      1183      1187      1185      1183      1186
      1185      1183      1187      1186      1183      1187      1181      1190      1192
      1199      1197      1204      1199      1197      1206      1204      1197      1206
      1197      1199      1201      1197      1199      1202      1197      1199      1203
      1201      1199      1202      1201      1199      1203      1202      1199      1203
      1197      1206      1208      1215      1213      1220      1215      1213      1222
      1220      1213      1222      1213      1215      1217      1213      1215      1218
      1213      1215      1219      1217      1215      1218      1217      1215      1219
      1218      1215      1219      1213      1222      1224      1231      1229      1236
      1231      1229      1238      1236      1229      1238      1229      1231      1233
      1229      1231      1234      1229      1231      1235      1233      1231      1234
      1233      1231      1235      1234      1231      1235      1229      1238      1240
      1247      1245      1252      1247      1245      1254      1252      1245      1254
      1245      1247      1249      1245      1247      1250      1245      1247      1251
      1249      1247      1250      1249      1247      1251      1250      1247      1251
      1245      1254      1256      1263      1261      1268      1263      1261      1270
      1268      1261      1270      1261      1263      1265      1261      1263      1266
      1261      1263      1267      1265      1263      1266      1265      1263      1267
      1266      1263      1267      1261      1270      1272      1279      1277      1284
      1279      1277      1286      1284      1277      1286      1277      1279      1281
      1277      1279      1282      1277      1279      1283      1281      1279      1282
      1281      1279      1283      1282      1279      1283      1277      1286      1288
      1295      1293      1300      1295      1293      1302      1300      1293      1302
      1293      1295      1297      1293      1295      1298      1293      1295      1299
      1297      1295      1298      1297      1295      1299      1298      1295      1299
      1293      1302      1304      1311      1309      1316      1311      1309      1318
      1316      1309      1318      1309      1311      1313      1309      1311      1314
      1309      1311      1315      1313      1311      1314      1313      1311      1315
      1314      1311      1315      1309      1318      1320      1327      1325      1332
      1327      1325      1334      1332      1325      1334      1325      1327      1329
      1325      1327      1330      1325      1327      1331      1329      1327      1330
      1329      1327      1331      1330      1327      1331      1325      1334      1336
      1343      1341      1348      1343      1341      1350      1348      1341      1350
      1341      1343      1345      1341      1343      1346      1341      1343      1347
      1345      1343      1346      1345      1343      1347      1346      1343      1347
      1341      1350      1352      1359      1357      1364      1359      1357      1366
      1364      1357      1366      1357      1359      1361      1357      1359      1362
      1357      1359      1363      1361      1359      1362      1361      1359      1363
      1362      1359      1363      1357      1366      1368      1375      1373      1380
      1375      1373      1382      1380      1373      1382      1373      1375      1377
      1373      1375      1378      1373      1375      1379      1377      1375      1378
      1377      1375      1379      1378      1375      1379      1373      1382      1384
      1391      1389      1396      1391      1389      1398      1396      1389      1398
      1389      1391      1393      1389      1391      1394      1389      1391      1395
      1393      1391      1394      1393      1391      1395      1394      1391      1395
      1389      1398      1400      1407      1405      1412      1407      1405      1414
      1412      1405      1414      1405      1407      1409      1405      1407      1410
      1405      1407      1411      1409      1407      1410      1409      1407      1411
      1410      1407      1411      1405      1414      1416      1423      1421      1428
      1423      1421      1430      1428      1421      1430      1421      1423      1425
      1421      1423      1426      1421      1423      1427      1425      1423      1426
      1425      1423      1427      1426      1423      1427      1421      1430      1432
      1439      1437      1444      1439      1437      1446      1444      1437      1446
      1437      1439      1441      1437      1439      1442      1437      1439      1443
      1441      1439      1442      1441      1439      1443      1442      1439      1443
      1437      1446      1448      1455      1453      1460      1455      1453      1462
      1460      1453      1462      1453      1455      1457      1453      1455      1458
      1453      1455      1459      1457      1455      1458      1457      1455      1459
      1458      1455      1459      1453      1462      1464      1471      1469      1476
      1471      1469      1478      1476      1469      1478      1469      1471      1473
      1469      1471      1474      1469      1471      1475      1473      1471      1474
      1473      1471      1475      1474      1471      1475      1469      1478      1480
      1487      1485      1492      1487      1485      1494      1492      1485      1494
      1485      1487      1489      1485      1487      1490      1485      1487      1491
      1489      1487      1490      1489      1487      1491      1490      1487      1491
      1485      1494      1496      1503      1501      1508      1503      1501      1510
      1508      1501      1510      1501      1503      1505      1501      1503      1506
      1501      1503      1507      1505      1503      1506      1505      1503      1507
      1506      1503      1507      1501      1510      1512      1519      1517      1524
      1519      1517      1526      1524      1517      1526      1517      1519      1521
      1517      1519      1522      1517      1519      1523      1521      1519      1522
      1521      1519      1523      1522      1519      1523      1517      1526      1528
      1535      1533      1540      1535      1533      1542      1540      1533      1542
      1533      1535      1537      1533      1535      1538      1533      1535      1539
      1537      1535      1538      1537      1535      1539      1538      1535      1539
      1533      1542      1544      1551      1549      1556      1551      1549      1558
      1556      1549      1558      1549      1551      1553      1549      1551      1554
      1549      1551      1555      1553      1551      1554      1553      1551      1555
      1554      1551      1555      1549      1558      1560      1567      1565      1572
      1567      1565      1574      1572      1565      1574      1565      1567      1569
      1565      1567      1570      1565      1567      1571      1569      1567      1570
      1569      1567      1571      1570      1567      1571      1565      1574      1576
      1583      1581      1588      1583      1581      1590      1588      1581      1590
      1581      1583      1585      1581      1583      1586      1581      1583      1587
      1585      1583      1586      1585      1583      1587      1586      1583      1587
      1581      1590      1592      1599      1597      1604      1599      1597      1606
      1604      1597      1606      1597      1599      1601      1597      1599      1602
      1597      1599      1603      1601      1599      1602      1601      1599      1603
      1602      1599      1603      1597      1606      1608      1615      1613      1620
      1615      1613      1622      1620      1613      1622      1613      1615      1617
      1613      1615      1618      1613      1615      1619      1617      1615      1618
      1617      1615      1619      1618      1615      1619      1613      1622      1624
      1631      1629      1636      1631      1629      1638      1636      1629      1638
      1629      1631      1633      1629      1631      1634      1629      1631      1635
      1633      1631      1634      1633      1631      1635      1634      1631      1635
      1629      1638      1640      1647      1645      1652      1647      1645      1654
      1652      1645      1654      1645      1647      1649      1645      1647      1650
      1645      1647      1651      1649      1647      1650      1649      1647      1651
      1650      1647      1651      1645      1654      1656      1663      1661      1668
      1663      1661      1670      1668      1661      1670      1661      1663      1665
      1661      1663      1666      1661      1663      1667      1665      1663      1666
      1665      1663      1667      1666      1663      1667      1661      1670      1672
      1679      1677      1684      1679      1677      1686      1684      1677      1686
      1677      1679      1681      1677      1679      1682      1677      1679      1683
      1681      1679      1682      1681      1679      1683      1682      1679      1683
      1677      1686      1688      1695      1693      1700      1695      1693      1702
      1700      1693      1702      1693      1695      1697      1693      1695      1698
      1693      1695      1699      1697      1695      1698      1697      1695      1699
      1698      1695      1699      1693      1702      1704      1711      1709      1716
      1711      1709      1718      1716      1709      1718      1709      1711      1713
      1709      1711      1714      1709      1711      1715      1713      1711      1714
      1713      1711      1715      1714      1711      1715      1709      1718      1720
      1727      1725      1732      1727      1725      1734      1732      1725      1734
      1725      1727      1729      1725      1727      1730      1725      1727      1731
      1729      1727      1730      1729      1727      1731      1730      1727      1731
      1725      1734      1736      1743      1741      1748      1743      1741      1750
      1748      1741      1750      1741      1743      1745      1741      1743      1746
      1741      1743      1747      1745      1743      1746      1745      1743      1747
      1746      1743      1747      1741      1750      1752      1759      1757      1764
      1759      1757      1766      1764      1757      1766      1757      1759      1761
      1757      1759      1762      1757      1759      1763      1761      1759      1762
      1761      1759      1763      1762      1759      1763      1757      1766      1768
      1775      1773      1780      1775      1773      1782      1780      1773      1782
      1773      1775      1777      1773      1775      1778      1773      1775      1779
      1777      1775      1778      1777      1775      1779      1778      1775      1779
      1773      1782      1784      1791      1789      1796      1791      1789      1798
      1796      1789      1798      1789      1791      1793      1789      1791      1794
      1789      1791      1795      1793      1791      1794      1793      1791      1795
      1794      1791      1795      1789      1798      1800      1807      1805      1812
      1807      1805      1814      1812      1805      1814      1805      1807      1809
      1805      1807      1810      1805      1807      1811      1809      1807      1810
      1809      1807      1811      1810      1807      1811      1805      1814      1816
      1823      1821      1828      1823      1821      1830      1828      1821      1830
      1821      1823      1825      1821      1823      1826      1821      1823      1827
      1825      1823      1826      1825      1823      1827      1826      1823      1827
      1821      1830      1832      1839      1837      1844      1839      1837      1846
      1844      1837      1846      1837      1839      1841      1837      1839      1842
      1837      1839      1843      1841      1839      1842      1841      1839      1843
      1842      1839      1843      1837      1846      1848      1855      1853      1860
      1855      1853      1862      1860      1853      1862      1853      1855      1857
      1853      1855      1858      1853      1855      1859      1857      1855      1858
      1857      1855      1859      1858      1855      1859      1853      1862      1864
      1871      1869      1876      1871      1869      1878      1876      1869      1878
      1869      1871      1873      1869      1871      1874      1869      1871      1875
      1873      1871      1874      1873      1871      1875      1874      1871      1875
      1869      1878      1880      1887      1885      1892      1887      1885      1894
      1892      1885      1894      1885      1887      1889      1885      1887      1890
      1885      1887      1891      1889      1887      1890      1889      1887      1891
      1890      1887      1891      1885      1894      1896      1903      1901      1908
      1903      1901      1910      1908      1901      1910      1901      1903      1905
      1901      1903      1906      1901      1903      1907      1905      1903      1906
      1905      1903      1907      1906      1903      1907      1901      1910      1912
      1919      1917      1924      1919      1917      1926      1924      1917      1926
      1917      1919      1921      1917      1919      1922      1917      1919      1923
      1921      1919      1922      1921      1919      1923      1922      1919      1923
      1917      1926      1928      1935      1933      1940      1935      1933      1942
      1940      1933      1942      1933      1935      1937      1933      1935      1938
      1933      1935      1939      1937      1935      1938      1937      1935      1939
      1938      1935      1939      1933      1942      1944      1951      1949      1956
      1951      1949      1958      1956      1949      1958      1949      1951      1953
      1949      1951      1954      1949      1951      1955      1953      1951      1954
      1953      1951      1955      1954      1951      1955      1949      1958      1960
      1967      1965      1972      1967      1965      1974      1972      1965      1974
      1965      1967      1969      1965      1967      1970      1965      1967      1971
      1969      1967      1970      1969      1967      1971      1970      1967      1971
      1965      1974      1976      1983      1981      1988      1983      1981      1990
      1988      1981      1990      1981      1983      1985      1981      1983      1986
      1981      1983      1987      1985      1983      1986      1985      1983      1987
      1986      1983      1987      1981      1990      1992      1999      1997      2004
      1999      1997      2006      2004      1997      2006      1997      1999      2001
      1997      1999      2002      1997      1999      2003      2001      1999      2002
      2001      1999      2003      2002      1999      2003      1997      2006      2008
      2015      2013      2020      2015      2013      2022      2020      2013      2022
      2013      2015      2017      2013      2015      2018      2013      2015      2019
      2017      2015      2018      2017      2015      2019      2018      2015      2019
      2013      2022      2024      2031      2029      2036      2031      2029      2038
      2036      2029      2038      2029      2031      2033      2029      2031      2034
      2029      2031      2035      2033      2031      2034      2033      2031      2035
      2034      2031      2035      2029      2038      2040      2047      2045      2052
      2047      2045      2054      2052      2045      2054      2045      2047      2049
      2045      2047      2050      2045      2047      2051      2049      2047      2050
      2049      2047      2051      2050      2047      2051      2045      2054      2056
      2063      2061      2068      2063      2061      2070      2068      2061      2070
      2061      2063      2065      2061      2063      2066      2061      2063      2067
      2065      2063      2066      2065      2063      2067      2066      2063      2067
      2061      2070      2072      2079      2077      2084      2079      2077      2086
      2084      2077      2086      2077      2079      2081      2077      2079      2082
      2077      2079      2083      2081      2079      2082      2081      2079      2083
      2082      2079      2083      2077      2086      2088      2095      2093      2100
      2095      2093      2102      2100      2093      2102      2093      2095      2097
      2093      2095      2098      2093      2095      2099      2097      2095      2098
      2097      2095      2099      2098      2095      2099      2093      2102      2104
      2111      2109      2116      2111      2109      2118      2116      2109      2118
      2109      2111      2113      2109      2111      2114      2109      2111      2115
      2113      2111      2114      2113      2111      2115      2114      2111      2115
      2109      2118      2120      2127      2125      2132      2127      2125      2134
      2132      2125      2134      2125      2127      2129      2125      2127      2130
      2125      2127      2131      2129      2127      2130      2129      2127      2131
      2130      2127      2131      2125      2134      2136      2143      2141      2148
      2143      2141      2150      2148      2141      2150      2141      2143      2145
      2141      2143      2146      2141      2143      2147      2145      2143      2146
      2145      2143      2147      2146      2143      2147      2141      2150      2152
      2159      2157      2164      2159      2157      2166      2164      2157      2166
      2157      2159      2161      2157      2159      2162      2157      2159      2163
      2161      2159      2162      2161      2159      2163      2162      2159      2163
      2157      2166      2168      2175      2173      2180      2175      2173      2182
      2180      2173      2182      2173      2175      2177      2173      2175      2178
      2173      2175      2179      2177      2175      2178      2177      2175      2179
      2178      2175      2179      2173      2182      2184      2191      2189      2196
      2191      2189      2198      2196      2189      2198      2189      2191      2193
      2189      2191      2194      2189      2191      2195      2193      2191      2194
      2193      2191      2195      2194      2191      2195      2189      2198      2200
      2207      2205      2212      2207      2205      2214      2212      2205      2214
      2205      2207      2209      2205      2207      2210      2205      2207      2211
      2209      2207      2210      2209      2207      2211      2210      2207      2211
      2205      2214      2216      2223      2221      2228      2223      2221      2230
      2228      2221      2230      2221      2223      2225      2221      2223      2226
      2221      2223      2227      2225      2223      2226      2225      2223      2227
      2226      2223      2227      2221      2230      2232      2239      2237      2244
      2239      2237      2246      2244      2237      2246      2237      2239      2241
      2237      2239      2242      2237      2239      2243      2241      2239      2242
      2241      2239      2243      2242      2239      2243      2237      2246      2248
      2255      2253      2260      2255      2253      2262      2260      2253      2262
      2253      2255      2257      2253      2255      2258      2253      2255      2259
      2257      2255      2258      2257      2255      2259      2258      2255      2259
      2253      2262      2264      2271      2269      2276      2271      2269      2278
      2276      2269      2278      2269      2271      2273      2269      2271      2274
      2269      2271      2275      2273      2271      2274      2273      2271      2275
      2274      2271      2275      2269      2278      2280      2287      2285      2292
      2287      2285      2294      2292      2285      2294      2285      2287      2289
      2285      2287      2290      2285      2287      2291      2289      2287      2290
      2289      2287      2291      2290      2287      2291      2285      2294      2296
      2303      2301      2308      2303      2301      2310      2308      2301      2310
      2301      2303      2305      2301      2303      2306      2301      2303      2307
      2305      2303      2306      2305      2303      2307      2306      2303      2307
      2301      2310      2312      2319      2317      2324      2319      2317      2326
      2324      2317      2326      2317      2319      2321      2317      2319      2322
      2317      2319      2323      2321      2319      2322      2321      2319      2323
      2322      2319      2323      2317      2326      2328      2335      2333      2340
      2335      2333      2342      2340      2333      2342      2333      2335      2337
      2333      2335      2338      2333      2335      2339      2337      2335      2338
      2337      2335      2339      2338      2335      2339      2333      2342      2344
      2351      2349      2356      2351      2349      2358      2356      2349      2358
      2349      2351      2353      2349      2351      2354      2349      2351      2355
      2353      2351      2354      2353      2351      2355      2354      2351      2355
      2349      2358      2360      2367      2365      2372      2367      2365      2374
      2372      2365      2374      2365      2367      2369      2365      2367      2370
      2365      2367      2371      2369      2367      2370      2369      2367      2371
      2370      2367      2371      2365      2374      2376      2383      2381      2388
      2383      2381      2390      2388      2381      2390      2381      2383      2385
      2381      2383      2386      2381      2383      2387      2385      2383      2386
      2385      2383      2387      2386      2383      2387      2381      2390      2392
      2399      2397      2404      2399      2397      2406      2404      2397      2406
      2397      2399      2401      2397      2399      2402      2397      2399      2403
      2401      2399      2402      2401      2399      2403      2402      2399      2403
      2397      2406      2408      2415      2413      2420      2415      2413      2422
      2420      2413      2422      2413      2415      2417      2413      2415      2418
      2413      2415      2419      2417      2415      2418      2417      2415      2419
      2418      2415      2419      2413      2422      2424      2431      2429      2436
      2431      2429      2438      2436      2429      2438      2429      2431      2433
      2429      2431      2434      2429      2431      2435      2433      2431      2434
      2433      2431      2435      2434      2431      2435      2429      2438      2440
      2447      2445      2452      2447      2445      2454      2452      2445      2454
      2445      2447      2449      2445      2447      2450      2445      2447      2451
      2449      2447      2450      2449      2447      2451      2450      2447      2451
      2445      2454      2456      2463      2461      2468      2463      2461      2470
      2468      2461      2470      2461      2463      2465      2461      2463      2466
      2461      2463      2467      2465      2463      2466      2465      2463      2467
      2466      2463      2467      2461      2470      2472      2479      2477      2484
      2479      2477      2486      2484      2477      2486      2477      2479      2481
      2477      2479      2482      2477      2479      2483      2481      2479      2482
      2481      2479      2483      2482      2479      2483      2477      2486      2488
      2495      2493      2500      2495      2493      2502      2500      2493      2502
      2493      2495      2497      2493      2495      2498      2493      2495      2499
      2497      2495      2498      2497      2495      2499      2498      2495      2499
      2493      2502      2504      2511      2509      2516      2511      2509      2518
      2516      2509      2518      2509      2511      2513      2509      2511      2514
      2509      2511      2515      2513      2511      2514      2513      2511      2515
      2514      2511      2515      2509      2518      2520      2527      2525      2532
      2527      2525      2534      2532      2525      2534      2525      2527      2529
      2525      2527      2530      2525      2527      2531      2529      2527      2530
      2529      2527      2531      2530      2527      2531      2525      2534      2536
      2543      2541      2548      2543      2541      2550      2548      2541      2550
      2541      2543      2545      2541      2543      2546      2541      2543      2547
      2545      2543      2546      2545      2543      2547      2546      2543      2547
      2541      2550      2552      2559      2557      2564      2559      2557      2566
      2564      2557      2566      2557      2559      2561      2557      2559      2562
      2557      2559      2563      2561      2559      2562      2561      2559      2563
      2562      2559      2563      2557      2566      2568      2575      2573      2580
      2575      2573      2582      2580      2573      2582      2573      2575      2577
      2573      2575      2578      2573      2575      2579      2577      2575      2578
      2577      2575      2579      2578      2575      2579      2573      2582      2584
      2591      2589      2596      2591      2589      2598      2596      2589      2598
      2589      2591      2593      2589      2591      2594      2589      2591      2595
      2593      2591      2594      2593      2591      2595      2594      2591      2595
      2589      2598      2600      2607      2605      2612      2607      2605      2614
      2612      2605      2614      2605      2607      2609      2605      2607      2610
      2605      2607      2611      2609      2607      2610      2609      2607      2611
      2610      2607      2611      2605      2614      2616      2623      2621      2628
      2623      2621      2630      2628      2621      2630      2621      2623      2625
      2621      2623      2626      2621      2623      2627      2625      2623      2626
      2625      2623      2627      2626      2623      2627      2621      2630      2632
      2639      2637      2644      2639      2637      2646      2644      2637      2646
      2637      2639      2641      2637      2639      2642      2637      2639      2643
      2641      2639      2642      2641      2639      2643      2642      2639      2643
      2637      2646      2648      2655      2653      2660      2655      2653      2662
      2660      2653      2662      2653      2655      2657      2653      2655      2658
      2653      2655      2659      2657      2655      2658      2657      2655      2659
      2658      2655      2659      2653      2662      2664      2671      2669      2676
      2671      2669      2678      2676      2669      2678      2669      2671      2673
      2669      2671      2674      2669      2671      2675      2673      2671      2674
      2673      2671      2675      2674      2671      2675      2669      2678      2680
      2687      2685      2692      2687      2685      2694      2692      2685      2694
      2685      2687      2689      2685      2687      2690      2685      2687      2691
      2689      2687      2690      2689      2687      2691      2690      2687      2691
      2685      2694      2696

      1400 !NPHI: dihedrals
         5         3         1         7         5         3         1         8
         5         3         1         9         6         3         1         7
         6         3         1         8         6         3         1         9
        16        14        12        18        16        14        12        19
        16        14        12        20        17        14        12        18
        17        14        12        19        17        14        12        20
        27        25        23        29        27        25        23        30
        27        25        23        31        28        25        23        29
        28        25        23        30        28        25        23        31
        38        36        34        40        38        36        34        41
        38        36        34        42        39        36        34        40
        39        36        34        41        39        36        34        42
        49        47        45        51        49        47        45        52
        49        47        45        53        50        47        45        51
        50        47        45        52        50        47        45        53
        60        58        56        62        60        58        56        63
        60        58        56        64        61        58        56        62
        61        58        56        63        61        58        56        64
        71        69        67        73        71        69        67        74
        71        69        67        75        72        69        67        73
        72        69        67        74        72        69        67        75
        82        80        78        84        82        80        78        85
        82        80        78        86        83        80        78        84
        83        80        78        85        83        80        78        86
        93        91        89        95        93        91        89        96
        93        91        89        97        94        91        89        95
        94        91        89        96        94        91        89        97
       104       102       100       106       104       102       100       107
       104       102       100       108       105       102       100       106
       105       102       100       107       105       102       100       108
       115       113       111       117       115       113       111       118
       115       113       111       119       116       113       111       117
       116       113       111       118       116       113       111       119
       126       124       122       128       126       124       122       129
       126       124       122       130       127       124       122       128
       127       124       122       129       127       124       122       130
       137       135       133       139       137       135       133       140
       137       135       133       141       138       135       133       139
       138       135       133       140       138       135       133       141
       148       146       144       150       148       146       144       151
       148       146       144       152       149       146       144       150
       149       146       144       151       149       146       144       152
       159       157       155       161       159       157       155       162
       159       157       155       163       160       157       155       161
       160       157       155       162       160       157       155       163
       170       168       166       172       170       168       166       173
       170       168       166       174       171       168       166       172
       171       168       166       173       171       168       166       174
       181       179       177       183       181       179       177       184
       181       179       177       185       182       179       177       183
       182       179       177       184       182       179       177       185
       192       190       188       194       192       190       188       195
       192       190       188       196       193       190       188       194
       193       190       188       195       193       190       188       196
       203       201       199       205       203       201       199       206
       203       201       199       207       204       201       199       205
       204       201       199       206       204       201       199       207
       214       212       210       216       214       212       210       217
       214       212       210       218       215       212       210       216
       215       212       210       217       215       212       210       218
       225       223       221       227       225       223       221       228
       225       223       221       229       226       223       221       227
       226       223       221       228       226       223       221       229
       236       234       232       238       236       234       232       239
       236       234       232       240       237       234       232       238
       237       234       232       239       237       234       232       240
       247       245       243       249       247       245       243       250
       247       245       243       251       248       245       243       249
       248       245       243       250       248       245       243       251
       258       256       254       260       258       256       254       261
       258       256       254       262       259       256       254       260
       259       256       254       261       259       256       254       262
       269       267       265       271       269       267       265       272
       269       267       265       273       270       267       265       271
       270       267       265       272       270       267       265       273
       280       278       276       282       280       278       276       283
       280       278       276       284       281       278       276       282
       281       278       276       283       281       278       276       284
       291       289       287       293       291       289       287       294
       291       289       287       295       292       289       287       293
       292       289       287       294       292       289       287       295
       302       300       298       304       302       300       298       305
       302       300       298       306       303       300       298       304
       303       300       298       305       303       300       298       306
       313       311       309       315       313       311       309       316
       313       311       309       317       314       311       309       315
       314       311       309       316       314       311       309       317
       324       322       320       326       324       322       320       327
       324       322       320       328       325       322       320       326
       325       322       320       327       325       322       320       328
       335       333       331       337       335       333       331       338
       335       333       331       339       336       333       331       337
       336       333       331       338       336       333       331       339
       346       344       342       348       346       344       342       349
       346       344       342       350       347       344       342       348
       347       344       342       349       347       344       342       350
       357       355       353       359       357       355       353       360
       357       355       353       361       358       355       353       359
       358       355       353       360       358       355       353       361
       368       366       364       370       368       366       364       371
       368       366       364       372       369       366       364       370
       369       366       364       371       369       366       364       372
       379       377       375       381       379       377       375       382
       379       377       375       383       380       377       375       381
       380       377       375       382       380       377       375       383
       390       388       386       392       390       388       386       393
       390       388       386       394       391       388       386       392
       391       388       386       393       391       388       386       394
       401       399       397       403       401       399       397       404
       401       399       397       405       402       399       397       403
       402       399       397       404       402       399       397       405
       412       410       408       414       412       410       408       415
       412       410       408       416       413       410       408       414
       413       410       408       415       413       410       408       416
       423       421       419       425       423       421       419       426
       423       421       419       427       424       421       419       425
       424       421       419       426       424       421       419       427
       434       432       430       436       434       432       430       437
       434       432       430       438       435       432       430       436
       435       432       430       437       435       432       430       438
       445       443       441       447       445       443       441       448
       445       443       441       449       446       443       441       447
       446       443       441       448       446       443       441       449
       456       454       452       458       456       454       452       459
       456       454       452       460       457       454       452       458
       457       454       452       459       457       454       452       460
       467       465       463       469       467       465       463       470
       467       465       463       471       468       465       463       469
       468       465       463       470       468       465       463       471
       478       476       474       480       478       476       474       481
       478       476       474       482       479       476       474       480
       479       476       474       481       479       476       474       482
       489       487       485       491       489       487       485       492
       489       487       485       493       490       487       485       491
       490       487       485       492       490       487       485       493
       500       498       496       502       500       498       496       503
       500       498       496       504       501       498       496       502
       501       498       496       503       501       498       496       504
       511       509       507       513       511       509       507       514
       511       509       507       515       512       509       507       513
       512       509       507       514       512       509       507       515
       522       520       518       524       522       520       518       525
       522       520       518       526       523       520       518       524
       523       520       518       525       523       520       518       526
       533       531       529       535       533       531       529       536
       533       531       529       537       534       531       529       535
       534       531       529       536       534       531       529       537
       544       542       540       546       544       542       540       547
       544       542       540       548       545       542       540       546
       545       542       540       547       545       542       540       548
       555       553       551       557       555       553       551       558
       555       553       551       559       556       553       551       557
       556       553       551       558       556       553       551       559
       566       564       562       568       566       564       562       569
       566       564       562       570       567       564       562       568
       567       564       562       569       567       564       562       570
       577       575       573       579       577       575       573       580
       577       575       573       581       578       575       573       579
       578       575       573       580       578       575       573       581
       588       586       584       590       588       586       584       591
       588       586       584       592       589       586       584       590
       589       586       584       591       589       586       584       592
       599       597       595       601       599       597       595       602
       599       597       595       603       600       597       595       601
       600       597       595       602       600       597       595       603
       610       608       606       612       610       608       606       613
       610       608       606       614       611       608       606       612
       611       608       606       613       611       608       606       614
       621       619       617       623       621       619       617       624
       621       619       617       625       622       619       617       623
       622       619       617       624       622       619       617       625
       632       630       628       634       632       630       628       635
       632       630       628       636       633       630       628       634
       633       630       628       635       633       630       628       636
       643       641       639       645       643       641       639       646
       643       641       639       647       644       641       639       645
       644       641       639       646       644       641       639       647
       654       652       650       656       654       652       650       657
       654       652       650       658       655       652       650       656
       655       652       650       657       655       652       650       658
       665       663       661       667       665       663       661       668
       665       663       661       669       666       663       661       667
       666       663       661       668       666       663       661       669
       676       674       672       678       676       674       672       679
       676       674       672       680       677       674       672       678
       677       674       672       679       677       674       672       680
       687       685       683       689       687       685       683       690
       687       685       683       691       688       685       683       689
       688       685       683       690       688       685       683       691
       698       696       694       700       698       696       694       701
       698       696       694       702       699       696       694       700
       699       696       694       701       699       696       694       702
       709       707       705       711       709       707       705       712
       709       707       705       713       710       707       705       711
       710       707       705       712       710       707       705       713
       720       718       716       722       720       718       716       723
       720       718       716       724       721       718       716       722
       721       718       716       723       721       718       716       724
       731       729       727       733       731       729       727       734
       731       729       727       735       732       729       727       733
       732       729       727       734       732       729       727       735
       742       740       738       744       742       740       738       745
       742       740       738       746       743       740       738       744
       743       740       738       745       743       740       738       746
       753       751       749       755       753       751       749       756
       753       751       749       757       754       751       749       755
       754       751       749       756       754       751       749       757
       764       762       760       766       764       762       760       767
       764       762       760       768       765       762       760       766
       765       762       760       767       765       762       760       768
       775       773       771       777       775       773       771       778
       775       773       771       779       776       773       771       777
       776       773       771       778       776       773       771       779
       786       784       782       788       786       784       782       789
       786       784       782       790       787       784       782       788
       787       784       782       789       787       784       782       790
       797       795       793       799       797       795       793       800
       797       795       793       801       798       795       793       799
       798       795       793       800       798       795       793       801
       808       806       804       810       808       806       804       811
       808       806       804       812       809       806       804       810
       809       806       804       811       809       806       804       812
       819       817       815       821       819       817       815       822
       819       817       815       823       820       817       815       821
       820       817       815       822       820       817       815       823
       830       828       826       832       830       828       826       833
       830       828       826       834       831       828       826       832
       831       828       826       833       831       828       826       834
       841       839       837       843       841       839       837       844
       841       839       837       845       842       839       837       843
       842       839       837       844       842       839       837       845
       852       850       848       854       852       850       848       855
       852       850       848       856       853       850       848       854
       853       850       848       855       853       850       848       856
       863       861       859       865       863       861       859       866
       863       861       859       867       864       861       859       865
       864       861       859       866       864       861       859       867
       874       872       870       876       874       872       870       877
       874       872       870       878       875       872       870       876
       875       872       870       877       875       872       870       878
       885       883       881       887       885       883       881       888
       885       883       881       889       886       883       881       887
       886       883       881       888       886       883       881       889
       896       894       892       898       896       894       892       899
       896       894       892       900       897       894       892       898
       897       894       892       899       897       894       892       900
       907       905       903       909       907       905       903       910
       907       905       903       911       908       905       903       909
       908       905       903       910       908       905       903       911
       918       916       914       920       918       916       914       921
       918       916       914       922       919       916       914       920
       919       916       914       921       919       916       914       922
       929       927       925       931       929       927       925       932
       929       927       925       933       930       927       925       931
       930       927       925       932       930       927       925       933
       940       938       936       942       940       938       936       943
       940       938       936       944       941       938       936       942
       941       938       936       943       941       938       936       944
       951       949       947       953       951       949       947       954
       951       949       947       955       952       949       947       953
       952       949       947       954       952       949       947       955
       962       960       958       964       962       960       958       965
       962       960       958       966       963       960       958       964
       963       960       958       965       963       960       958       966
       973       971       969       975       973       971       969       976
       973       971       969       977       974       971       969       975
       974       971       969       976       974       971       969       977
       984       982       980       986       984       982       980       987
       984       982       980       988       985       982       980       986
       985       982       980       987       985       982       980       988
       995       993       991       997       995       993       991       998
       995       993       991       999       996       993       991       997
       996       993       991       998       996       993       991       999
      1006      1004      1002      1008      1006      1004      1002      1009
      1006      1004      1002      1010      1007      1004      1002      1008
      1007      1004      1002      1009      1007      1004      1002      1010
      1017      1015      1013      1019      1017      1015      1013      1020
      1017      1015      1013      1021      1018      1015      1013      1019
      1018      1015      1013      1020      1018      1015      1013      1021
      1028      1026      1024      1030      1028      1026      1024      1031
      1028      1026      1024      1032      1029      1026      1024      1030
      1029      1026      1024      1031      1029      1026      1024      1032
      1039      1037      1035      1041      1039      1037      1035      1042
      1039      1037      1035      1043      1040      1037      1035      1041
      1040      1037      1035      1042      1040      1037      1035      1043
      1050      1048      1046      1052      1050      1048      1046      1053
      1050      1048      1046      1054      1051      1048      1046      1052
      1051      1048      1046      1053      1051      1048      1046      1054
      1061      1059      1057      1063      1061      1059      1057      1064
      1061      1059      1057      1065      1062      1059      1057      1063
      1062      1059      1057      1064      1062      1059      1057      1065
      1072      1070      1068      1074      1072      1070      1068      1075
      1072      1070      1068      1076      1073      1070      1068      1074
      1073      1070      1068      1075      1073      1070      1068      1076
      1083      1081      1079      1085      1083      1081      1079      1086
      1083      1081      1079      1087      1084      1081      1079      1085
      1084      1081      1079      1086      1084      1081      1079      1087
      1094      1092      1090      1096      1094      1092      1090      1097
      1094      1092      1090      1098      1095      1092      1090      1096
      1095      1092      1090      1097      1095      1092      1090      1098
      1103      1101      1110      1112      1105      1103      1101      1108
      1105      1103      1101      1110      1106      1103      1101      1108
      1106      1103      1101      1110      1107      1103      1101      1108
      1107      1103      1101      1110      1108      1101      1110      1112
      1119      1117      1126      1128      1121      1119      1117      1124
      1121      1119      1117      1126      1122      1119      1117      1124
      1122      1119      1117      1126      1123      1119      1117      1124
      1123      1119      1117      1126      1124      1117      1126      1128
      1135      1133      1142      1144      1137      1135      1133      1140
      1137      1135      1133      1142      1138      1135      1133      1140
      1138      1135      1133      1142      1139      1135      1133      1140
      1139      1135      1133      1142      1140      1133      1142      1144
      1151      1149      1158      1160      1153      1151      1149      1156
      1153      1151      1149      1158      1154      1151      1149      1156
      1154      1151      1149      1158      1155      1151      1149      1156
      1155      1151      1149      1158      1156      1149      1158      1160
      1167      1165      1174      1176      1169      1167      1165      1172
      1169      1167      1165      1174      1170      1167      1165      1172
      1170      1167      1165      1174      1171      1167      1165      1172
      1171      1167      1165      1174      1172      1165      1174      1176
      1183      1181      1190      1192      1185      1183      1181      1188
      1185      1183      1181      1190      1186      1183      1181      1188
      1186      1183      1181      1190      1187      1183      1181      1188
      1187      1183      1181      1190      1188      1181      1190      1192
      1199      1197      1206      1208      1201      1199      1197      1204
      1201      1199      1197      1206      1202      1199      1197      1204
      1202      1199      1197      1206      1203      1199      1197      1204
      1203      1199      1197      1206      1204      1197      1206      1208
      1215      1213      1222      1224      1217      1215      1213      1220
      1217      1215      1213      1222      1218      1215      1213      1220
      1218      1215      1213      1222      1219      1215      1213      1220
      1219      1215      1213      1222      1220      1213      1222      1224
      1231      1229      1238      1240      1233      1231      1229      1236
      1233      1231      1229      1238      1234      1231      1229      1236
      1234      1231      1229      1238      1235      1231      1229      1236
      1235      1231      1229      1238      1236      1229      1238      1240
      1247      1245      1254      1256      1249      1247      1245      1252
      1249      1247      1245      1254      1250      1247      1245      1252
      1250      1247      1245      1254      1251      1247      1245      1252
      1251      1247      1245      1254      1252      1245      1254      1256
      1263      1261      1270      1272      1265      1263      1261      1268
      1265      1263      1261      1270      1266      1263      1261      1268
      1266      1263      1261      1270      1267      1263      1261      1268
      1267      1263      1261      1270      1268      1261      1270      1272
      1279      1277      1286      1288      1281      1279      1277      1284
      1281      1279      1277      1286      1282      1279      1277      1284
      1282      1279      1277      1286      1283      1279      1277      1284
      1283      1279      1277      1286      1284      1277      1286      1288
      1295      1293      1302      1304      1297      1295      1293      1300
      1297      1295      1293      1302      1298      1295      1293      1300
      1298      1295      1293      1302      1299      1295      1293      1300
      1299      1295      1293      1302      1300      1293      1302      1304
      1311      1309      1318      1320      1313      1311      1309      1316
      1313      1311      1309      1318      1314      1311      1309      1316
      1314      1311      1309      1318      1315      1311      1309      1316
      1315      1311      1309      1318      1316      1309      1318      1320
      1327      1325      1334      1336      1329      1327      1325      1332
      1329      1327      1325      1334      1330      1327      1325      1332
      1330      1327      1325      1334      1331      1327      1325      1332
      1331      1327      1325      1334      1332      1325      1334      1336
      1343      1341      1350      1352      1345      1343      1341      1348
      1345      1343      1341      1350      1346      1343      1341      1348
      1346      1343      1341      1350      1347      1343      1341      1348
      1347      1343      1341      1350      1348      1341      1350      1352
      1359      1357      1366      1368      1361      1359      1357      1364
      1361      1359      1357      1366      1362      1359      1357      1364
      1362      1359      1357      1366      1363      1359      1357      1364
      1363      1359      1357      1366      1364      1357      1366      1368
      1375      1373      1382      1384      1377      1375      1373      1380
      1377      1375      1373      1382      1378      1375      1373      1380
      1378      1375      1373      1382      1379      1375      1373      1380
      1379      1375      1373      1382      1380      1373      1382      1384
      1391      1389      1398      1400      1393      1391      1389      1396
      1393      1391      1389      1398      1394      1391      1389      1396
      1394      1391      1389      1398      1395      1391      1389      1396
      1395      1391      1389      1398      1396      1389      1398      1400
      1407      1405      1414      1416      1409      1407      1405      1412
      1409      1407      1405      1414      1410      1407      1405      1412
      1410      1407      1405      1414      1411      1407      1405      1412
      1411      1407      1405      1414      1412      1405      1414      1416
      1423      1421      1430      1432      1425      1423      1421      1428
      1425      1423      1421      1430      1426      1423      1421      1428
      1426      1423      1421      1430      1427      1423      1421      1428
      1427      1423      1421      1430      1428      1421      1430      1432
      1439      1437      1446      1448      1441      1439      1437      1444
      1441      1439      1437      1446      1442      1439      1437      1444
      1442      1439      1437      1446      1443      1439      1437      1444
      1443      1439      1437      1446      1444      1437      1446      1448
      1455      1453      1462      1464      1457      1455      1453      1460
      1457      1455      1453      1462      1458      1455      1453      1460
      1458      1455      1453      1462      1459      1455      1453      1460
      1459      1455      1453      1462      1460      1453      1462      1464
      1471      1469      1478      1480      1473      1471      1469      1476
      1473      1471      1469      1478      1474      1471      1469      1476
      1474      1471      1469      1478      1475      1471      1469      1476
      1475      1471      1469      1478      1476      1469      1478      1480
      1487      1485      1494      1496      1489      1487      1485      1492
      1489      1487      1485      1494      1490      1487      1485      1492
      1490      1487      1485      1494      1491      1487      1485      1492
      1491      1487      1485      1494      1492      1485      1494      1496
      1503      1501      1510      1512      1505      1503      1501      1508
      1505      1503      1501      1510      1506      1503      1501      1508
      1506      1503      1501      1510      1507      1503      1501      1508
      1507      1503      1501      1510      1508      1501      1510      1512
      1519      1517      1526      1528      1521      1519      1517      1524
      1521      1519      1517      1526      1522      1519      1517      1524
      1522      1519      1517      1526      1523      1519      1517      1524
      1523      1519      1517      1526      1524      1517      1526      1528
      1535      1533      1542      1544      1537      1535      1533      1540
      1537      1535      1533      1542      1538      1535      1533      1540
      1538      1535      1533      1542      1539      1535      1533      1540
      1539      1535      1533      1542      1540      1533      1542      1544
      1551      1549      1558      1560      1553      1551      1549      1556
      1553      1551      1549      1558      1554      1551      1549      1556
      1554      1551      1549      1558      1555      1551      1549      1556
      1555      1551      1549      1558      1556      1549      1558      1560
      1567      1565      1574      1576      1569      1567      1565      1572
      1569      1567      1565      1574      1570      1567      1565      1572
      1570      1567      1565      1574      1571      1567      1565      1572
      1571      1567      1565      1574      1572      1565      1574      1576
      1583      1581      1590      1592      1585      1583      1581      1588
      1585      1583      1581      1590      1586      1583      1581      1588
      1586      1583      1581      1590      1587      1583      1581      1588
      1587      1583      1581      1590      1588      1581      1590      1592
      1599      1597      1606      1608      1601      1599      1597      1604
      1601      1599      1597      1606      1602      1599      1597      1604
      1602      1599      1597      1606      1603      1599      1597      1604
      1603      1599      1597      1606      1604      1597      1606      1608
      1615      1613      1622      1624      1617      1615      1613      1620
      1617      1615      1613      1622      1618      1615      1613      1620
      1618      1615      1613      1622      1619      1615      1613      1620
      1619      1615      1613      1622      1620      1613      1622      1624
      1631      1629      1638      1640      1633      1631      1629      1636
      1633      1631      1629      1638      1634      1631      1629      1636
      1634      1631      1629      1638      1635      1631      1629      1636
      1635      1631      1629      1638      1636      1629      1638      1640
      1647      1645      1654      1656      1649      1647      1645      1652
      1649      1647      1645      1654      1650      1647      1645      1652
      1650      1647      1645      1654      1651      1647      1645      1652
      1651      1647      1645      1654      1652      1645      1654      1656
      1663      1661      1670      1672      1665      1663      1661      1668
      1665      1663      1661      1670      1666      1663      1661      1668
      1666      1663      1661      1670      1667      1663      1661      1668
      1667      1663      1661      1670      1668      1661      1670      1672
      1679      1677      1686      1688      1681      1679      1677      1684
      1681      1679      1677      1686      1682      1679      1677      1684
      1682      1679      1677      1686      1683      1679      1677      1684
      1683      1679      1677      1686      1684      1677      1686      1688
      1695      1693      1702      1704      1697      1695      1693      1700
      1697      1695      1693      1702      1698      1695      1693      1700
      1698      1695      1693      1702      1699      1695      1693      1700
      1699      1695      1693      1702      1700      1693      1702      1704
      1711      1709      1718      1720      1713      1711      1709      1716
      1713      1711      1709      1718      1714      1711      1709      1716
      1714      1711      1709      1718      1715      1711      1709      1716
      1715      1711      1709      1718      1716      1709      1718      1720
      1727      1725      1734      1736      1729      1727      1725      1732
      1729      1727      1725      1734      1730      1727      1725      1732
      1730      1727      1725      1734      1731      1727      1725      1732
      1731      1727      1725      1734      1732      1725      1734      1736
      1743      1741      1750      1752      1745      1743      1741      1748
      1745      1743      1741      1750      1746      1743      1741      1748
      1746      1743      1741      1750      1747      1743      1741      1748
      1747      1743      1741      1750      1748      1741      1750      1752
      1759      1757      1766      1768      1761      1759      1757      1764
      1761      1759      1757      1766      1762      1759      1757      1764
      1762      1759      1757      1766      1763      1759      1757      1764
      1763      1759      1757      1766      1764      1757      1766      1768
      1775      1773      1782      1784      1777      1775      1773      1780
      1777      1775      1773      1782      1778      1775      1773      1780
      1778      1775      1773      1782      1779      1775      1773      1780
      1779      1775      1773      1782      1780      1773      1782      1784
      1791      1789      1798      1800      1793      1791      1789      1796
      1793      1791      1789      1798      1794      1791      1789      1796
      1794      1791      1789      1798      1795      1791      1789      1796
      1795      1791      1789      1798      1796      1789      1798      1800
      1807      1805      1814      1816      1809      1807      1805      1812
      1809      1807      1805      1814      1810      1807      1805      1812
      1810      1807      1805      1814      1811      1807      1805      1812
      1811      1807      1805      1814      1812      1805      1814      1816
      1823      1821      1830      1832      1825      1823      1821      1828
      1825      1823      1821      1830      1826      1823      1821      1828
      1826      1823      1821      1830      1827      1823      1821      1828
      1827      1823      1821      1830      1828      1821      1830      1832
      1839      1837      1846      1848      1841      1839      1837      1844
      1841      1839      1837      1846      1842      1839      1837      1844
      1842      1839      1837      1846      1843      1839      1837      1844
      1843      1839      1837      1846      1844      1837      1846      1848
      1855      1853      1862      1864      1857      1855      1853      1860
      1857      1855      1853      1862      1858      1855      1853      1860
      1858      1855      1853      1862      1859      1855      1853      1860
      1859      1855      1853      1862      1860      1853      1862      1864
      1871      1869      1878      1880      1873      1871      1869      1876
      1873      1871      1869      1878      1874      1871      1869      1876
      1874      1871      1869      1878      1875      1871      1869      1876
      1875      1871      1869      1878      1876      1869      1878      1880
      1887      1885      1894      1896      1889      1887      1885      1892
      1889      1887      1885      1894      1890      1887      1885      1892
      1890      1887      1885      1894      1891      1887      1885      1892
      1891      1887      1885      1894      1892      1885      1894      1896
      1903      1901      1910      1912      1905      1903      1901      1908
      1905      1903      1901      1910      1906      1903      1901      1908
      1906      1903      1901      1910      1907      1903      1901      1908
      1907      1903      1901      1910      1908      1901      1910      1912
      1919      1917      1926      1928      1921      1919      1917      1924
      1921      1919      1917      1926      1922      1919      1917      1924
      1922      1919      1917      1926      1923      1919      1917      1924
      1923      1919      1917      1926      1924      1917      1926      1928
      1935      1933      1942      1944      1937      1935      1933      1940
      1937      1935      1933      1942      1938      1935      1933      1940
      1938      1935      1933      1942      1939      1935      1933      1940
      1939      1935      1933      1942      1940      1933      1942      1944
      1951      1949      1958      1960      1953      1951      1949      1956
      1953      1951      1949      1958      1954      1951      1949      1956
      1954      1951      1949      1958      1955      1951      1949      1956
      1955      1951      1949      1958      1956      1949      1958      1960
      1967      1965      1974      1976      1969      1967      1965      1972
      1969      1967      1965      1974      1970      1967      1965      1972
      1970      1967      1965      1974      1971      1967      1965      1972
      1971      1967      1965      1974      1972      1965      1974      1976
      1983      1981      1990      1992      1985      1983      1981      1988
      1985      1983      1981      1990      1986      1983      1981      1988
      1986      1983      1981      1990      1987      1983      1981      1988
      1987      1983      1981      1990      1988      1981      1990      1992
      1999      1997      2006      2008      2001      1999      1997      2004
      2001      1999      1997      2006      2002      1999      1997      2004
      2002      1999      1997      2006      2003      1999      1997      2004
      2003      1999      1997      2006      2004      1997      2006      2008
      2015      2013      2022      2024      2017      2015      2013      2020
      2017      2015      2013      2022      2018      2015      2013      2020
      2018      2015      2013      2022      2019      2015      2013      2020
      2019      2015      2013      2022      2020      2013      2022      2024
      2031      2029      2038      2040      2033      2031      2029      2036
      2033      2031      2029      2038      2034      2031      2029      2036
      2034      2031      2029      2038      2035      2031      2029      2036
      2035      2031      2029      2038      2036      2029      2038      2040
      2047      2045      2054      2056      2049      2047      2045      2052
      2049      2047      2045      2054      2050      2047      2045      2052
      2050      2047      2045      2054      2051      2047      2045      2052
      2051      2047      2045      2054      2052      2045      2054      2056
      2063      2061      2070      2072      2065      2063      2061      2068
      2065      2063      2061      2070      2066      2063      2061      2068
      2066      2063      2061      2070      2067      2063      2061      2068
      2067      2063      2061      2070      2068      2061      2070      2072
      2079      2077      2086      2088      2081      2079      2077      2084
      2081      2079      2077      2086      2082      2079      2077      2084
      2082      2079      2077      2086      2083      2079      2077      2084
      2083      2079      2077      2086      2084      2077      2086      2088
      2095      2093      2102      2104      2097      2095      2093      2100
      2097      2095      2093      2102      2098      2095      2093      2100
      2098      2095      2093      2102      2099      2095      2093      2100
      2099      2095      2093      2102      2100      2093      2102      2104
      2111      2109      2118      2120      2113      2111      2109      2116
      2113      2111      2109      2118      2114      2111      2109      2116
      2114      2111      2109      2118      2115      2111      2109      2116
      2115      2111      2109      2118      2116      2109      2118      2120
      2127      2125      2134      2136      2129      2127      2125      2132
      2129      2127      2125      2134      2130      2127      2125      2132
      2130      2127      2125      2134      2131      2127      2125      2132
      2131      2127      2125      2134      2132      2125      2134      2136
      2143      2141      2150      2152      2145      2143      2141      2148
      2145      2143      2141      2150      2146      2143      2141      2148
      2146      2143      2141      2150      2147      2143      2141      2148
      2147      2143      2141      2150      2148      2141      2150      2152
      2159      2157      2166      2168      2161      2159      2157      2164
      2161      2159      2157      2166      2162      2159      2157      2164
      2162      2159      2157      2166      2163      2159      2157      2164
      2163      2159      2157      2166      2164      2157      2166      2168
      2175      2173      2182      2184      2177      2175      2173      2180
      2177      2175      2173      2182      2178      2175      2173      2180
      2178      2175      2173      2182      2179      2175      2173      2180
      2179      2175      2173      2182      2180      2173      2182      2184
      2191      2189      2198      2200      2193      2191      2189      2196
      2193      2191      2189      2198      2194      2191      2189      2196
      2194      2191      2189      2198      2195      2191      2189      2196
      2195      2191      2189      2198      2196      2189      2198      2200
      2207      2205      2214      2216      2209      2207      2205      2212
      2209      2207      2205      2214      2210      2207      2205      2212
      2210      2207      2205      2214      2211      2207      2205      2212
      2211      2207      2205      2214      2212      2205      2214      2216
      2223      2221      2230      2232      2225      2223      2221      2228
      2225      2223      2221      2230      2226      2223      2221      2228
      2226      2223      2221      2230      2227      2223      2221      2228
      2227      2223      2221      2230      2228      2221      2230      2232
      2239      2237      2246      2248      2241      2239      2237      2244
      2241      2239      2237      2246      2242      2239      2237      2244
      2242      2239      2237      2246      2243      2239      2237      2244
      2243      2239      2237      2246      2244      2237      2246      2248
      2255      2253      2262      2264      2257      2255      2253      2260
      2257      2255      2253      2262      2258      2255      2253      2260
      2258      2255      2253      2262      2259      2255      2253      2260
      2259      2255      2253      2262      2260      2253      2262      2264
      2271      2269      2278      2280      2273      2271      2269      2276
      2273      2271      2269      2278      2274      2271      2269      2276
      2274      2271      2269      2278      2275      2271      2269      2276
      2275      2271      2269      2278      2276      2269      2278      2280
      2287      2285      2294      2296      2289      2287      2285      2292
      2289      2287      2285      2294      2290      2287      2285      2292
      2290      2287      2285      2294      2291      2287      2285      2292
      2291      2287      2285      2294      2292      2285      2294      2296
      2303      2301      2310      2312      2305      2303      2301      2308
      2305      2303      2301      2310      2306      2303      2301      2308
      2306      2303      2301      2310      2307      2303      2301      2308
      2307      2303      2301      2310      2308      2301      2310      2312
      2319      2317      2326      2328      2321      2319      2317      2324
      2321      2319      2317      2326      2322      2319      2317      2324
      2322      2319      2317      2326      2323      2319      2317      2324
      2323      2319      2317      2326      2324      2317      2326      2328
      2335      2333      2342      2344      2337      2335      2333      2340
      2337      2335      2333      2342      2338      2335      2333      2340
      2338      2335      2333      2342      2339      2335      2333      2340
      2339      2335      2333      2342      2340      2333      2342      2344
      2351      2349      2358      2360      2353      2351      2349      2356
      2353      2351      2349      2358      2354      2351      2349      2356
      2354      2351      2349      2358      2355      2351      2349      2356
      2355      2351      2349      2358      2356      2349      2358      2360
      2367      2365      2374      2376      2369      2367      2365      2372
      2369      2367      2365      2374      2370      2367      2365      2372
      2370      2367      2365      2374      2371      2367      2365      2372
      2371      2367      2365      2374      2372      2365      2374      2376
      2383      2381      2390      2392      2385      2383      2381      2388
      2385      2383      2381      2390      2386      2383      2381      2388
      2386      2383      2381      2390      2387      2383      2381      2388
      2387      2383      2381      2390      2388      2381      2390      2392
      2399      2397      2406      2408      2401      2399      2397      2404
      2401      2399      2397      2406      2402      2399      2397      2404
      2402      2399      2397      2406      2403      2399      2397      2404
      2403      2399      2397      2406      2404      2397      2406      2408
      2415      2413      2422      2424      2417      2415      2413      2420
      2417      2415      2413      2422      2418      2415      2413      2420
      2418      2415      2413      2422      2419      2415      2413      2420
      2419      2415      2413      2422      2420      2413      2422      2424
      2431      2429      2438      2440      2433      2431      2429      2436
      2433      2431      2429      2438      2434      2431      2429      2436
      2434      2431      2429      2438      2435      2431      2429      2436
      2435      2431      2429      2438      2436      2429      2438      2440
      2447      2445      2454      2456      2449      2447      2445      2452
      2449      2447      2445      2454      2450      2447      2445      2452
      2450      2447      2445      2454      2451      2447      2445      2452
      2451      2447      2445      2454      2452      2445      2454      2456
      2463      2461      2470      2472      2465      2463      2461      2468
      2465      2463      2461      2470      2466      2463      2461      2468
      2466      2463      2461      2470      2467      2463      2461      2468
      2467      2463      2461      2470      2468      2461      2470      2472
      2479      2477      2486      2488      2481      2479      2477      2484
      2481      2479      2477      2486      2482      2479      2477      2484
      2482      2479      2477      2486      2483      2479      2477      2484
      2483      2479      2477      2486      2484      2477      2486      2488
      2495      2493      2502      2504      2497      2495      2493      2500
      2497      2495      2493      2502      2498      2495      2493      2500
      2498      2495      2493      2502      2499      2495      2493      2500
      2499      2495      2493      2502      2500      2493      2502      2504
      2511      2509      2518      2520      2513      2511      2509      2516
      2513      2511      2509      2518      2514      2511      2509      2516
      2514      2511      2509      2518      2515      2511      2509      2516
      2515      2511      2509      2518      2516      2509      2518      2520
      2527      2525      2534      2536      2529      2527      2525      2532
      2529      2527      2525      2534      2530      2527      2525      2532
      2530      2527      2525      2534      2531      2527      2525      2532
      2531      2527      2525      2534      2532      2525      2534      2536
      2543      2541      2550      2552      2545      2543      2541      2548
      2545      2543      2541      2550      2546      2543      2541      2548
      2546      2543      2541      2550      2547      2543      2541      2548
      2547      2543      2541      2550      2548      2541      2550      2552
      2559      2557      2566      2568      2561      2559      2557      2564
      2561      2559      2557      2566      2562      2559      2557      2564
      2562      2559      2557      2566      2563      2559      2557      2564
      2563      2559      2557      2566      2564      2557      2566      2568
      2575      2573      2582      2584      2577      2575      2573      2580
      2577      2575      2573      2582      2578      2575      2573      2580
      2578      2575      2573      2582      2579      2575      2573      2580
      2579      2575      2573      2582      2580      2573      2582      2584
      2591      2589      2598      2600      2593      2591      2589      2596
      2593      2591      2589      2598      2594      2591      2589      2596
      2594      2591      2589      2598      2595      2591      2589      2596
      2595      2591      2589      2598      2596      2589      2598      2600
      2607      2605      2614      2616      2609      2607      2605      2612
      2609      2607      2605      2614      2610      2607      2605      2612
      2610      2607      2605      2614      2611      2607      2605      2612
      2611      2607      2605      2614      2612      2605      2614      2616
      2623      2621      2630      2632      2625      2623      2621      2628
      2625      2623      2621      2630      2626      2623      2621      2628
      2626      2623      2621      2630      2627      2623      2621      2628
      2627      2623      2621      2630      2628      2621      2630      2632
      2639      2637      2646      2648      2641      2639      2637      2644
      2641      2639      2637      2646      2642      2639      2637      2644
      2642      2639      2637      2646      2643      2639      2637      2644
      2643      2639      2637      2646      2644      2637      2646      2648
      2655      2653      2662      2664      2657      2655      2653      2660
      2657      2655      2653      2662      2658      2655      2653      2660
      2658      2655      2653      2662      2659      2655      2653      2660
      2659      2655      2653      2662      2660      2653      2662      2664
      2671      2669      2678      2680      2673      2671      2669      2676
      2673      2671      2669      2678      2674      2671      2669      2676
      2674      2671      2669      2678      2675      2671      2669      2676
      2675      2671      2669      2678      2676      2669      2678      2680
      2687      2685      2694      2696      2689      2687      2685      2692
      2689      2687      2685      2694      2690      2687      2685      2692
      2690      2687      2685      2694      2691      2687      2685      2692
      2691      2687      2685      2694      2692      2685      2694      2696

       100 !NIMPHI: impropers
      1108      1103      1110      1101      1124      1119      1126      1117
      1140      1135      1142      1133      1156      1151      1158      1149
      1172      1167      1174      1165      1188      1183      1190      1181
      1204      1199      1206      1197      1220      1215      1222      1213
      1236      1231      1238      1229      1252      1247      1254      1245
      1268      1263      1270      1261      1284      1279      1286      1277
      1300      1295      1302      1293      1316      1311      1318      1309
      1332      1327      1334      1325      1348      1343      1350      1341
      1364      1359      1366      1357      1380      1375      1382      1373
      1396      1391      1398      1389      1412      1407      1414      1405
      1428      1423      1430      1421      1444      1439      1446      1437
      1460      1455      1462      1453      1476      1471      1478      1469
      1492      1487      1494      1485      1508      1503      1510      1501
      1524      1519      1526      1517      1540      1535      1542      1533
      1556      1551      1558      1549      1572      1567      1574      1565
      1588      1583      1590      1581      1604      1599      1606      1597
      1620      1615      1622      1613      1636      1631      1638      1629
      1652      1647      1654      1645      1668      1663      1670      1661
      1684      1679      1686      1677      1700      1695      1702      1693
      1716      1711      1718      1709      1732      1727      1734      1725
      1748      1743      1750      1741      1764      1759      1766      1757
      1780      1775      1782      1773      1796      1791      1798      1789
      1812      1807      1814      1805      1828      1823      1830      1821
      1844      1839      1846      1837      1860      1855      1862      1853
      1876      1871      1878      1869      1892      1887      1894      1885
      1908      1903      1910      1901      1924      1919      1926      1917
      1940      1935      1942      1933      1956      1951      1958      1949
      1972      1967      1974      1965      1988      1983      1990      1981
      2004      1999      2006      1997      2020      2015      2022      2013
      2036      2031      2038      2029      2052      2047      2054      2045
      2068      2063      2070      2061      2084      2079      2086      2077
      2100      2095      2102      2093      2116      2111      2118      2109
      2132      2127      2134      2125      2148      2143      2150      2141
      2164      2159      2166      2157      2180      2175      2182      2173
      2196      2191      2198      2189      2212      2207      2214      2205
      2228      2223      2230      2221      2244      2239      2246      2237
      2260      2255      2262      2253      2276      2271      2278      2269
      2292      2287      2294      2285      2308      2303      2310      2301
      2324      2319      2326      2317      2340      2335      2342      2333
      2356      2351      2358      2349      2372      2367      2374      2365
      2388      2383      2390      2381      2404      2399      2406      2397
      2420      2415      2422      2413      2436      2431      2438      2429
      2452      2447      2454      2445      2468      2463      2470      2461
      2484      2479      2486      2477      2500      2495      2502      2493
      2516      2511      2518      2509      2532      2527      2534      2525
      2548      2543      2550      2541      2564      2559      2566      2557
      2580      2575      2582      2573      2596      2591      2598      2589
      2612      2607      2614      2605      2628      2623      2630      2621
      2644      2639      2646      2637      2660      2655      2662      2653
      2676      2671      2678      2669      2692      2687      2694      2685

         0 !NDON: donors


         0 !NACC: acceptors


         0 !NNB

         0         0         0         0         0         0         0         0
         0         0         0         0         0         0         0         0
         0         0         0         0         0         0         0         0
         0         0         0         0         0         0         0         0
         0         0         0         0         0         0         0         0
         0         0         0         0         0         0         0         0
         0         0         0         0         0         0         0         0
         0         0         0         0         0         0         0         0
         0         0         0         0         0         0         0         0
         0         0         0         0         0         0         0         0
         0         0         0         0         0         0         0         0
         0         0         0         0         0         0         0         0
         0         0         0         0         0         0         0         0
         0         0         0         0         0         0         0         0
         0         0         0         0         0         0         0         0
         0         0         0         0         0         0         0         0
         0         0         0         0         0         0         0         0
         0         0         0         0         0         0         0         0
         0         0         0         0         0         0         0         0
         0         0         0         0         0         0         0         0
         0         0         0         0         0         0         0         0
         0         0         0         0         0         0         0         0
         0         0         0         0         0         0         0         0
         0         0         0         0         0         0         0         0
         0         0         0         0         0         0         0         0
         0         0         0         0         0         0         0         0
         0         0         0         0         0         0         0         0
         0         0         0         0         0         0         0         0
         0         0         0         0         0         0         0         0
         0         0         0         0         0         0         0         0
         0         0         0         0         0         0         0         0
         0         0         0         0         0         0         0         0
         0         0         0         0         0         0         0         0
         0         0         0         0         0         0         0         0
         0         0         0         0         0         0         0         0
         0         0         0         0         0         0         0         0
         0         0         0         0         0         0         0         0
         0         0         0         0         0         0         0         0
         0         0         0         0         0         0         0         0
         0         0         0         0         0         0         0         0
         0         0         0         0         0         0         0         0
         0         0         0         0         0         0         0         0
         0         0         0         0         0         0         0         0
         0         0         0         0         0         0         0         0
         0         0         0         0         0         0         0         0
         0         0         0         0         0         0         0         0
         0         0         0         0         0         0         0         0
         0         0         0         0         0         0         0         0
         0         0         0         0         0         0         0         0
         0         0         0         0         0         0         0         0
         0         0         0         0         0         0         0         0
         0         0         0         0         0         0         0         0
         0         0         0         0         0         0         0         0
         0         0         0         0         0         0         0         0
         0         0         0         0         0         0         0         0
         0         0         0         0         0         0         0         0
         0         0         0         0         0         0         0         0
         0         0         0         0         0         0         0         0
         0         0         0         0         0         0         0         0
         0         0         0         0         0         0         0         0
         0         0         0         0         0         0         0         0
         0         0         0         0         0         0         0         0
         0         0         0         0         0         0         0         0
         0         0         0         0         0         0         0         0
         0         0         0         0         0         0         0         0
         0         0         0         0         0         0         0         0
         0         0         0         0         0         0         0         0
         0         0         0         0         0         0         0         0
         0         0         0         0         0         0         0         0
         0         0         0         0         0         0         0         0
         0         0         0         0         0         0         0         0
         0         0         0         0         0         0         0         0
         0         0         0         0         0         0         0         0
         0         0         0         0         0         0         0         0
         0         0         0         0         0         0         0         0
         0         0         0         0         0         0         0         0
         0         0         0         0         0         0         0         0
         0         0         0         0         0         0         0         0
         0         0         0         0         0         0         0         0
         0         0         0         0         0         0         0         0
         0         0         0         0         0         0         0         0
         0         0         0         0         0         0         0         0
         0         0         0         0         0         0         0         0
         0         0         0         0         0         0         0         0
         0         0         0         0         0         0         0         0
         0         0         0         0         0         0         0         0
         0         0         0         0         0         0         0         0
         0         0         0         0         0         0         0         0
         0         0         0         0         0         0         0         0
         0         0         0         0         0         0         0         0
         0         0         0         0         0         0         0         0
         0         0         0         0         0         0         0         0
         0         0         0         0         0         0         0         0
         0         0         0         0         0         0         0         0
         0         0         0         0         0         0         0         0
         0         0         0         0         0         0         0         0
         0         0         0         0         0         0         0         0
         0         0         0         0         0         0         0         0
         0         0         0         0         0         0         0         0
         0         0         0         0         0         0         0         0
         0         0         0         0         0         0         0         0
         0         0         0         0         0         0         0         0
         0         0         0         0         0         0         0         0
         0         0         0         0         0         0         0         0
         0         0         0         0         0         0         0         0
         0         0         0         0         0         0         0         0
         0         0         0         0         0         0         0         0
         0         0         0         0         0         0         0         0
         0         0         0         0         0         0         0         0
         0         0         0         0         0         0         0         0
         0         0         0         0         0         0         0         0
         0         0         0         0         0         0         0         0
         0         0         0         0         0         0         0         0
         0         0         0         0         0         0         0         0
         0         0         0         0         0         0         0         0
         0         0         0         0         0         0         0         0
         0         0         0         0         0         0         0         0
         0         0         0         0         0         0         0         0
         0         0         0         0         0         0         0         0
         0         0         0         0         0         0         0         0
         0         0         0         0         0         0         0         0
         0         0         0         0         0         0         0         0
         0         0         0         0         0         0         0         0
         0         0         0         0         0         0         0         0
         0         0         0         0         0         0         0         0
         0         0         0         0         0         0         0         0
         0         0         0         0         0         0         0         0
         0         0         0         0         0         0         0         0
         0         0         0         0         0         0         0         0
         0         0         0         0         0         0         0         0
         0         0         0         0         0         0         0         0
         0         0         0         0         0         0         0         0
         0         0         0         0         0         0         0         0
         0         0         0         0         0         0         0         0
         0         0         0         0         0         0         0         0
         0         0         0         0         0         0         0         0
         0         0         0         0         0         0         0         0
         0         0         0         0         0         0         0         0
         0         0         0         0         0         0         0         0
         0         0         0         0         0         0         0         0
         0         0         0         0         0         0         0         0
         0         0         0         0         0         0         0         0
         0         0         0         0         0         0         0         0
         0         0         0         0         0         0         0         0
         0         0         0         0         0         0         0         0
         0         0         0         0         0         0         0         0
         0         0         0         0         0         0         0         0
         0         0         0         0         0         0         0         0
         0         0         0         0         0         0         0         0
         0         0         0         0         0         0         0         0
         0         0         0         0         0         0         0         0
         0         0         0         0         0         0         0         0
         0         0         0         0         0         0         0         0
         0         0         0         0         0         0         0         0
         0         0         0         0         0         0         0         0
         0         0         0         0         0         0         0         0
         0         0         0         0         0         0         0         0
         0         0         0         0         0         0         0         0
         0         0         0         0         0         0         0         0
         0         0         0         0         0         0         0         0
         0         0         0         0         0         0         0         0
         0         0         0         0         0         0         0         0
         0         0         0         0         0         0         0         0
         0         0         0         0         0         0         0         0
         0         0         0         0         0         0         0         0
         0         0         0         0         0         0         0         0
         0         0         0         0         0         0         0         0
         0         0         0         0         0         0         0         0
         0         0         0         0         0         0         0         0
         0         0         0         0         0         0         0         0
         0         0         0         0         0         0         0         0
         0         0         0         0         0         0         0         0
         0         0         0         0         0         0         0         0
         0         0         0         0         0         0         0         0
         0         0         0         0         0         0         0         0
         0         0         0         0         0         0         0         0
         0         0         0         0         0         0         0         0
         0         0         0         0         0         0         0         0
         0         0         0         0         0         0         0         0
         0         0         0         0         0         0         0         0
         0         0         0         0         0         0         0         0
         0         0         0         0         0         0         0         0
         0         0         0         0         0         0         0         0
         0         0         0         0         0         0         0         0
         0         0         0         0         0         0         0         0
         0         0         0         0         0         0         0         0
         0         0         0         0         0         0         0         0
         0         0         0         0         0         0         0         0
         0         0         0         0         0         0         0         0
         0         0         0         0         0         0         0         0
         0         0         0         0         0         0         0         0
         0         0         0         0         0         0         0         0
         0         0         0         0         0         0         0         0
         0         0         0         0         0         0         0         0
         0         0         0         0         0         0         0         0
         0         0         0         0         0         0         0         0
         0         0         0         0         0         0         0         0
         0         0         0         0         0         0         0         0
         0         0         0         0         0         0         0         0
         0         0         0         0         0         0         0         0
         0         0         0         0         0         0         0         0
         0         0         0         0         0         0         0         0
         0         0         0         0         0         0         0         0
         0         0         0         0         0         0         0         0
         0         0         0         0         0         0         0         0
         0         0         0         0         0         0         0         0
         0         0         0         0         0         0         0         0
         0         0         0         0         0         0         0         0
         0         0         0         0         0         0         0         0
         0         0         0         0         0         0         0         0
         0         0         0         0         0         0         0         0
         0         0         0         0         0         0         0         0
         0         0         0         0         0         0         0         0
         0         0         0         0         0         0         0         0
         0         0         0         0         0         0         0         0
         0         0         0         0         0         0         0         0
         0         0         0         0         0         0         0         0
         0         0         0         0         0         0         0         0
         0         0         0         0         0         0         0         0
         0         0         0         0         0         0         0         0
         0         0         0         0         0         0         0         0
         0         0         0         0         0         0         0         0
         0         0         0         0         0         0         0         0
         0         0         0         0         0         0         0         0
         0         0         0         0         0         0         0         0
         0         0         0         0         0         0         0         0
         0         0         0         0         0         0         0         0
         0         0         0         0         0         0         0         0
         0         0         0         0         0         0         0         0
         0         0         0         0         0         0         0         0
         0         0         0         0         0         0         0         0
         0         0         0         0         0         0         0         0
         0         0         0         0         0         0         0         0
         0         0         0         0         0         0         0         0
         0         0         0         0         0         0         0         0
         0         0         0         0         0         0         0         0
         0         0         0         0         0         0         0         0
         0         0         0         0         0         0         0         0
         0         0         0         0         0         0         0         0
         0         0         0         0         0         0         0         0
         0         0         0         0         0         0         0         0
         0         0         0         0         0         0         0         0
         0         0         0         0         0         0         0         0
         0         0         0         0         0         0         0         0
         0         0         0         0         0         0         0         0
         0         0         0         0         0         0         0         0
         0         0         0         0         0         0         0         0
         0         0         0         0         0         0         0         0
         0         0         0         0         0         0         0         0
         0         0         0         0         0         0         0         0
         0         0         0         0         0         0         0         0
         0         0         0         0         0         0         0         0
         0         0         0         0         0         0         0         0
         0         0         0         0         0         0         0         0
         0         0         0         0         0         0         0         0
         0         0         0         0         0         0         0         0
         0         0         0         0         0         0         0         0
         0         0         0         0         0         0         0         0
         0         0         0         0         0         0         0         0
         0         0         0         0         0         0         0         0
         0         0         0         0         0         0         0         0
         0         0         0         0         0         0         0         0
         0         0         0         0         0         0         0         0
         0         0         0         0         0         0         0         0
         0         0         0         0         0         0         0         0
         0         0         0         0         0         0         0         0
         0         0         0         0         0         0         0         0
         0         0         0         0         0         0         0         0
         0         0         0         0         0         0         0         0
         0         0         0         0         0         0         0         0
         0         0         0         0         0         0         0         0
         0         0         0         0         0         0         0         0
         0         0         0         0         0         0         0         0
         0         0         0         0         0         0         0         0
         0         0         0         0         0         0         0         0
         0         0         0         0         0         0         0         0
         0         0         0         0         0         0         0         0
         0         0         0         0         0         0         0         0
         0         0         0         0         0         0         0         0
         0         0         0         0         0         0         0         0
         0         0         0         0         0         0         0         0
         0         0         0         0         0         0         0         0
         0         0         0         0         0         0         0         0
         0         0         0         0         0         0         0         0
         0         0         0         0         0         0         0         0
         0         0         0         0         0         0         0         0
         0         0         0         0         0         0         0         0
         0         0         0         0         0         0         0         0
         0         0         0         0         0         0         0         0
         0         0         0         0         0         0         0         0
         0         0         0         0         0         0         0         0
         0         0         0         0         0         0         0         0
         0         0         0         0         0         0         0         0
         0         0         0         0         0         0         0         0
         0         0         0         0         0         0         0         0
         0         0         0         0         0         0         0         0
         0         0         0         0         0         0         0         0
         0         0         0         0         0         0         0         0
         0         0         0         0         0         0         0         0
         0         0         0         0         0         0         0         0
         0         0         0         0         0         0         0         0
         0         0         0         0         0         0         0         0
         0         0         0         0         0         0         0         0
         0         0         0         0         0         0         0         0
         0         0         0         0         0         0         0         0
         0         0         0         0         0         0         0         0
         0         0         0         0         0         0         0         0
         0         0         0         0         0         0         0         0
         0         0         0         0         0         0         0         0
         0         0         0         0         0         0         0         0
         0         0         0         0         0         0         0         0
         0         0         0         0         0         0         0         0
         0         0         0         0         0         0         0         0
         0         0         0         0         0         0         0         0
         0         0         0         0         0         0         0         0
         0         0         0         0         0         0         0         0
         0         0         0         0         0         0         0         0
         0         0         0         0         0         0         0         0
         0         0         0         0         0         0         0         0
         0         0         0         0         0         0         0         0
         0         0         0         0         0         0         0         0
         0         0         0         0         0         0         0         0
         0         0         0         0         0         0         0         0
         0         0         0         0         0         0         0         0
         0         0         0         0         0         0         0         0
         0         0         0         0         0         0         0         0
         0         0         0         0         0         0         0         0
         0         0         0         0         0         0         0         0
         0         0         0         0         0         0         0         0
         0         0         0         0         0         0         0         0
         0         0         0         0         0         0         0         0
         0         0         0         0         0         0         0         0
         0         0         0         0         0         0         0         0
         0         0         0         0         0         0         0         0
         0         0         0         0         0         0         0         0
         0         0         0         0         0         0         0         0
         0         0         0         0         0         0         0         0
         0         0         0         0

       200         0 !NGRP NST2
         0         2         0        11         2         0        22         2         0
        33         2         0        44         2         0        55         2         0
        66         2         0        77         2         0        88         2         0
        99         2         0       110         2         0       121         2         0
       132         2         0       143         2         0       154         2         0
       165         2         0       176         2         0       187         2         0
       198         2         0       209         2         0       220         2         0
       231         2         0       242         2         0       253         2         0
       264         2         0       275         2         0       286         2         0
       297         2         0       308         2         0       319         2         0
       330         2         0       341         2         0       352         2         0
       363         2         0       374         2         0       385         2         0
       396         2         0       407         2         0       418         2         0
       429         2         0       440         2         0       451         2         0
       462         2         0       473         2         0       484         2         0
       495         2         0       506         2         0       517         2         0
       528         2         0       539         2         0       550         2         0
       561         2         0       572         2         0       583         2         0
       594         2         0       605         2         0       616         2         0
       627         2         0       638         2         0       649         2         0
       660         2         0       671         2         0       682         2         0
       693         2         0       704         2         0       715         2         0
       726         2         0       737         2         0       748         2         0
       759         2         0       770         2         0       781         2         0
       792         2         0       803         2         0       814         2         0
       825         2         0       836         2         0       847         2         0
       858         2         0       869         2         0       880         2         0
       891         2         0       902         2         0       913         2         0
       924         2         0       935         2         0       946         2         0
       957         2         0       968         2         0       979         2         0
       990         2         0      1001         2         0      1012         2         0
      1023         2         0      1034         2         0      1045         2         0
      1056         2         0      1067         2         0      1078         2         0
      1089         2         0      1100         2         0      1116         2         0
      1132         2         0      1148         2         0      1164         2         0
      1180         2         0      1196         2         0      1212         2         0
      1228         2         0      1244         2         0      1260         2         0
      1276         2         0      1292         2         0      1308         2         0
      1324         2         0      1340         2         0      1356         2         0
      1372         2         0      1388         2         0      1404         2         0
      1420         2         0      1436         2         0      1452         2         0
      1468         2         0      1484         2         0      1500         2         0
      1516         2         0      1532         2         0      1548         2         0
      1564         2         0      1580         2         0      1596         2         0
      1612         2         0      1628         2         0      1644         2         0
      1660         2         0      1676         2         0      1692         2         0
      1708         2         0      1724         2         0      1740         2         0
      1756         2         0      1772         2         0      1788         2         0
      1804         2         0      1820         2         0      1836         2         0
      1852         2         0      1868         2         0      1884         2         0
      1900         2         0      1916         2         0      1932         2         0
      1948         2         0      1964         2         0      1980         2         0
      1996         2         0      2012         2         0      2028         2         0
      2044         2         0      2060         2         0      2076         2         0
      2092         2         0      2108         2         0      2124         2         0
      2140         2         0      2156         2         0      2172         2         0
      2188         2         0      2204         2         0      2220         2         0
      2236         2         0      2252         2         0      2268         2         0
      2284         2         0      2300         2         0      2316         2         0
      2332         2         0      2348         2         0      2364         2         0
      2380         2         0      2396         2         0      2412         2         0
      2428         2         0      2444         2         0      2460         2         0
      2476         2         0      2492         2         0      2508         2         0
      2524         2         0      2540         2         0      2556         2         0
      2572         2         0      2588         2         0      2604         2         0
      2620         2         0      2636         2         0      2652         2         0
      2668         2         0      2684         2         0

         1 !MOLNT
         1         1         1         1         1         1         1         1
         1         1         1         1         1         1         1         1
         1         1         1         1         1         1         1         1
         1         1         1         1         1         1         1         1
         1         1         1         1         1         1         1         1
         1         1         1         1         1         1         1         1
         1         1         1         1         1         1         1         1
         1         1         1         1         1         1         1         1
         1         1         1         1         1         1         1         1
         1         1         1         1         1         1         1         1
         1         1         1         1         1         1         1         1
         1         1         1         1         1         1         1         1
         1         1         1         1         1         1         1         1
         1         1         1         1         1         1         1         1
         1         1         1         1         1         1         1         1
         1         1         1         1         1         1         1         1
         1         1         1         1         1         1         1         1
         1         1         1         1         1         1         1         1
         1         1         1         1         1         1         1         1
         1         1         1         1         1         1         1         1
         1         1         1         1         1         1         1         1
         1         1         1         1         1         1         1         1
         1         1         1         1         1         1         1         1
         1         1         1         1         1         1         1         1
         1         1         1         1         1         1         1         1
         1         1         1         1         1         1         1         1
         1         1         1         1         1         1         1         1
         1         1         1         1         1         1         1         1
         1         1         1         1         1         1         1         1
         1         1         1         1         1         1         1         1
         1         1         1         1         1         1         1         1
         1         1         1         1         1         1         1         1
         1         1         1         1         1         1         1         1
         1         1         1         1         1         1         1         1
         1         1         1         1         1         1         1         1
         1         1         1         1         1         1         1         1
         1         1         1         1         1         1         1         1
         1         1         1         1         1         1         1         1
         1         1         1         1         1         1         1         1
         1         1         1         1         1         1         1         1
         1         1         1         1         1         1         1         1
         1         1         1         1         1         1         1         1
         1         1         1         1         1         1         1         1
         1         1         1         1         1         1         1         1
         1         1         1         1         1         1         1         1
         1         1         1         1         1         1         1         1
         1         1         1         1         1         1         1         1
         1         1         1         1         1         1         1         1
         1         1         1         1         1         1         1         1
         1         1         1         1         1         1         1         1
         1         1         1         1         1         1         1         1
         1         1         1         1         1         1         1         1
         1         1         1         1         1         1         1         1
         1         1         1         1         1         1         1         1
         1         1         1         1         1         1         1         1
         1         1         1         1         1         1         1         1
         1         1         1         1         1         1         1         1
         1         1         1         1         1         1         1         1
         1         1         1         1         1         1         1         1
         1         1         1         1         1         1         1         1
         1         1         1         1         1         1         1         1
         1         1         1         1         1         1         1         1
         1         1         1         1         1         1         1         1
         1         1         1         1         1         1         1         1
         1         1         1         1         1         1         1         1
         1         1         1         1         1         1         1         1
         1         1         1         1         1         1         1         1
         1         1         1         1         1         1         1         1
         1         1         1         1         1         1         1         1
         1         1         1         1         1         1         1         1
         1         1         1         1         1         1         1         1
         1         1         1         1         1         1         1         1
         1         1         1         1         1         1         1         1
         1         1         1         1         1         1         1         1
         1         1         1         1         1         1         1         1
         1         1         1         1         1         1         1         1
         1         1         1         1         1         1         1         1
         1         1         1         1         1         1         1         1
         1         1         1         1         1         1         1         1
         1         1         1         1         1         1         1         1
         1         1         1         1         1         1         1         1
         1         1         1         1         1         1         1         1
         1         1         1         1         1         1         1         1
         1         1         1         1         1         1         1         1
         1         1         1         1         1         1         1         1
         1         1         1         1         1         1         1         1
         1         1         1         1         1         1         1         1
         1         1         1         1         1         1         1         1
         1         1         1         1         1         1         1         1
         1         1         1         1         1         1         1         1
         1         1         1         1         1         1         1         1
         1         1         1         1         1         1         1         1
         1         1         1         1         1         1         1         1
         1         1         1         1         1         1         1         1
         1         1         1         1         1         1         1         1
         1         1         1         1         1         1         1         1
         1         1         1         1         1         1         1         1
         1         1         1         1         1         1         1         1
         1         1         1         1         1         1         1         1
         1         1         1         1         1         1         1         1
         1         1         1         1         1         1         1         1
         1         1         1         1         1         1         1         1
         1         1         1         1         1         1         1         1
         1         1         1         1         1         1         1         1
         1         1         1         1         1         1         1         1
         1         1         1         1         1         1         1         1
         1         1         1         1         1         1         1         1
         1         1         1         1         1         1         1         1
         1         1         1         1         1         1         1         1
         1         1         1         1         1         1         1         1
         1         1         1         1         1         1         1         1
         1         1         1         1         1         1         1         1
         1         1         1         1         1         1         1         1
         1         1         1         1         1         1         1         1
         1         1         1         1         1         1         1         1
         1         1         1         1         1         1         1         1
         1         1         1         1         1         1         1         1
         1         1         1         1         1         1         1         1
         1         1         1         1         1         1         1         1
         1         1         1         1         1         1         1         1
         1         1         1         1         1         1         1         1
         1         1         1         1         1         1         1         1
         1         1         1         1         1         1         1         1
         1         1         1         1         1         1         1         1
         1         1         1         1         1         1         1         1
         1         1         1         1         1         1         1         1
         1         1         1         1         1         1         1         1
         1         1         1         1         1         1         1         1
         1         1         1         1         1         1         1         1
         1         1         1         1         1         1         1         1
         1         1         1         1         1         1         1         1
         1         1         1         1         1         1         1         1
         1         1         1         1         1         1         1         1
         1         1         1         1         1         1         1         1
         1         1         1         1         1         1         1         1
         1         1         1         1         1         1         1         1
         1         1         1         1         1         1         1         1
         1         1         1         1         1         1         1         1
         1         1         1         1         1         1         1         1
         1         1         1         1         1         1         1         1
         1         1         1         1         1         1         1         1
         1         1         1         1         1         1         1         1
         1         1         1         1         1         1         1         1
         1         1         1         1         1         1         1         1
         1         1         1         1         1         1         1         1
         1         1         1         1         1         1         1         1
         1         1         1         1         1         1         1         1
         1         1         1         1         1         1         1         1
         1         1         1         1         1         1         1         1
         1         1         1         1         1         1         1         1
         1         1         1         1         1         1         1         1
         1         1         1         1         1         1         1         1
         1         1         1         1         1         1         1         1
         1         1         1         1         1         1         1         1
         1         1         1         1         1         1         1         1
         1         1         1         1         1         1         1         1
         1         1         1         1         1         1         1         1
         1         1         1         1         1         1         1         1
         1         1         1         1         1         1         1         1
         1         1         1         1         1         1         1         1
         1         1         1         1         1         1         1         1
         1         1         1         1         1         1         1         1
         1         1         1         1         1         1         1         1
         1         1         1         1         1         1         1         1
         1         1         1         1         1         1         1         1
         1         1         1         1         1         1         1         1
         1         1         1         1         1         1         1         1
         1         1         1         1         1         1         1         1
         1         1         1         1         1         1         1         1
         1         1         1         1         1         1         1         1
         1         1         1         1         1         1         1         1
         1         1         1         1         1         1         1         1
         1         1         1         1         1         1         1         1
         1         1         1         1         1         1         1         1
         1         1         1         1         1         1         1         1
         1         1         1         1         1         1         1         1
         1         1         1         1         1         1         1         1
         1         1         1         1         1         1         1         1
         1         1         1         1         1         1         1         1
         1         1         1         1         1         1         1         1
         1         1         1         1         1         1         1         1
         1         1         1         1         1         1         1         1
         1         1         1         1         1         1         1         1
         1         1         1         1         1         1         1         1
         1         1         1         1         1         1         1         1
         1         1         1         1         1         1         1         1
         1         1         1         1         1         1         1         1
         1         1         1         1         1         1         1         1
         1         1         1         1         1         1         1         1
         1         1         1         1         1         1         1         1
         1         1         1         1         1         1         1         1
         1         1         1         1         1         1         1         1
         1         1         1         1         1         1         1         1
         1         1         1         1         1         1         1         1
         1         1         1         1         1         1         1         1
         1         1         1         1         1         1         1         1
         1         1         1         1         1         1         1         1
         1         1         1         1         1         1         1         1
         1         1         1         1         1         1         1         1
         1         1         1         1         1         1         1         1
         1         1         1         1         1         1         1         1
         1         1         1         1         1         1         1         1
         1         1         1         1         1         1         1         1
         1         1         1         1         1         1         1         1
         1         1         1         1         1         1         1         1
         1         1         1         1         1         1         1         1
         1         1         1         1         1         1         1         1
         1         1         1         1         1         1         1         1
         1         1         1         1         1         1         1         1
         1         1         1         1         1         1         1         1
         1         1         1         1         1         1         1         1
         1         1         1         1         1         1         1         1
         1         1         1         1         1         1         1         1
         1         1         1         1         1         1         1         1
         1         1         1         1         1         1         1         1
         1         1         1         1         1         1         1         1
         1         1         1         1         1         1         1         1
         1         1         1         1         1         1         1         1
         1         1         1         1         1         1         1         1
         1         1         1         1         1         1         1         1
         1         1         1         1         1         1         1         1
         1         1         1         1         1         1         1         1
         1         1         1         1         1         1         1         1
         1         1         1         1         1         1         1         1
         1         1         1         1         1         1         1         1
         1         1         1         1         1         1         1         1
         1         1         1         1         1         1         1         1
         1         1         1         1         1         1         1         1
         1         1         1         1         1         1         1         1
         1         1         1         1         1         1         1         1
         1         1         1         1         1         1         1         1
         1         1         1         1         1         1         1         1
         1         1         1         1         1         1         1         1
         1         1         1         1         1         1         1         1
         1         1         1         1         1         1         1         1
         1         1         1         1         1         1         1         1
         1         1         1         1         1         1         1         1
         1         1         1         1         1         1         1         1
         1         1         1         1         1         1         1         1
         1         1         1         1         1         1         1         1
         1         1         1         1         1         1         1         1
         1         1         1         1         1         1         1         1
         1         1         1         1         1         1         1         1
         1         1         1         1         1         1         1         1
         1         1         1         1         1         1         1         1
         1         1         1         1         1         1         1         1
         1         1         1         1         1         1         1         1
         1         1         1         1         1         1         1         1
         1         1         1         1         1         1         1         1
         1         1         1         1         1         1         1         1
         1         1         1         1         1         1         1         1
         1         1         1         1         1         1         1         1
         1         1         1         1         1         1         1         1
         1         1         1         1         1         1         1         1
         1         1         1         1         1         1         1         1
         1         1         1         1         1         1         1         1
         1         1         1         1         1         1         1         1
         1         1         1         1         1         1         1         1
         1         1         1         1         1         1         1         1
         1         1         1         1         1         1         1         1
         1         1         1         1         1         1         1         1
         1         1         1         1         1         1         1         1
         1         1         1         1         1         1         1         1
         1         1         1         1         1         1         1         1
         1         1         1         1         1         1         1         1
         1         1         1         1         1         1         1         1
         1         1         1         1         1         1         1         1
         1         1         1         1         1         1         1         1
         1         1         1         1         1         1         1         1
         1         1         1         1         1         1         1         1
         1         1         1         1         1         1         1         1
         1         1         1         1         1         1         1         1
         1         1         1         1         1         1         1         1
         1         1         1         1         1         1         1         1
         1         1         1         1         1         1         1         1
         1         1         1         1         1         1         1         1
         1         1         1         1         1         1         1         1
         1         1         1         1         1         1         1         1
         1         1         1         1         1         1         1         1
         1         1         1         1         1         1         1         1
         1         1         1         1         1         1         1         1
         1         1         1         1         1         1         1         1
         1         1         1         1         1         1         1         1
         1         1         1         1         1         1         1         1
         1         1         1         1         1         1         1         1
         1         1         1         1         1         1         1         1
         1         1         1         1         1         1         1         1
         1         1         1         1         1         1         1         1
         1         1         1         1         1         1         1         1
         1         1         1         1         1         1         1         1
         1         1         1         1         1         1         1         1
         1         1         1         1         1         1         1         1
         1         1         1         1         1         1         1         1
         1         1         1         1         1         1         1         1
         1         1         1         1         1         1         1         1
         1         1         1         1         1         1         1         1
         1         1         1         1         1         1         1         1
         1         1         1         1         1         1         1         1
         1         1         1         1         1         1         1         1
         1         1         1         1         1         1         1         1
         1         1         1         1         1         1         1         1
         1         1         1         1         1         1         1         1
         1         1         1         1         1         1         1         1
         1         1         1         1         1         1         1         1
         1         1         1         1         1         1         1         1
         1         1         1         1         1         1         1         1
         1         1         1         1         1         1         1         1
         1         1         1         1         1         1         1         1
         1         1         1         1         1         1         1         1
         1         1         1         1         1         1         1         1
         1         1         1         1         1         1         1         1
         1         1         1         1         1         1         1         1
         1         1         1         1         1         1         1         1
         1         1         1         1         1         1         1         1
         1         1         1         1         1         1         1         1
         1         1         1         1         1         1         1         1
         1         1         1         1         1         1         1         1
         1         1         1         1         1         1         1         1
         1         1         1         1         1         1         1         1
         1         1         1         1         1         1         1         1
         1         1         1         1         1         1         1         1
         1         1         1         1         1         1         1         1
         1         1         1         1         1         1         1         1
         1         1         1         1         1         1         1         1
         1         1         1         1         1         1         1         1
         1         1         1         1         1         1         1         1
         1         1         1         1         1         1         1         1
         1         1         1         1         1         1         1         1
         1         1         1         1         1         1         1         1
         1         1         1         1         1         1         1         1
         1         1         1         1         1         1         1         1
         1         1         1         1         1         1         1         1
         1         1         1         1         1         1         1         1
         1         1         1         1         1         1         1         1
         1         1         1         1         1         1         1         1
         1         1         1         1         1         1         1         1
         1         1         1         1         1         1         1         1
         1         1         1         1

       600      2400 !NUMLP NUMLPH
         3         1   F  0.350000       110.000       91.0000    
         3         5   F  0.350000       110.000       269.000    
         3         9   F  0.350000       110.000       91.0000    
         3        13   F  0.350000       110.000       269.000    
         3        17   F  0.350000       110.000       91.0000    
         3        21   F  0.350000       110.000       269.000    
         3        25   F  0.350000       110.000       91.0000    
         3        29   F  0.350000       110.000       269.000    
         3        33   F  0.350000       110.000       91.0000    
         3        37   F  0.350000       110.000       269.000    
         3        41   F  0.350000       110.000       91.0000    
         3        45   F  0.350000       110.000       269.000    
         3        49   F  0.350000       110.000       91.0000    
         3        53   F  0.350000       110.000       269.000    
         3        57   F  0.350000       110.000       91.0000    
         3        61   F  0.350000       110.000       269.000    
         3        65   F  0.350000       110.000       91.0000    
         3        69   F  0.350000       110.000       269.000    
         3        73   F  0.350000       110.000       91.0000    
         3        77   F  0.350000       110.000       269.000    
         3        81   F  0.350000       110.000       91.0000    
         3        85   F  0.350000       110.000       269.000    
         3        89   F  0.350000       110.000       91.0000    
         3        93   F  0.350000       110.000       269.000    
         3        97   F  0.350000       110.000       91.0000    
         3       101   F  0.350000       110.000       269.000    
         3       105   F  0.350000       110.000       91.0000    
         3       109   F  0.350000       110.000       269.000    
         3       113   F  0.350000       110.000       91.0000    
         3       117   F  0.350000       110.000       269.000    
         3       121   F  0.350000       110.000       91.0000    
         3       125   F  0.350000       110.000       269.000    
         3       129   F  0.350000       110.000       91.0000    
         3       133   F  0.350000       110.000       269.000    
         3       137   F  0.350000       110.000       91.0000    
         3       141   F  0.350000       110.000       269.000    
         3       145   F  0.350000       110.000       91.0000    
         3       149   F  0.350000       110.000       269.000    
         3       153   F  0.350000       110.000       91.0000    
         3       157   F  0.350000       110.000       269.000    
         3       161   F  0.350000       110.000       91.0000    
         3       165   F  0.350000       110.000       269.000    
         3       169   F  0.350000       110.000       91.0000    
         3       173   F  0.350000       110.000       269.000    
         3       177   F  0.350000       110.000       91.0000    
         3       181   F  0.350000       110.000       269.000    
         3       185   F  0.350000       110.000       91.0000    
         3       189   F  0.350000       110.000       269.000    
         3       193   F  0.350000       110.000       91.0000    
         3       197   F  0.350000       110.000       269.000    
         3       201   F  0.350000       110.000       91.0000    
         3       205   F  0.350000       110.000       269.000    
         3       209   F  0.350000       110.000       91.0000    
         3       213   F  0.350000       110.000       269.000    
         3       217   F  0.350000       110.000       91.0000    
         3       221   F  0.350000       110.000       269.000    
         3       225   F  0.350000       110.000       91.0000    
         3       229   F  0.350000       110.000       269.000    
         3       233   F  0.350000       110.000       91.0000    
         3       237   F  0.350000       110.000       269.000    
         3       241   F  0.350000       110.000       91.0000    
         3       245   F  0.350000       110.000       269.000    
         3       249   F  0.350000       110.000       91.0000    
         3       253   F  0.350000       110.000       269.000    
         3       257   F  0.350000       110.000       91.0000    
         3       261   F  0.350000       110.000       269.000    
         3       265   F  0.350000       110.000       91.0000    
         3       269   F  0.350000       110.000       269.000    
         3       273   F  0.350000       110.000       91.0000    
         3       277   F  0.350000       110.000       269.000    
         3       281   F  0.350000       110.000       91.0000    
         3       285   F  0.350000       110.000       269.000    
         3       289   F  0.350000       110.000       91.0000    
         3       293   F  0.350000       110.000       269.000    
         3       297   F  0.350000       110.000       91.0000    
         3       301   F  0.350000       110.000       269.000    
         3       305   F  0.350000       110.000       91.0000    
         3       309   F  0.350000       110.000       269.000    
         3       313   F  0.350000       110.000       91.0000    
         3       317   F  0.350000       110.000       269.000    
         3       321   F  0.350000       110.000       91.0000    
         3       325   F  0.350000       110.000       269.000    
         3       329   F  0.350000       110.000       91.0000    
         3       333   F  0.350000       110.000       269.000    
         3       337   F  0.350000       110.000       91.0000    
         3       341   F  0.350000       110.000       269.000    
         3       345   F  0.350000       110.000       91.0000    
         3       349   F  0.350000       110.000       269.000    
         3       353   F  0.350000       110.000       91.0000    
         3       357   F  0.350000       110.000       269.000    
         3       361   F  0.350000       110.000       91.0000    
         3       365   F  0.350000       110.000       269.000    
         3       369   F  0.350000       110.000       91.0000    
         3       373   F  0.350000       110.000       269.000    
         3       377   F  0.350000       110.000       91.0000    
         3       381   F  0.350000       110.000       269.000    
         3       385   F  0.350000       110.000       91.0000    
         3       389   F  0.350000       110.000       269.000    
         3       393   F  0.350000       110.000       91.0000    
         3       397   F  0.350000       110.000       269.000    
         3       401   F  0.350000       110.000       91.0000    
         3       405   F  0.350000       110.000       269.000    
         3       409   F  0.350000       110.000       91.0000    
         3       413   F  0.350000       110.000       269.000    
         3       417   F  0.350000       110.000       91.0000    
         3       421   F  0.350000       110.000       269.000    
         3       425   F  0.350000       110.000       91.0000    
         3       429   F  0.350000       110.000       269.000    
         3       433   F  0.350000       110.000       91.0000    
         3       437   F  0.350000       110.000       269.000    
         3       441   F  0.350000       110.000       91.0000    
         3       445   F  0.350000       110.000       269.000    
         3       449   F  0.350000       110.000       91.0000    
         3       453   F  0.350000       110.000       269.000    
         3       457   F  0.350000       110.000       91.0000    
         3       461   F  0.350000       110.000       269.000    
         3       465   F  0.350000       110.000       91.0000    
         3       469   F  0.350000       110.000       269.000    
         3       473   F  0.350000       110.000       91.0000    
         3       477   F  0.350000       110.000       269.000    
         3       481   F  0.350000       110.000       91.0000    
         3       485   F  0.350000       110.000       269.000    
         3       489   F  0.350000       110.000       91.0000    
         3       493   F  0.350000       110.000       269.000    
         3       497   F  0.350000       110.000       91.0000    
         3       501   F  0.350000       110.000       269.000    
         3       505   F  0.350000       110.000       91.0000    
         3       509   F  0.350000       110.000       269.000    
         3       513   F  0.350000       110.000       91.0000    
         3       517   F  0.350000       110.000       269.000    
         3       521   F  0.350000       110.000       91.0000    
         3       525   F  0.350000       110.000       269.000    
         3       529   F  0.350000       110.000       91.0000    
         3       533   F  0.350000       110.000       269.000    
         3       537   F  0.350000       110.000       91.0000    
         3       541   F  0.350000       110.000       269.000    
         3       545   F  0.350000       110.000       91.0000    
         3       549   F  0.350000       110.000       269.000    
         3       553   F  0.350000       110.000       91.0000    
         3       557   F  0.350000       110.000       269.000    
         3       561   F  0.350000       110.000       91.0000    
         3       565   F  0.350000       110.000       269.000    
         3       569   F  0.350000       110.000       91.0000    
         3       573   F  0.350000       110.000       269.000    
         3       577   F  0.350000       110.000       91.0000    
         3       581   F  0.350000       110.000       269.000    
         3       585   F  0.350000       110.000       91.0000    
         3       589   F  0.350000       110.000       269.000    
         3       593   F  0.350000       110.000       91.0000    
         3       597   F  0.350000       110.000       269.000    
         3       601   F  0.350000       110.000       91.0000    
         3       605   F  0.350000       110.000       269.000    
         3       609   F  0.350000       110.000       91.0000    
         3       613   F  0.350000       110.000       269.000    
         3       617   F  0.350000       110.000       91.0000    
         3       621   F  0.350000       110.000       269.000    
         3       625   F  0.350000       110.000       91.0000    
         3       629   F  0.350000       110.000       269.000    
         3       633   F  0.350000       110.000       91.0000    
         3       637   F  0.350000       110.000       269.000    
         3       641   F  0.350000       110.000       91.0000    
         3       645   F  0.350000       110.000       269.000    
         3       649   F  0.350000       110.000       91.0000    
         3       653   F  0.350000       110.000       269.000    
         3       657   F  0.350000       110.000       91.0000    
         3       661   F  0.350000       110.000       269.000    
         3       665   F  0.350000       110.000       91.0000    
         3       669   F  0.350000       110.000       269.000    
         3       673   F  0.350000       110.000       91.0000    
         3       677   F  0.350000       110.000       269.000    
         3       681   F  0.350000       110.000       91.0000    
         3       685   F  0.350000       110.000       269.000    
         3       689   F  0.350000       110.000       91.0000    
         3       693   F  0.350000       110.000       269.000    
         3       697   F  0.350000       110.000       91.0000    
         3       701   F  0.350000       110.000       269.000    
         3       705   F  0.350000       110.000       91.0000    
         3       709   F  0.350000       110.000       269.000    
         3       713   F  0.350000       110.000       91.0000    
         3       717   F  0.350000       110.000       269.000    
         3       721   F  0.350000       110.000       91.0000    
         3       725   F  0.350000       110.000       269.000    
         3       729   F  0.350000       110.000       91.0000    
         3       733   F  0.350000       110.000       269.000    
         3       737   F  0.350000       110.000       91.0000    
         3       741   F  0.350000       110.000       269.000    
         3       745   F  0.350000       110.000       91.0000    
         3       749   F  0.350000       110.000       269.000    
         3       753   F  0.350000       110.000       91.0000    
         3       757   F  0.350000       110.000       269.000    
         3       761   F  0.350000       110.000       91.0000    
         3       765   F  0.350000       110.000       269.000    
         3       769   F  0.350000       110.000       91.0000    
         3       773   F  0.350000       110.000       269.000    
         3       777   F  0.350000       110.000       91.0000    
         3       781   F  0.350000       110.000       269.000    
         3       785   F  0.350000       110.000       91.0000    
         3       789   F  0.350000       110.000       269.000    
         3       793   F  0.350000       110.000       91.0000    
         3       797   F  0.350000       110.000       269.000    
         3       801   F  0.350000       110.000       0.00000    
         3       805   F  0.350000       110.000       180.000    
         3       809   F  0.350000       110.000       0.00000    
         3       813   F  0.350000       110.000       180.000    
         3       817   F  0.350000       110.000       0.00000    
         3       821   F  0.350000       110.000       180.000    
         3       825   F  0.350000       110.000       0.00000    
         3       829   F  0.350000       110.000       180.000    
         3       833   F  0.350000       110.000       0.00000    
         3       837   F  0.350000       110.000       180.000    
         3       841   F  0.350000       110.000       0.00000    
         3       845   F  0.350000       110.000       180.000    
         3       849   F  0.350000       110.000       0.00000    
         3       853   F  0.350000       110.000       180.000    
         3       857   F  0.350000       110.000       0.00000    
         3       861   F  0.350000       110.000       180.000    
         3       865   F  0.350000       110.000       0.00000    
         3       869   F  0.350000       110.000       180.000    
         3       873   F  0.350000       110.000       0.00000    
         3       877   F  0.350000       110.000       180.000    
         3       881   F  0.350000       110.000       0.00000    
         3       885   F  0.350000       110.000       180.000    
         3       889   F  0.350000       110.000       0.00000    
         3       893   F  0.350000       110.000       180.000    
         3       897   F  0.350000       110.000       0.00000    
         3       901   F  0.350000       110.000       180.000    
         3       905   F  0.350000       110.000       0.00000    
         3       909   F  0.350000       110.000       180.000    
         3       913   F  0.350000       110.000       0.00000    
         3       917   F  0.350000       110.000       180.000    
         3       921   F  0.350000       110.000       0.00000    
         3       925   F  0.350000       110.000       180.000    
         3       929   F  0.350000       110.000       0.00000    
         3       933   F  0.350000       110.000       180.000    
         3       937   F  0.350000       110.000       0.00000    
         3       941   F  0.350000       110.000       180.000    
         3       945   F  0.350000       110.000       0.00000    
         3       949   F  0.350000       110.000       180.000    
         3       953   F  0.350000       110.000       0.00000    
         3       957   F  0.350000       110.000       180.000    
         3       961   F  0.350000       110.000       0.00000    
         3       965   F  0.350000       110.000       180.000    
         3       969   F  0.350000       110.000       0.00000    
         3       973   F  0.350000       110.000       180.000    
         3       977   F  0.350000       110.000       0.00000    
         3       981   F  0.350000       110.000       180.000    
         3       985   F  0.350000       110.000       0.00000    
         3       989   F  0.350000       110.000       180.000    
         3       993   F  0.350000       110.000       0.00000    
         3       997   F  0.350000       110.000       180.000    
         3      1001   F  0.350000       110.000       0.00000    
         3      1005   F  0.350000       110.000       180.000    
         3      1009   F  0.350000       110.000       0.00000    
         3      1013   F  0.350000       110.000       180.000    
         3      1017   F  0.350000       110.000       0.00000    
         3      1021   F  0.350000       110.000       180.000    
         3      1025   F  0.350000       110.000       0.00000    
         3      1029   F  0.350000       110.000       180.000    
         3      1033   F  0.350000       110.000       0.00000    
         3      1037   F  0.350000       110.000       180.000    
         3      1041   F  0.350000       110.000       0.00000    
         3      1045   F  0.350000       110.000       180.000    
         3      1049   F  0.350000       110.000       0.00000    
         3      1053   F  0.350000       110.000       180.000    
         3      1057   F  0.350000       110.000       0.00000    
         3      1061   F  0.350000       110.000       180.000    
         3      1065   F  0.350000       110.000       0.00000    
         3      1069   F  0.350000       110.000       180.000    
         3      1073   F  0.350000       110.000       0.00000    
         3      1077   F  0.350000       110.000       180.000    
         3      1081   F  0.350000       110.000       0.00000    
         3      1085   F  0.350000       110.000       180.000    
         3      1089   F  0.350000       110.000       0.00000    
         3      1093   F  0.350000       110.000       180.000    
         3      1097   F  0.350000       110.000       0.00000    
         3      1101   F  0.350000       110.000       180.000    
         3      1105   F  0.350000       110.000       0.00000    
         3      1109   F  0.350000       110.000       180.000    
         3      1113   F  0.350000       110.000       0.00000    
         3      1117   F  0.350000       110.000       180.000    
         3      1121   F  0.350000       110.000       0.00000    
         3      1125   F  0.350000       110.000       180.000    
         3      1129   F  0.350000       110.000       0.00000    
         3      1133   F  0.350000       110.000       180.000    
         3      1137   F  0.350000       110.000       0.00000    
         3      1141   F  0.350000       110.000       180.000    
         3      1145   F  0.350000       110.000       0.00000    
         3      1149   F  0.350000       110.000       180.000    
         3      1153   F  0.350000       110.000       0.00000    
         3      1157   F  0.350000       110.000       180.000    
         3      1161   F  0.350000       110.000       0.00000    
         3      1165   F  0.350000       110.000       180.000    
         3      1169   F  0.350000       110.000       0.00000    
         3      1173   F  0.350000       110.000       180.000    
         3      1177   F  0.350000       110.000       0.00000    
         3      1181   F  0.350000       110.000       180.000    
         3      1185   F  0.350000       110.000       0.00000    
         3      1189   F  0.350000       110.000       180.000    
         3      1193   F  0.350000       110.000       0.00000    
         3      1197   F  0.350000       110.000       180.000    
         3      1201   F  0.350000       110.000       0.00000    
         3      1205   F  0.350000       110.000       180.000    
         3      1209   F  0.350000       110.000       0.00000    
         3      1213   F  0.350000       110.000       180.000    
         3      1217   F  0.350000       110.000       0.00000    
         3      1221   F  0.350000       110.000       180.000    
         3      1225   F  0.350000       110.000       0.00000    
         3      1229   F  0.350000       110.000       180.000    
         3      1233   F  0.350000       110.000       0.00000    
         3      1237   F  0.350000       110.000       180.000    
         3      1241   F  0.350000       110.000       0.00000    
         3      1245   F  0.350000       110.000       180.000    
         3      1249   F  0.350000       110.000       0.00000    
         3      1253   F  0.350000       110.000       180.000    
         3      1257   F  0.350000       110.000       0.00000    
         3      1261   F  0.350000       110.000       180.000    
         3      1265   F  0.350000       110.000       0.00000    
         3      1269   F  0.350000       110.000       180.000    
         3      1273   F  0.350000       110.000       0.00000    
         3      1277   F  0.350000       110.000       180.000    
         3      1281   F  0.350000       110.000       0.00000    
         3      1285   F  0.350000       110.000       180.000    
         3      1289   F  0.350000       110.000       0.00000    
         3      1293   F  0.350000       110.000       180.000    
         3      1297   F  0.350000       110.000       0.00000    
         3      1301   F  0.350000       110.000       180.000    
         3      1305   F  0.350000       110.000       0.00000    
         3      1309   F  0.350000       110.000       180.000    
         3      1313   F  0.350000       110.000       0.00000    
         3      1317   F  0.350000       110.000       180.000    
         3      1321   F  0.350000       110.000       0.00000    
         3      1325   F  0.350000       110.000       180.000    
         3      1329   F  0.350000       110.000       0.00000    
         3      1333   F  0.350000       110.000       180.000    
         3      1337   F  0.350000       110.000       0.00000    
         3      1341   F  0.350000       110.000       180.000    
         3      1345   F  0.350000       110.000       0.00000    
         3      1349   F  0.350000       110.000       180.000    
         3      1353   F  0.350000       110.000       0.00000    
         3      1357   F  0.350000       110.000       180.000    
         3      1361   F  0.350000       110.000       0.00000    
         3      1365   F  0.350000       110.000       180.000    
         3      1369   F  0.350000       110.000       0.00000    
         3      1373   F  0.350000       110.000       180.000    
         3      1377   F  0.350000       110.000       0.00000    
         3      1381   F  0.350000       110.000       180.000    
         3      1385   F  0.350000       110.000       0.00000    
         3      1389   F  0.350000       110.000       180.000    
         3      1393   F  0.350000       110.000       0.00000    
         3      1397   F  0.350000       110.000       180.000    
         3      1401   F  0.350000       110.000       0.00000    
         3      1405   F  0.350000       110.000       180.000    
         3      1409   F  0.350000       110.000       0.00000    
         3      1413   F  0.350000       110.000       180.000    
         3      1417   F  0.350000       110.000       0.00000    
         3      1421   F  0.350000       110.000       180.000    
         3      1425   F  0.350000       110.000       0.00000    
         3      1429   F  0.350000       110.000       180.000    
         3      1433   F  0.350000       110.000       0.00000    
         3      1437   F  0.350000       110.000       180.000    
         3      1441   F  0.350000       110.000       0.00000    
         3      1445   F  0.350000       110.000       180.000    
         3      1449   F  0.350000       110.000       0.00000    
         3      1453   F  0.350000       110.000       180.000    
         3      1457   F  0.350000       110.000       0.00000    
         3      1461   F  0.350000       110.000       180.000    
         3      1465   F  0.350000       110.000       0.00000    
         3      1469   F  0.350000       110.000       180.000    
         3      1473   F  0.350000       110.000       0.00000    
         3      1477   F  0.350000       110.000       180.000    
         3      1481   F  0.350000       110.000       0.00000    
         3      1485   F  0.350000       110.000       180.000    
         3      1489   F  0.350000       110.000       0.00000    
         3      1493   F  0.350000       110.000       180.000    
         3      1497   F  0.350000       110.000       0.00000    
         3      1501   F  0.350000       110.000       180.000    
         3      1505   F  0.350000       110.000       0.00000    
         3      1509   F  0.350000       110.000       180.000    
         3      1513   F  0.350000       110.000       0.00000    
         3      1517   F  0.350000       110.000       180.000    
         3      1521   F  0.350000       110.000       0.00000    
         3      1525   F  0.350000       110.000       180.000    
         3      1529   F  0.350000       110.000       0.00000    
         3      1533   F  0.350000       110.000       180.000    
         3      1537   F  0.350000       110.000       0.00000    
         3      1541   F  0.350000       110.000       180.000    
         3      1545   F  0.350000       110.000       0.00000    
         3      1549   F  0.350000       110.000       180.000    
         3      1553   F  0.350000       110.000       0.00000    
         3      1557   F  0.350000       110.000       180.000    
         3      1561   F  0.350000       110.000       0.00000    
         3      1565   F  0.350000       110.000       180.000    
         3      1569   F  0.350000       110.000       0.00000    
         3      1573   F  0.350000       110.000       180.000    
         3      1577   F  0.350000       110.000       0.00000    
         3      1581   F  0.350000       110.000       180.000    
         3      1585   F  0.350000       110.000       0.00000    
         3      1589   F  0.350000       110.000       180.000    
         3      1593   F  0.350000       110.000       0.00000    
         3      1597   F  0.350000       110.000       180.000    
         3      1601   F  0.350000       110.000       0.00000    
         3      1605   F  0.350000       110.000       180.000    
         3      1609   F  0.350000       110.000       0.00000    
         3      1613   F  0.350000       110.000       180.000    
         3      1617   F  0.350000       110.000       0.00000    
         3      1621   F  0.350000       110.000       180.000    
         3      1625   F  0.350000       110.000       0.00000    
         3      1629   F  0.350000       110.000       180.000    
         3      1633   F  0.350000       110.000       0.00000    
         3      1637   F  0.350000       110.000       180.000    
         3      1641   F  0.350000       110.000       0.00000    
         3      1645   F  0.350000       110.000       180.000    
         3      1649   F  0.350000       110.000       0.00000    
         3      1653   F  0.350000       110.000       180.000    
         3      1657   F  0.350000       110.000       0.00000    
         3      1661   F  0.350000       110.000       180.000    
         3      1665   F  0.350000       110.000       0.00000    
         3      1669   F  0.350000       110.000       180.000    
         3      1673   F  0.350000       110.000       0.00000    
         3      1677   F  0.350000       110.000       180.000    
         3      1681   F  0.350000       110.000       0.00000    
         3      1685   F  0.350000       110.000       180.000    
         3      1689   F  0.350000       110.000       0.00000    
         3      1693   F  0.350000       110.000       180.000    
         3      1697   F  0.350000       110.000       0.00000    
         3      1701   F  0.350000       110.000       180.000    
         3      1705   F  0.350000       110.000       0.00000    
         3      1709   F  0.350000       110.000       180.000    
         3      1713   F  0.350000       110.000       0.00000    
         3      1717   F  0.350000       110.000       180.000    
         3      1721   F  0.350000       110.000       0.00000    
         3      1725   F  0.350000       110.000       180.000    
         3      1729   F  0.350000       110.000       0.00000    
         3      1733   F  0.350000       110.000       180.000    
         3      1737   F  0.350000       110.000       0.00000    
         3      1741   F  0.350000       110.000       180.000    
         3      1745   F  0.350000       110.000       0.00000    
         3      1749   F  0.350000       110.000       180.000    
         3      1753   F  0.350000       110.000       0.00000    
         3      1757   F  0.350000       110.000       180.000    
         3      1761   F  0.350000       110.000       0.00000    
         3      1765   F  0.350000       110.000       180.000    
         3      1769   F  0.350000       110.000       0.00000    
         3      1773   F  0.350000       110.000       180.000    
         3      1777   F  0.350000       110.000       0.00000    
         3      1781   F  0.350000       110.000       180.000    
         3      1785   F  0.350000       110.000       0.00000    
         3      1789   F  0.350000       110.000       180.000    
         3      1793   F  0.350000       110.000       0.00000    
         3      1797   F  0.350000       110.000       180.000    
         3      1801   F  0.350000       110.000       0.00000    
         3      1805   F  0.350000       110.000       180.000    
         3      1809   F  0.350000       110.000       0.00000    
         3      1813   F  0.350000       110.000       180.000    
         3      1817   F  0.350000       110.000       0.00000    
         3      1821   F  0.350000       110.000       180.000    
         3      1825   F  0.350000       110.000       0.00000    
         3      1829   F  0.350000       110.000       180.000    
         3      1833   F  0.350000       110.000       0.00000    
         3      1837   F  0.350000       110.000       180.000    
         3      1841   F  0.350000       110.000       0.00000    
         3      1845   F  0.350000       110.000       180.000    
         3      1849   F  0.350000       110.000       0.00000    
         3      1853   F  0.350000       110.000       180.000    
         3      1857   F  0.350000       110.000       0.00000    
         3      1861   F  0.350000       110.000       180.000    
         3      1865   F  0.350000       110.000       0.00000    
         3      1869   F  0.350000       110.000       180.000    
         3      1873   F  0.350000       110.000       0.00000    
         3      1877   F  0.350000       110.000       180.000    
         3      1881   F  0.350000       110.000       0.00000    
         3      1885   F  0.350000       110.000       180.000    
         3      1889   F  0.350000       110.000       0.00000    
         3      1893   F  0.350000       110.000       180.000    
         3      1897   F  0.350000       110.000       0.00000    
         3      1901   F  0.350000       110.000       180.000    
         3      1905   F  0.350000       110.000       0.00000    
         3      1909   F  0.350000       110.000       180.000    
         3      1913   F  0.350000       110.000       0.00000    
         3      1917   F  0.350000       110.000       180.000    
         3      1921   F  0.350000       110.000       0.00000    
         3      1925   F  0.350000       110.000       180.000    
         3      1929   F  0.350000       110.000       0.00000    
         3      1933   F  0.350000       110.000       180.000    
         3      1937   F  0.350000       110.000       0.00000    
         3      1941   F  0.350000       110.000       180.000    
         3      1945   F  0.350000       110.000       0.00000    
         3      1949   F  0.350000       110.000       180.000    
         3      1953   F  0.350000       110.000       0.00000    
         3      1957   F  0.350000       110.000       180.000    
         3      1961   F  0.350000       110.000       0.00000    
         3      1965   F  0.350000       110.000       180.000    
         3      1969   F  0.350000       110.000       0.00000    
         3      1973   F  0.350000       110.000       180.000    
         3      1977   F  0.350000       110.000       0.00000    
         3      1981   F  0.350000       110.000       180.000    
         3      1985   F  0.350000       110.000       0.00000    
         3      1989   F  0.350000       110.000       180.000    
         3      1993   F  0.350000       110.000       0.00000    
         3      1997   F  0.350000       110.000       180.000    
         3      2001   F  0.350000       110.000       0.00000    
         3      2005   F  0.350000       110.000       180.000    
         3      2009   F  0.350000       110.000       0.00000    
         3      2013   F  0.350000       110.000       180.000    
         3      2017   F  0.350000       110.000       0.00000    
         3      2021   F  0.350000       110.000       180.000    
         3      2025   F  0.350000       110.000       0.00000    
         3      2029   F  0.350000       110.000       180.000    
         3      2033   F  0.350000       110.000       0.00000    
         3      2037   F  0.350000       110.000       180.000    
         3      2041   F  0.350000       110.000       0.00000    
         3      2045   F  0.350000       110.000       180.000    
         3      2049   F  0.350000       110.000       0.00000    
         3      2053   F  0.350000       110.000       180.000    
         3      2057   F  0.350000       110.000       0.00000    
         3      2061   F  0.350000       110.000       180.000    
         3      2065   F  0.350000       110.000       0.00000    
         3      2069   F  0.350000       110.000       180.000    
         3      2073   F  0.350000       110.000       0.00000    
         3      2077   F  0.350000       110.000       180.000    
         3      2081   F  0.350000       110.000       0.00000    
         3      2085   F  0.350000       110.000       180.000    
         3      2089   F  0.350000       110.000       0.00000    
         3      2093   F  0.350000       110.000       180.000    
         3      2097   F  0.350000       110.000       0.00000    
         3      2101   F  0.350000       110.000       180.000    
         3      2105   F  0.350000       110.000       0.00000    
         3      2109   F  0.350000       110.000       180.000    
         3      2113   F  0.350000       110.000       0.00000    
         3      2117   F  0.350000       110.000       180.000    
         3      2121   F  0.350000       110.000       0.00000    
         3      2125   F  0.350000       110.000       180.000    
         3      2129   F  0.350000       110.000       0.00000    
         3      2133   F  0.350000       110.000       180.000    
         3      2137   F  0.350000       110.000       0.00000    
         3      2141   F  0.350000       110.000       180.000    
         3      2145   F  0.350000       110.000       0.00000    
         3      2149   F  0.350000       110.000       180.000    
         3      2153   F  0.350000       110.000       0.00000    
         3      2157   F  0.350000       110.000       180.000    
         3      2161   F  0.350000       110.000       0.00000    
         3      2165   F  0.350000       110.000       180.000    
         3      2169   F  0.350000       110.000       0.00000    
         3      2173   F  0.350000       110.000       180.000    
         3      2177   F  0.350000       110.000       0.00000    
         3      2181   F  0.350000       110.000       180.000    
         3      2185   F  0.350000       110.000       0.00000    
         3      2189   F  0.350000       110.000       180.000    
         3      2193   F  0.350000       110.000       0.00000    
         3      2197   F  0.350000       110.000       180.000    
         3      2201   F  0.350000       110.000       0.00000    
         3      2205   F  0.350000       110.000       180.000    
         3      2209   F  0.350000       110.000       0.00000    
         3      2213   F  0.350000       110.000       180.000    
         3      2217   F  0.350000       110.000       0.00000    
         3      2221   F  0.350000       110.000       180.000    
         3      2225   F  0.350000       110.000       0.00000    
         3      2229   F  0.350000       110.000       180.000    
         3      2233   F  0.350000       110.000       0.00000    
         3      2237   F  0.350000       110.000       180.000    
         3      2241   F  0.350000       110.000       0.00000    
         3      2245   F  0.350000       110.000       180.000    
         3      2249   F  0.350000       110.000       0.00000    
         3      2253   F  0.350000       110.000       180.000    
         3      2257   F  0.350000       110.000       0.00000    
         3      2261   F  0.350000       110.000       180.000    
         3      2265   F  0.350000       110.000       0.00000    
         3      2269   F  0.350000       110.000       180.000    
         3      2273   F  0.350000       110.000       0.00000    
         3      2277   F  0.350000       110.000       180.000    
         3      2281   F  0.350000       110.000       0.00000    
         3      2285   F  0.350000       110.000       180.000    
         3      2289   F  0.350000       110.000       0.00000    
         3      2293   F  0.350000       110.000       180.000    
         3      2297   F  0.350000       110.000       0.00000    
         3      2301   F  0.350000       110.000       180.000    
         3      2305   F  0.350000       110.000       0.00000    
         3      2309   F  0.350000       110.000       180.000    
         3      2313   F  0.350000       110.000       0.00000    
         3      2317   F  0.350000       110.000       180.000    
         3      2321   F  0.350000       110.000       0.00000    
         3      2325   F  0.350000       110.000       180.000    
         3      2329   F  0.350000       110.000       0.00000    
         3      2333   F  0.350000       110.000       180.000    
         3      2337   F  0.350000       110.000       0.00000    
         3      2341   F  0.350000       110.000       180.000    
         3      2345   F  0.350000       110.000       0.00000    
         3      2349   F  0.350000       110.000       180.000    
         3      2353   F  0.350000       110.000       0.00000    
         3      2357   F  0.350000       110.000       180.000    
         3      2361   F  0.350000       110.000       0.00000    
         3      2365   F  0.350000       110.000       180.000    
         3      2369   F  0.350000       110.000       0.00000    
         3      2373   F  0.350000       110.000       180.000    
         3      2377   F  0.350000       110.000       0.00000    
         3      2381   F  0.350000       110.000       180.000    
         3      2385   F  0.350000       110.000       0.00000    
         3      2389   F  0.350000       110.000       180.000    
         3      2393   F  0.350000       110.000       0.00000    
         3      2397   F  0.350000       110.000       180.000    
        10         3         1         5        11         3         1         5
        21        14        12        16        22        14        12        16
        32        25        23        27        33        25        23        27
        43        36        34        38        44        36        34        38
        54        47        45        49        55        47        45        49
        65        58        56        60        66        58        56        60
        76        69        67        71        77        69        67        71
        87        80        78        82        88        80        78        82
        98        91        89        93        99        91        89        93
       109       102       100       104       110       102       100       104
       120       113       111       115       121       113       111       115
       131       124       122       126       132       124       122       126
       142       135       133       137       143       135       133       137
       153       146       144       148       154       146       144       148
       164       157       155       159       165       157       155       159
       175       168       166       170       176       168       166       170
       186       179       177       181       187       179       177       181
       197       190       188       192       198       190       188       192
       208       201       199       203       209       201       199       203
       219       212       210       214       220       212       210       214
       230       223       221       225       231       223       221       225
       241       234       232       236       242       234       232       236
       252       245       243       247       253       245       243       247
       263       256       254       258       264       256       254       258
       274       267       265       269       275       267       265       269
       285       278       276       280       286       278       276       280
       296       289       287       291       297       289       287       291
       307       300       298       302       308       300       298       302
       318       311       309       313       319       311       309       313
       329       322       320       324       330       322       320       324
       340       333       331       335       341       333       331       335
       351       344       342       346       352       344       342       346
       362       355       353       357       363       355       353       357
       373       366       364       368       374       366       364       368
       384       377       375       379       385       377       375       379
       395       388       386       390       396       388       386       390
       406       399       397       401       407       399       397       401
       417       410       408       412       418       410       408       412
       428       421       419       423       429       421       419       423
       439       432       430       434       440       432       430       434
       450       443       441       445       451       443       441       445
       461       454       452       456       462       454       452       456
       472       465       463       467       473       465       463       467
       483       476       474       478       484       476       474       478
       494       487       485       489       495       487       485       489
       505       498       496       500       506       498       496       500
       516       509       507       511       517       509       507       511
       527       520       518       522       528       520       518       522
       538       531       529       533       539       531       529       533
       549       542       540       544       550       542       540       544
       560       553       551       555       561       553       551       555
       571       564       562       566       572       564       562       566
       582       575       573       577       583       575       573       577
       593       586       584       588       594       586       584       588
       604       597       595       599       605       597       595       599
       615       608       606       610       616       608       606       610
       626       619       617       621       627       619       617       621
       637       630       628       632       638       630       628       632
       648       641       639       643       649       641       639       643
       659       652       650       654       660       652       650       654
       670       663       661       665       671       663       661       665
       681       674       672       676       682       674       672       676
       692       685       683       687       693       685       683       687
       703       696       694       698       704       696       694       698
       714       707       705       709       715       707       705       709
       725       718       716       720       726       718       716       720
       736       729       727       731       737       729       727       731
       747       740       738       742       748       740       738       742
       758       751       749       753       759       751       749       753
       769       762       760       764       770       762       760       764
       780       773       771       775       781       773       771       775
       791       784       782       786       792       784       782       786
       802       795       793       797       803       795       793       797
       813       806       804       808       814       806       804       808
       824       817       815       819       825       817       815       819
       835       828       826       830       836       828       826       830
       846       839       837       841       847       839       837       841
       857       850       848       852       858       850       848       852
       868       861       859       863       869       861       859       863
       879       872       870       874       880       872       870       874
       890       883       881       885       891       883       881       885
       901       894       892       896       902       894       892       896
       912       905       903       907       913       905       903       907
       923       916       914       918       924       916       914       918
       934       927       925       929       935       927       925       929
       945       938       936       940       946       938       936       940
       956       949       947       951       957       949       947       951
       967       960       958       962       968       960       958       962
       978       971       969       973       979       971       969       973
       989       982       980       984       990       982       980       984
      1000       993       991       995      1001       993       991       995
      1011      1004      1002      1006      1012      1004      1002      1006
      1022      1015      1013      1017      1023      1015      1013      1017
      1033      1026      1024      1028      1034      1026      1024      1028
      1044      1037      1035      1039      1045      1037      1035      1039
      1055      1048      1046      1050      1056      1048      1046      1050
      1066      1059      1057      1061      1067      1059      1057      1061
      1077      1070      1068      1072      1078      1070      1068      1072
      1088      1081      1079      1083      1089      1081      1079      1083
      1099      1092      1090      1094      1100      1092      1090      1094
      1113      1108      1101      1103      1114      1108      1101      1103
      1115      1110      1101      1103      1116      1110      1101      1103
      1129      1124      1117      1119      1130      1124      1117      1119
      1131      1126      1117      1119      1132      1126      1117      1119
      1145      1140      1133      1135      1146      1140      1133      1135
      1147      1142      1133      1135      1148      1142      1133      1135
      1161      1156      1149      1151      1162      1156      1149      1151
      1163      1158      1149      1151      1164      1158      1149      1151
      1177      1172      1165      1167      1178      1172      1165      1167
      1179      1174      1165      1167      1180      1174      1165      1167
      1193      1188      1181      1183      1194      1188      1181      1183
      1195      1190      1181      1183      1196      1190      1181      1183
      1209      1204      1197      1199      1210      1204      1197      1199
      1211      1206      1197      1199      1212      1206      1197      1199
      1225      1220      1213      1215      1226      1220      1213      1215
      1227      1222      1213      1215      1228      1222      1213      1215
      1241      1236      1229      1231      1242      1236      1229      1231
      1243      1238      1229      1231      1244      1238      1229      1231
      1257      1252      1245      1247      1258      1252      1245      1247
      1259      1254      1245      1247      1260      1254      1245      1247
      1273      1268      1261      1263      1274      1268      1261      1263
      1275      1270      1261      1263      1276      1270      1261      1263
      1289      1284      1277      1279      1290      1284      1277      1279
      1291      1286      1277      1279      1292      1286      1277      1279
      1305      1300      1293      1295      1306      1300      1293      1295
      1307      1302      1293      1295      1308      1302      1293      1295
      1321      1316      1309      1311      1322      1316      1309      1311
      1323      1318      1309      1311      1324      1318      1309      1311
      1337      1332      1325      1327      1338      1332      1325      1327
      1339      1334      1325      1327      1340      1334      1325      1327
      1353      1348      1341      1343      1354      1348      1341      1343
      1355      1350      1341      1343      1356      1350      1341      1343
      1369      1364      1357      1359      1370      1364      1357      1359
      1371      1366      1357      1359      1372      1366      1357      1359
      1385      1380      1373      1375      1386      1380      1373      1375
      1387      1382      1373      1375      1388      1382      1373      1375
      1401      1396      1389      1391      1402      1396      1389      1391
      1403      1398      1389      1391      1404      1398      1389      1391
      1417      1412      1405      1407      1418      1412      1405      1407
      1419      1414      1405      1407      1420      1414      1405      1407
      1433      1428      1421      1423      1434      1428      1421      1423
      1435      1430      1421      1423      1436      1430      1421      1423
      1449      1444      1437      1439      1450      1444      1437      1439
      1451      1446      1437      1439      1452      1446      1437      1439
      1465      1460      1453      1455      1466      1460      1453      1455
      1467      1462      1453      1455      1468      1462      1453      1455
      1481      1476      1469      1471      1482      1476      1469      1471
      1483      1478      1469      1471      1484      1478      1469      1471
      1497      1492      1485      1487      1498      1492      1485      1487
      1499      1494      1485      1487      1500      1494      1485      1487
      1513      1508      1501      1503      1514      1508      1501      1503
      1515      1510      1501      1503      1516      1510      1501      1503
      1529      1524      1517      1519      1530      1524      1517      1519
      1531      1526      1517      1519      1532      1526      1517      1519
      1545      1540      1533      1535      1546      1540      1533      1535
      1547      1542      1533      1535      1548      1542      1533      1535
      1561      1556      1549      1551      1562      1556      1549      1551
      1563      1558      1549      1551      1564      1558      1549      1551
      1577      1572      1565      1567      1578      1572      1565      1567
      1579      1574      1565      1567      1580      1574      1565      1567
      1593      1588      1581      1583      1594      1588      1581      1583
      1595      1590      1581      1583      1596      1590      1581      1583
      1609      1604      1597      1599      1610      1604      1597      1599
      1611      1606      1597      1599      1612      1606      1597      1599
      1625      1620      1613      1615      1626      1620      1613      1615
      1627      1622      1613      1615      1628      1622      1613      1615
      1641      1636      1629      1631      1642      1636      1629      1631
      1643      1638      1629      1631      1644      1638      1629      1631
      1657      1652      1645      1647      1658      1652      1645      1647
      1659      1654      1645      1647      1660      1654      1645      1647
      1673      1668      1661      1663      1674      1668      1661      1663
      1675      1670      1661      1663      1676      1670      1661      1663
      1689      1684      1677      1679      1690      1684      1677      1679
      1691      1686      1677      1679      1692      1686      1677      1679
      1705      1700      1693      1695      1706      1700      1693      1695
      1707      1702      1693      1695      1708      1702      1693      1695
      1721      1716      1709      1711      1722      1716      1709      1711
      1723      1718      1709      1711      1724      1718      1709      1711
      1737      1732      1725      1727      1738      1732      1725      1727
      1739      1734      1725      1727      1740      1734      1725      1727
      1753      1748      1741      1743      1754      1748      1741      1743
      1755      1750      1741      1743      1756      1750      1741      1743
      1769      1764      1757      1759      1770      1764      1757      1759
      1771      1766      1757      1759      1772      1766      1757      1759
      1785      1780      1773      1775      1786      1780      1773      1775
      1787      1782      1773      1775      1788      1782      1773      1775
      1801      1796      1789      1791      1802      1796      1789      1791
      1803      1798      1789      1791      1804      1798      1789      1791
      1817      1812      1805      1807      1818      1812      1805      1807
      1819      1814      1805      1807      1820      1814      1805      1807
      1833      1828      1821      1823      1834      1828      1821      1823
      1835      1830      1821      1823      1836      1830      1821      1823
      1849      1844      1837      1839      1850      1844      1837      1839
      1851      1846      1837      1839      1852      1846      1837      1839
      1865      1860      1853      1855      1866      1860      1853      1855
      1867      1862      1853      1855      1868      1862      1853      1855
      1881      1876      1869      1871      1882      1876      1869      1871
      1883      1878      1869      1871      1884      1878      1869      1871
      1897      1892      1885      1887      1898      1892      1885      1887
      1899      1894      1885      1887      1900      1894      1885      1887
      1913      1908      1901      1903      1914      1908      1901      1903
      1915      1910      1901      1903      1916      1910      1901      1903
      1929      1924      1917      1919      1930      1924      1917      1919
      1931      1926      1917      1919      1932      1926      1917      1919
      1945      1940      1933      1935      1946      1940      1933      1935
      1947      1942      1933      1935      1948      1942      1933      1935
      1961      1956      1949      1951      1962      1956      1949      1951
      1963      1958      1949      1951      1964      1958      1949      1951
      1977      1972      1965      1967      1978      1972      1965      1967
      1979      1974      1965      1967      1980      1974      1965      1967
      1993      1988      1981      1983      1994      1988      1981      1983
      1995      1990      1981      1983      1996      1990      1981      1983
      2009      2004      1997      1999      2010      2004      1997      1999
      2011      2006      1997      1999      2012      2006      1997      1999
      2025      2020      2013      2015      2026      2020      2013      2015
      2027      2022      2013      2015      2028      2022      2013      2015
      2041      2036      2029      2031      2042      2036      2029      2031
      2043      2038      2029      2031      2044      2038      2029      2031
      2057      2052      2045      2047      2058      2052      2045      2047
      2059      2054      2045      2047      2060      2054      2045      2047
      2073      2068      2061      2063      2074      2068      2061      2063
      2075      2070      2061      2063      2076      2070      2061      2063
      2089      2084      2077      2079      2090      2084      2077      2079
      2091      2086      2077      2079      2092      2086      2077      2079
      2105      2100      2093      2095      2106      2100      2093      2095
      2107      2102      2093      2095      2108      2102      2093      2095
      2121      2116      2109      2111      2122      2116      2109      2111
      2123      2118      2109      2111      2124      2118      2109      2111
      2137      2132      2125      2127      2138      2132      2125      2127
      2139      2134      2125      2127      2140      2134      2125      2127
      2153      2148      2141      2143      2154      2148      2141      2143
      2155      2150      2141      2143      2156      2150      2141      2143
      2169      2164      2157      2159      2170      2164      2157      2159
      2171      2166      2157      2159      2172      2166      2157      2159
      2185      2180      2173      2175      2186      2180      2173      2175
      2187      2182      2173      2175      2188      2182      2173      2175
      2201      2196      2189      2191      2202      2196      2189      2191
      2203      2198      2189      2191      2204      2198      2189      2191
      2217      2212      2205      2207      2218      2212      2205      2207
      2219      2214      2205      2207      2220      2214      2205      2207
      2233      2228      2221      2223      2234      2228      2221      2223
      2235      2230      2221      2223      2236      2230      2221      2223
      2249      2244      2237      2239      2250      2244      2237      2239
      2251      2246      2237      2239      2252      2246      2237      2239
      2265      2260      2253      2255      2266      2260      2253      2255
      2267      2262      2253      2255      2268      2262      2253      2255
      2281      2276      2269      2271      2282      2276      2269      2271
      2283      2278      2269      2271      2284      2278      2269      2271
      2297      2292      2285      2287      2298      2292      2285      2287
      2299      2294      2285      2287      2300      2294      2285      2287
      2313      2308      2301      2303      2314      2308      2301      2303
      2315      2310      2301      2303      2316      2310      2301      2303
      2329      2324      2317      2319      2330      2324      2317      2319
      2331      2326      2317      2319      2332      2326      2317      2319
      2345      2340      2333      2335      2346      2340      2333      2335
      2347      2342      2333      2335      2348      2342      2333      2335
      2361      2356      2349      2351      2362      2356      2349      2351
      2363      2358      2349      2351      2364      2358      2349      2351
      2377      2372      2365      2367      2378      2372      2365      2367
      2379      2374      2365      2367      2380      2374      2365      2367
      2393      2388      2381      2383      2394      2388      2381      2383
      2395      2390      2381      2383      2396      2390      2381      2383
      2409      2404      2397      2399      2410      2404      2397      2399
      2411      2406      2397      2399      2412      2406      2397      2399
      2425      2420      2413      2415      2426      2420      2413      2415
      2427      2422      2413      2415      2428      2422      2413      2415
      2441      2436      2429      2431      2442      2436      2429      2431
      2443      2438      2429      2431      2444      2438      2429      2431
      2457      2452      2445      2447      2458      2452      2445      2447
      2459      2454      2445      2447      2460      2454      2445      2447
      2473      2468      2461      2463      2474      2468      2461      2463
      2475      2470      2461      2463      2476      2470      2461      2463
      2489      2484      2477      2479      2490      2484      2477      2479
      2491      2486      2477      2479      2492      2486      2477      2479
      2505      2500      2493      2495      2506      2500      2493      2495
      2507      2502      2493      2495      2508      2502      2493      2495
      2521      2516      2509      2511      2522      2516      2509      2511
      2523      2518      2509      2511      2524      2518      2509      2511
      2537      2532      2525      2527      2538      2532      2525      2527
      2539      2534      2525      2527      2540      2534      2525      2527
      2553      2548      2541      2543      2554      2548      2541      2543
      2555      2550      2541      2543      2556      2550      2541      2543
      2569      2564      2557      2559      2570      2564      2557      2559
      2571      2566      2557      2559      2572      2566      2557      2559
      2585      2580      2573      2575      2586      2580      2573      2575
      2587      2582      2573      2575      2588      2582      2573      2575
      2601      2596      2589      2591      2602      2596      2589      2591
      2603      2598      2589      2591      2604      2598      2589      2591
      2617      2612      2605      2607      2618      2612      2605      2607
      2619      2614      2605      2607      2620      2614      2605      2607
      2633      2628      2621      2623      2634      2628      2621      2623
      2635      2630      2621      2623      2636      2630      2621      2623
      2649      2644      2637      2639      2650      2644      2637      2639
      2651      2646      2637      2639      2652      2646      2637      2639
      2665      2660      2653      2655      2666      2660      2653      2655
      2667      2662      2653      2655      2668      2662      2653      2655
      2681      2676      2669      2671      2682      2676      2669      2671
      2683      2678      2669      2671      2684      2678      2669      2671
      2697      2692      2685      2687      2698      2692      2685      2687
      2699      2694      2685      2687      2700      2694      2685      2687

       300 !NUMANISO
             205.601      -205.516       27.7492    
             205.601      -205.516       27.7492    
             205.601      -205.516       27.7492    
             205.601      -205.516       27.7492    
             205.601      -205.516       27.7492    
             205.601      -205.516       27.7492    
             205.601      -205.516       27.7492    
             205.601      -205.516       27.7492    
             205.601      -205.516       27.7492    
             205.601      -205.516       27.7492    
             205.601      -205.516       27.7492    
             205.601      -205.516       27.7492    
             205.601      -205.516       27.7492    
             205.601      -205.516       27.7492    
             205.601      -205.516       27.7492    
             205.601      -205.516       27.7492    
             205.601      -205.516       27.7492    
             205.601      -205.516       27.7492    
             205.601      -205.516       27.7492    
             205.601      -205.516       27.7492    
             205.601      -205.516       27.7492    
             205.601      -205.516       27.7492    
             205.601      -205.516       27.7492    
             205.601      -205.516       27.7492    
             205.601      -205.516       27.7492    
             205.601      -205.516       27.7492    
             205.601      -205.516       27.7492    
             205.601      -205.516       27.7492    
             205.601      -205.516       27.7492    
             205.601      -205.516       27.7492    
             205.601      -205.516       27.7492    
             205.601      -205.516       27.7492    
             205.601      -205.516       27.7492    
             205.601      -205.516       27.7492    
             205.601      -205.516       27.7492    
             205.601      -205.516       27.7492    
             205.601      -205.516       27.7492    
             205.601      -205.516       27.7492    
             205.601      -205.516       27.7492    
             205.601      -205.516       27.7492    
             205.601      -205.516       27.7492    
             205.601      -205.516       27.7492    
             205.601      -205.516       27.7492    
             205.601      -205.516       27.7492    
             205.601      -205.516       27.7492    
             205.601      -205.516       27.7492    
             205.601      -205.516       27.7492    
             205.601      -205.516       27.7492    
             205.601      -205.516       27.7492    
             205.601      -205.516       27.7492    
             205.601      -205.516       27.7492    
             205.601      -205.516       27.7492    
             205.601      -205.516       27.7492    
             205.601      -205.516       27.7492    
             205.601      -205.516       27.7492    
             205.601      -205.516       27.7492    
             205.601      -205.516       27.7492    
             205.601      -205.516       27.7492    
             205.601      -205.516       27.7492    
             205.601      -205.516       27.7492    
             205.601      -205.516       27.7492    
             205.601      -205.516       27.7492    
             205.601      -205.516       27.7492    
             205.601      -205.516       27.7492    
             205.601      -205.516       27.7492    
             205.601      -205.516       27.7492    
             205.601      -205.516       27.7492    
             205.601      -205.516       27.7492    
             205.601      -205.516       27.7492    
             205.601      -205.516       27.7492    
             205.601      -205.516       27.7492    
             205.601      -205.516       27.7492    
             205.601      -205.516       27.7492    
             205.601      -205.516       27.7492    
             205.601      -205.516       27.7492    
             205.601      -205.516       27.7492    
             205.601      -205.516       27.7492    
             205.601      -205.516       27.7492    
             205.601      -205.516       27.7492    
             205.601      -205.516       27.7492    
             205.601      -205.516       27.7492    
             205.601      -205.516       27.7492    
             205.601      -205.516       27.7492    
             205.601      -205.516       27.7492    
             205.601      -205.516       27.7492    
             205.601      -205.516       27.7492    
             205.601      -205.516       27.7492    
             205.601      -205.516       27.7492    
             205.601      -205.516       27.7492    
             205.601      -205.516       27.7492    
             205.601      -205.516       27.7492    
             205.601      -205.516       27.7492    
             205.601      -205.516       27.7492    
             205.601      -205.516       27.7492    
             205.601      -205.516       27.7492    
             205.601      -205.516       27.7492    
             205.601      -205.516       27.7492    
             205.601      -205.516       27.7492    
             205.601      -205.516       27.7492    
             205.601      -205.516       27.7492    
             395.273      -197.531      -11.9553    
             395.273      -197.531      -11.9553    
             395.273      -197.531      -11.9553    
             395.273      -197.531      -11.9553    
             395.273      -197.531      -11.9553    
             395.273      -197.531      -11.9553    
             395.273      -197.531      -11.9553    
             395.273      -197.531      -11.9553    
             395.273      -197.531      -11.9553    
             395.273      -197.531      -11.9553    
             395.273      -197.531      -11.9553    
             395.273      -197.531      -11.9553    
             395.273      -197.531      -11.9553    
             395.273      -197.531      -11.9553    
             395.273      -197.531      -11.9553    
             395.273      -197.531      -11.9553    
             395.273      -197.531      -11.9553    
             395.273      -197.531      -11.9553    
             395.273      -197.531      -11.9553    
             395.273      -197.531      -11.9553    
             395.273      -197.531      -11.9553    
             395.273      -197.531      -11.9553    
             395.273      -197.531      -11.9553    
             395.273      -197.531      -11.9553    
             395.273      -197.531      -11.9553    
             395.273      -197.531      -11.9553    
             395.273      -197.531      -11.9553    
             395.273      -197.531      -11.9553    
             395.273      -197.531      -11.9553    
             395.273      -197.531      -11.9553    
             395.273      -197.531      -11.9553    
             395.273      -197.531      -11.9553    
             395.273      -197.531      -11.9553    
             395.273      -197.531      -11.9553    
             395.273      -197.531      -11.9553    
             395.273      -197.531      -11.9553    
             395.273      -197.531      -11.9553    
             395.273      -197.531      -11.9553    
             395.273      -197.531      -11.9553    
             395.273      -197.531      -11.9553    
             395.273      -197.531      -11.9553    
             395.273      -197.531      -11.9553    
             395.273      -197.531      -11.9553    
             395.273      -197.531      -11.9553    
             395.273      -197.531      -11.9553    
             395.273      -197.531      -11.9553    
             395.273      -197.531      -11.9553    
             395.273      -197.531      -11.9553    
             395.273      -197.531      -11.9553    
             395.273      -197.531      -11.9553    
             395.273      -197.531      -11.9553    
             395.273      -197.531      -11.9553    
             395.273      -197.531      -11.9553    
             395.273      -197.531      -11.9553    
             395.273      -197.531      -11.9553    
             395.273      -197.531      -11.9553    
             395.273      -197.531      -11.9553    
             395.273      -197.531      -11.9553    
             395.273      -197.531      -11.9553    
             395.273      -197.531      -11.9553    
             395.273      -197.531      -11.9553    
             395.273      -197.531      -11.9553    
             395.273      -197.531      -11.9553    
             395.273      -197.531      -11.9553    
             395.273      -197.531      -11.9553    
             395.273      -197.531      -11.9553    
             395.273      -197.531      -11.9553    
             395.273      -197.531      -11.9553    
             395.273      -197.531      -11.9553    
             395.273      -197.531      -11.9553    
             395.273      -197.531      -11.9553    
             395.273      -197.531      -11.9553    
             395.273      -197.531      -11.9553    
             395.273      -197.531      -11.9553    
             395.273      -197.531      -11.9553    
             395.273      -197.531      -11.9553    
             395.273      -197.531      -11.9553    
             395.273      -197.531      -11.9553    
             395.273      -197.531      -11.9553    
             395.273      -197.531      -11.9553    
             395.273      -197.531      -11.9553    
             395.273      -197.531      -11.9553    
             395.273      -197.531      -11.9553    
             395.273      -197.531      -11.9553    
             395.273      -197.531      -11.9553    
             395.273      -197.531      -11.9553    
             395.273      -197.531      -11.9553    
             395.273      -197.531      -11.9553    
             395.273      -197.531      -11.9553    
             395.273      -197.531      -11.9553    
             395.273      -197.531      -11.9553    
             395.273      -197.531      -11.9553    
             395.273      -197.531      -11.9553    
             395.273      -197.531      -11.9553    
             395.273      -197.531      -11.9553    
             395.273      -197.531      -11.9553    
             395.273      -197.531      -11.9553    
             395.273      -197.531      -11.9553    
             395.273      -197.531      -11.9553    
             395.273      -197.531      -11.9553    
             395.273      -197.531      -11.9553    
             395.273      -197.531      -11.9553    
             395.273      -197.531      -11.9553    
             395.273      -197.531      -11.9553    
             395.273      -197.531      -11.9553    
             395.273      -197.531      -11.9553    
             395.273      -197.531      -11.9553    
             395.273      -197.531      -11.9553    
             395.273      -197.531      -11.9553    
             395.273      -197.531      -11.9553    
             395.273      -197.531      -11.9553    
             395.273      -197.531      -11.9553    
             395.273      -197.531      -11.9553    
             395.273      -197.531      -11.9553    
             395.273      -197.531      -11.9553    
             395.273      -197.531      -11.9553    
             395.273      -197.531      -11.9553    
             395.273      -197.531      -11.9553    
             395.273      -197.531      -11.9553    
             395.273      -197.531      -11.9553    
             395.273      -197.531      -11.9553    
             395.273      -197.531      -11.9553    
             395.273      -197.531      -11.9553    
             395.273      -197.531      -11.9553    
             395.273      -197.531      -11.9553    
             395.273      -197.531      -11.9553    
             395.273      -197.531      -11.9553    
             395.273      -197.531      -11.9553    
             395.273      -197.531      -11.9553    
             395.273      -197.531      -11.9553    
             395.273      -197.531      -11.9553    
             395.273      -197.531      -11.9553    
             395.273      -197.531      -11.9553    
             395.273      -197.531      -11.9553    
             395.273      -197.531      -11.9553    
             395.273      -197.531      -11.9553    
             395.273      -197.531      -11.9553    
             395.273      -197.531      -11.9553    
             395.273      -197.531      -11.9553    
             395.273      -197.531      -11.9553    
             395.273      -197.531      -11.9553    
             395.273      -197.531      -11.9553    
             395.273      -197.531      -11.9553    
             395.273      -197.531      -11.9553    
             395.273      -197.531      -11.9553    
             395.273      -197.531      -11.9553    
             395.273      -197.531      -11.9553    
             395.273      -197.531      -11.9553    
             395.273      -197.531      -11.9553    
             395.273      -197.531      -11.9553    
             395.273      -197.531      -11.9553    
             395.273      -197.531      -11.9553    
             395.273      -197.531      -11.9553    
             395.273      -197.531      -11.9553    
             395.273      -197.531      -11.9553    
             395.273      -197.531      -11.9553    
             395.273      -197.531      -11.9553    
             395.273      -197.531      -11.9553    
             395.273      -197.531      -11.9553    
             395.273      -197.531      -11.9553    
             395.273      -197.531      -11.9553    
             395.273      -197.531      -11.9553    
             395.273      -197.531      -11.9553    
             395.273      -197.531      -11.9553    
             395.273      -197.531      -11.9553    
             395.273      -197.531      -11.9553    
             395.273      -197.531      -11.9553    
             395.273      -197.531      -11.9553    
             395.273      -197.531      -11.9553    
             395.273      -197.531      -11.9553    
             395.273      -197.531      -11.9553    
             395.273      -197.531      -11.9553    
             395.273      -197.531      -11.9553    
             395.273      -197.531      -11.9553    
             395.273      -197.531      -11.9553    
             395.273      -197.531      -11.9553    
             395.273      -197.531      -11.9553    
             395.273      -197.531      -11.9553    
             395.273      -197.531      -11.9553    
             395.273      -197.531      -11.9553    
             395.273      -197.531      -11.9553    
             395.273      -197.531      -11.9553    
             395.273      -197.531      -11.9553    
             395.273      -197.531      -11.9553    
             395.273      -197.531      -11.9553    
             395.273      -197.531      -11.9553    
             395.273      -197.531      -11.9553    
             395.273      -197.531      -11.9553    
             395.273      -197.531      -11.9553    
             395.273      -197.531      -11.9553    
             395.273      -197.531      -11.9553    
             395.273      -197.531      -11.9553    
             395.273      -197.531      -11.9553    
             395.273      -197.531      -11.9553    
             395.273      -197.531      -11.9553    
             395.273      -197.531      -11.9553    
             395.273      -197.531      -11.9553    
             395.273      -197.531      -11.9553    
             395.273      -197.531      -11.9553    
             395.273      -197.531      -11.9553    
         3         1        10        11        14        12        21        22
        25        23        32        33        36        34        43        44
        47        45        54        55        58        56        65        66
        69        67        76        77        80        78        87        88
        91        89        98        99       102       100       109       110
       113       111       120       121       124       122       131       132
       135       133       142       143       146       144       153       154
       157       155       164       165       168       166       175       176
       179       177       186       187       190       188       197       198
       201       199       208       209       212       210       219       220
       223       221       230       231       234       232       241       242
       245       243       252       253       256       254       263       264
       267       265       274       275       278       276       285       286
       289       287       296       297       300       298       307       308
       311       309       318       319       322       320       329       330
       333       331       340       341       344       342       351       352
       355       353       362       363       366       364       373       374
       377       375       384       385       388       386       395       396
       399       397       406       407       410       408       417       418
       421       419       428       429       432       430       439       440
       443       441       450       451       454       452       461       462
       465       463       472       473       476       474       483       484
       487       485       494       495       498       496       505       506
       509       507       516       517       520       518       527       528
       531       529       538       539       542       540       549       550
       553       551       560       561       564       562       571       572
       575       573       582       583       586       584       593       594
       597       595       604       605       608       606       615       616
       619       617       626       627       630       628       637       638
       641       639       648       649       652       650       659       660
       663       661       670       671       674       672       681       682
       685       683       692       693       696       694       703       704
       707       705       714       715       718       716       725       726
       729       727       736       737       740       738       747       748
       751       749       758       759       762       760       769       770
       773       771       780       781       784       782       791       792
       795       793       802       803       806       804       813       814
       817       815       824       825       828       826       835       836
       839       837       846       847       850       848       857       858
       861       859       868       869       872       870       879       880
       883       881       890       891       894       892       901       902
       905       903       912       913       916       914       923       924
       927       925       934       935       938       936       945       946
       949       947       956       957       960       958       967       968
       971       969       978       979       982       980       989       990
       993       991      1000      1001      1004      1002      1011      1012
      1015      1013      1022      1023      1026      1024      1033      1034
      1037      1035      1044      1045      1048      1046      1055      1056
      1059      1057      1066      1067      1070      1068      1077      1078
      1081      1079      1088      1089      1092      1090      1099      1100
      1108      1101      1113      1114      1110      1101      1115      1116
      1124      1117      1129      1130      1126      1117      1131      1132
      1140      1133      1145      1146      1142      1133      1147      1148
      1156      1149      1161      1162      1158      1149      1163      1164
      1172      1165      1177      1178      1174      1165      1179      1180
      1188      1181      1193      1194      1190      1181      1195      1196
      1204      1197      1209      1210      1206      1197      1211      1212
      1220      1213      1225      1226      1222      1213      1227      1228
      1236      1229      1241      1242      1238      1229      1243      1244
      1252      1245      1257      1258      1254      1245      1259      1260
      1268      1261      1273      1274      1270      1261      1275      1276
      1284      1277      1289      1290      1286      1277      1291      1292
      1300      1293      1305      1306      1302      1293      1307      1308
      1316      1309      1321      1322      1318      1309      1323      1324
      1332      1325      1337      1338      1334      1325      1339      1340
      1348      1341      1353      1354      1350      1341      1355      1356
      1364      1357      1369      1370      1366      1357      1371      1372
      1380      1373      1385      1386      1382      1373      1387      1388
      1396      1389      1401      1402      1398      1389      1403      1404
      1412      1405      1417      1418      1414      1405      1419      1420
      1428      1421      1433      1434      1430      1421      1435      1436
      1444      1437      1449      1450      1446      1437      1451      1452
      1460      1453      1465      1466      1462      1453      1467      1468
      1476      1469      1481      1482      1478      1469      1483      1484
      1492      1485      1497      1498      1494      1485      1499      1500
      1508      1501      1513      1514      1510      1501      1515      1516
      1524      1517      1529      1530      1526      1517      1531      1532
      1540      1533      1545      1546      1542      1533      1547      1548
      1556      1549      1561      1562      1558      1549      1563      1564
      1572      1565      1577      1578      1574      1565      1579      1580
      1588      1581      1593      1594      1590      1581      1595      1596
      1604      1597      1609      1610      1606      1597      1611      1612
      1620      1613      1625      1626      1622      1613      1627      1628
      1636      1629      1641      1642      1638      1629      1643      1644
      1652      1645      1657      1658      1654      1645      1659      1660
      1668      1661      1673      1674      1670      1661      1675      1676
      1684      1677      1689      1690      1686      1677      1691      1692
      1700      1693      1705      1706      1702      1693      1707      1708
      1716      1709      1721      1722      1718      1709      1723      1724
      1732      1725      1737      1738      1734      1725      1739      1740
      1748      1741      1753      1754      1750      1741      1755      1756
      1764      1757      1769      1770      1766      1757      1771      1772
      1780      1773      1785      1786      1782      1773      1787      1788
      1796      1789      1801      1802      1798      1789      1803      1804
      1812      1805      1817      1818      1814      1805      1819      1820
      1828      1821      1833      1834      1830      1821      1835      1836
      1844      1837      1849      1850      1846      1837      1851      1852
      1860      1853      1865      1866      1862      1853      1867      1868
      1876      1869      1881      1882      1878      1869      1883      1884
      1892      1885      1897      1898      1894      1885      1899      1900
      1908      1901      1913      1914      1910      1901      1915      1916
      1924      1917      1929      1930      1926      1917      1931      1932
      1940      1933      1945      1946      1942      1933      1947      1948
      1956      1949      1961      1962      1958      1949      1963      1964
      1972      1965      1977      1978      1974      1965      1979      1980
      1988      1981      1993      1994      1990      1981      1995      1996
      2004      1997      2009      2010      2006      1997      2011      2012
      2020      2013      2025      2026      2022      2013      2027      2028
      2036      2029      2041      2042      2038      2029      2043      2044
      2052      2045      2057      2058      2054      2045      2059      2060
      2068      2061      2073      2074      2070      2061      2075      2076
      2084      2077      2089      2090      2086      2077      2091      2092
      2100      2093      2105      2106      2102      2093      2107      2108
      2116      2109      2121      2122      2118      2109      2123      2124
      2132      2125      2137      2138      2134      2125      2139      2140
      2148      2141      2153      2154      2150      2141      2155      2156
      2164      2157      2169      2170      2166      2157      2171      2172
      2180      2173      2185      2186      2182      2173      2187      2188
      2196      2189      2201      2202      2198      2189      2203      2204
      2212      2205      2217      2218      2214      2205      2219      2220
      2228      2221      2233      2234      2230      2221      2235      2236
      2244      2237      2249      2250      2246      2237      2251      2252
      2260      2253      2265      2266      2262      2253      2267      2268
      2276      2269      2281      2282      2278      2269      2283      2284
      2292      2285      2297      2298      2294      2285      2299      2300
      2308      2301      2313      2314      2310      2301      2315      2316
      2324      2317      2329      2330      2326      2317      2331      2332
      2340      2333      2345      2346      2342      2333      2347      2348
      2356      2349      2361      2362      2358      2349      2363      2364
      2372      2365      2377      2378      2374      2365      2379      2380
      2388      2381      2393      2394      2390      2381      2395      2396
      2404      2397      2409      2410      2406      2397      2411      2412
      2420      2413      2425      2426      2422      2413      2427      2428
      2436      2429      2441      2442      2438      2429      2443      2444
      2452      2445      2457      2458      2454      2445      2459      2460
      2468      2461      2473      2474      2470      2461      2475      2476
      2484      2477      2489      2490      2486      2477      2491      2492
      2500      2493      2505      2506      2502      2493      2507      2508
      2516      2509      2521      2522      2518      2509      2523      2524
      2532      2525      2537      2538      2534      2525      2539      2540
      2548      2541      2553      2554      2550      2541      2555      2556
      2564      2557      2569      2570      2566      2557      2571      2572
      2580      2573      2585      2586      2582      2573      2587      2588
      2596      2589      2601      2602      2598      2589      2603      2604
      2612      2605      2617      2618      2614      2605      2619      2620
      2628      2621      2633      2634      2630      2621      2635      2636
      2644      2637      2649      2650      2646      2637      2651      2652
      2660      2653      2665      2666      2662      2653      2667      2668
      2676      2669      2681      2682      2678      2669      2683      2684
      2692      2685      2697      2698      2694      2685      2699      2700

         0 !NCRTERM: cross-terms

