PSF CHEQ EXT CMAP DRUDE XPLOR

         4 !NTITLE
*~~~~~~~~~~~~~~~~~~~~~~~~~~~~~~~~~~~~~~~~~~~~~~~~~~~~~~~~~~~~~~~~~~~~~~~
*~ MINIMIZATION OF PACKMOL STRUCTURE
*~~~~~~~~~~~~~~~~~~~~~~~~~~~~~~~~~~~~~~~~~~~~~~~~~~~~~~~~~~~~~~~~~~~~~~~
*  DATE:     8/23/22     16: 8: 5      CREATED BY USER: marta

     18310 !NATOM
         1 IM1H     1        IM1H     C1       CD33F    2.485000       11.6110           0   -1.18100   1.10000
         2 IM1H     1        IM1H     DC1      DRUD    -2.667000        0.4000           0   0.00000   0.00000
         3 IM1H     1        IM1H     H1       HDA3A    0.135000        1.0080           0   0.00000   0.00000
         4 IM1H     1        IM1H     H2       HDA3A    0.135000        1.0080           0   0.00000   0.00000
         5 IM1H     1        IM1H     H3       HDA3A    0.135000        1.0080           0   0.00000   0.00000
         6 IM1H     1        IM1H     N1       ND2R5C   2.357200       13.6070           0   -0.803000   1.00000
         7 IM1H     1        IM1H     DN1      DRUD    -2.199200        0.4000           0   0.00000   0.00000
         8 IM1H     1        IM1H     C2       CD2R5D   2.447000       11.6110           0   -1.08300   1.10000
         9 IM1H     1        IM1H     DC2      DRUD    -2.554000        0.4000           0   0.00000   0.00000
        10 IM1H     1        IM1H     H4       HDR5D    0.195000        1.0080           0   0.00000   0.00000
        11 IM1H     1        IM1H     C3       CD2R5D   2.507000       11.6110           0   -1.08300   1.10000
        12 IM1H     1        IM1H     DC3      DRUD    -2.554000        0.4000           0   0.00000   0.00000
        13 IM1H     1        IM1H     H5       HDR5D    0.192000        1.0080           0   0.00000   0.00000
        14 IM1H     1        IM1H     C4       CD2R5E   2.724100       11.6110           0   -1.25300   1.20000
        15 IM1H     1        IM1H     DC4      DRUD    -2.747100        0.4000           0   0.00000   0.00000
        16 IM1H     1        IM1H     H6       HDR5E    0.203000        1.0080           0   0.00000   0.00000
        17 IM1H     1        IM1H     N2       ND2R5C   2.042200       13.6070           0   -0.803000   1.00000
        18 IM1H     1        IM1H     DN2      DRUD    -2.199200        0.4000           0   0.00000   0.00000
        19 IM1H     1        IM1H     H7       HDP1A    0.363000        1.0080           0   0.00000   0.00000
        20 IM1H     1        IM1H     LPN21    LPD      0.000000        0.0000           -1   0.00000   0.00000
        21 IM1H     2        IM1H     C1       CD33F    2.485000       11.6110           0   -1.18100   1.10000
        22 IM1H     2        IM1H     DC1      DRUD    -2.667000        0.4000           0   0.00000   0.00000
        23 IM1H     2        IM1H     H1       HDA3A    0.135000        1.0080           0   0.00000   0.00000
        24 IM1H     2        IM1H     H2       HDA3A    0.135000        1.0080           0   0.00000   0.00000
        25 IM1H     2        IM1H     H3       HDA3A    0.135000        1.0080           0   0.00000   0.00000
        26 IM1H     2        IM1H     N1       ND2R5C   2.357200       13.6070           0   -0.803000   1.00000
        27 IM1H     2        IM1H     DN1      DRUD    -2.199200        0.4000           0   0.00000   0.00000
        28 IM1H     2        IM1H     C2       CD2R5D   2.447000       11.6110           0   -1.08300   1.10000
        29 IM1H     2        IM1H     DC2      DRUD    -2.554000        0.4000           0   0.00000   0.00000
        30 IM1H     2        IM1H     H4       HDR5D    0.195000        1.0080           0   0.00000   0.00000
        31 IM1H     2        IM1H     C3       CD2R5D   2.507000       11.6110           0   -1.08300   1.10000
        32 IM1H     2        IM1H     DC3      DRUD    -2.554000        0.4000           0   0.00000   0.00000
        33 IM1H     2        IM1H     H5       HDR5D    0.192000        1.0080           0   0.00000   0.00000
        34 IM1H     2        IM1H     C4       CD2R5E   2.724100       11.6110           0   -1.25300   1.20000
        35 IM1H     2        IM1H     DC4      DRUD    -2.747100        0.4000           0   0.00000   0.00000
        36 IM1H     2        IM1H     H6       HDR5E    0.203000        1.0080           0   0.00000   0.00000
        37 IM1H     2        IM1H     N2       ND2R5C   2.042200       13.6070           0   -0.803000   1.00000
        38 IM1H     2        IM1H     DN2      DRUD    -2.199200        0.4000           0   0.00000   0.00000
        39 IM1H     2        IM1H     H7       HDP1A    0.363000        1.0080           0   0.00000   0.00000
        40 IM1H     2        IM1H     LPN21    LPD      0.000000        0.0000           -1   0.00000   0.00000
        41 IM1H     3        IM1H     C1       CD33F    2.485000       11.6110           0   -1.18100   1.10000
        42 IM1H     3        IM1H     DC1      DRUD    -2.667000        0.4000           0   0.00000   0.00000
        43 IM1H     3        IM1H     H1       HDA3A    0.135000        1.0080           0   0.00000   0.00000
        44 IM1H     3        IM1H     H2       HDA3A    0.135000        1.0080           0   0.00000   0.00000
        45 IM1H     3        IM1H     H3       HDA3A    0.135000        1.0080           0   0.00000   0.00000
        46 IM1H     3        IM1H     N1       ND2R5C   2.357200       13.6070           0   -0.803000   1.00000
        47 IM1H     3        IM1H     DN1      DRUD    -2.199200        0.4000           0   0.00000   0.00000
        48 IM1H     3        IM1H     C2       CD2R5D   2.447000       11.6110           0   -1.08300   1.10000
        49 IM1H     3        IM1H     DC2      DRUD    -2.554000        0.4000           0   0.00000   0.00000
        50 IM1H     3        IM1H     H4       HDR5D    0.195000        1.0080           0   0.00000   0.00000
        51 IM1H     3        IM1H     C3       CD2R5D   2.507000       11.6110           0   -1.08300   1.10000
        52 IM1H     3        IM1H     DC3      DRUD    -2.554000        0.4000           0   0.00000   0.00000
        53 IM1H     3        IM1H     H5       HDR5D    0.192000        1.0080           0   0.00000   0.00000
        54 IM1H     3        IM1H     C4       CD2R5E   2.724100       11.6110           0   -1.25300   1.20000
        55 IM1H     3        IM1H     DC4      DRUD    -2.747100        0.4000           0   0.00000   0.00000
        56 IM1H     3        IM1H     H6       HDR5E    0.203000        1.0080           0   0.00000   0.00000
        57 IM1H     3        IM1H     N2       ND2R5C   2.042200       13.6070           0   -0.803000   1.00000
        58 IM1H     3        IM1H     DN2      DRUD    -2.199200        0.4000           0   0.00000   0.00000
        59 IM1H     3        IM1H     H7       HDP1A    0.363000        1.0080           0   0.00000   0.00000
        60 IM1H     3        IM1H     LPN21    LPD      0.000000        0.0000           -1   0.00000   0.00000
        61 IM1H     4        IM1H     C1       CD33F    2.485000       11.6110           0   -1.18100   1.10000
        62 IM1H     4        IM1H     DC1      DRUD    -2.667000        0.4000           0   0.00000   0.00000
        63 IM1H     4        IM1H     H1       HDA3A    0.135000        1.0080           0   0.00000   0.00000
        64 IM1H     4        IM1H     H2       HDA3A    0.135000        1.0080           0   0.00000   0.00000
        65 IM1H     4        IM1H     H3       HDA3A    0.135000        1.0080           0   0.00000   0.00000
        66 IM1H     4        IM1H     N1       ND2R5C   2.357200       13.6070           0   -0.803000   1.00000
        67 IM1H     4        IM1H     DN1      DRUD    -2.199200        0.4000           0   0.00000   0.00000
        68 IM1H     4        IM1H     C2       CD2R5D   2.447000       11.6110           0   -1.08300   1.10000
        69 IM1H     4        IM1H     DC2      DRUD    -2.554000        0.4000           0   0.00000   0.00000
        70 IM1H     4        IM1H     H4       HDR5D    0.195000        1.0080           0   0.00000   0.00000
        71 IM1H     4        IM1H     C3       CD2R5D   2.507000       11.6110           0   -1.08300   1.10000
        72 IM1H     4        IM1H     DC3      DRUD    -2.554000        0.4000           0   0.00000   0.00000
        73 IM1H     4        IM1H     H5       HDR5D    0.192000        1.0080           0   0.00000   0.00000
        74 IM1H     4        IM1H     C4       CD2R5E   2.724100       11.6110           0   -1.25300   1.20000
        75 IM1H     4        IM1H     DC4      DRUD    -2.747100        0.4000           0   0.00000   0.00000
        76 IM1H     4        IM1H     H6       HDR5E    0.203000        1.0080           0   0.00000   0.00000
        77 IM1H     4        IM1H     N2       ND2R5C   2.042200       13.6070           0   -0.803000   1.00000
        78 IM1H     4        IM1H     DN2      DRUD    -2.199200        0.4000           0   0.00000   0.00000
        79 IM1H     4        IM1H     H7       HDP1A    0.363000        1.0080           0   0.00000   0.00000
        80 IM1H     4        IM1H     LPN21    LPD      0.000000        0.0000           -1   0.00000   0.00000
        81 IM1H     5        IM1H     C1       CD33F    2.485000       11.6110           0   -1.18100   1.10000
        82 IM1H     5        IM1H     DC1      DRUD    -2.667000        0.4000           0   0.00000   0.00000
        83 IM1H     5        IM1H     H1       HDA3A    0.135000        1.0080           0   0.00000   0.00000
        84 IM1H     5        IM1H     H2       HDA3A    0.135000        1.0080           0   0.00000   0.00000
        85 IM1H     5        IM1H     H3       HDA3A    0.135000        1.0080           0   0.00000   0.00000
        86 IM1H     5        IM1H     N1       ND2R5C   2.357200       13.6070           0   -0.803000   1.00000
        87 IM1H     5        IM1H     DN1      DRUD    -2.199200        0.4000           0   0.00000   0.00000
        88 IM1H     5        IM1H     C2       CD2R5D   2.447000       11.6110           0   -1.08300   1.10000
        89 IM1H     5        IM1H     DC2      DRUD    -2.554000        0.4000           0   0.00000   0.00000
        90 IM1H     5        IM1H     H4       HDR5D    0.195000        1.0080           0   0.00000   0.00000
        91 IM1H     5        IM1H     C3       CD2R5D   2.507000       11.6110           0   -1.08300   1.10000
        92 IM1H     5        IM1H     DC3      DRUD    -2.554000        0.4000           0   0.00000   0.00000
        93 IM1H     5        IM1H     H5       HDR5D    0.192000        1.0080           0   0.00000   0.00000
        94 IM1H     5        IM1H     C4       CD2R5E   2.724100       11.6110           0   -1.25300   1.20000
        95 IM1H     5        IM1H     DC4      DRUD    -2.747100        0.4000           0   0.00000   0.00000
        96 IM1H     5        IM1H     H6       HDR5E    0.203000        1.0080           0   0.00000   0.00000
        97 IM1H     5        IM1H     N2       ND2R5C   2.042200       13.6070           0   -0.803000   1.00000
        98 IM1H     5        IM1H     DN2      DRUD    -2.199200        0.4000           0   0.00000   0.00000
        99 IM1H     5        IM1H     H7       HDP1A    0.363000        1.0080           0   0.00000   0.00000
       100 IM1H     5        IM1H     LPN21    LPD      0.000000        0.0000           -1   0.00000   0.00000
       101 IM1H     6        IM1H     C1       CD33F    2.485000       11.6110           0   -1.18100   1.10000
       102 IM1H     6        IM1H     DC1      DRUD    -2.667000        0.4000           0   0.00000   0.00000
       103 IM1H     6        IM1H     H1       HDA3A    0.135000        1.0080           0   0.00000   0.00000
       104 IM1H     6        IM1H     H2       HDA3A    0.135000        1.0080           0   0.00000   0.00000
       105 IM1H     6        IM1H     H3       HDA3A    0.135000        1.0080           0   0.00000   0.00000
       106 IM1H     6        IM1H     N1       ND2R5C   2.357200       13.6070           0   -0.803000   1.00000
       107 IM1H     6        IM1H     DN1      DRUD    -2.199200        0.4000           0   0.00000   0.00000
       108 IM1H     6        IM1H     C2       CD2R5D   2.447000       11.6110           0   -1.08300   1.10000
       109 IM1H     6        IM1H     DC2      DRUD    -2.554000        0.4000           0   0.00000   0.00000
       110 IM1H     6        IM1H     H4       HDR5D    0.195000        1.0080           0   0.00000   0.00000
       111 IM1H     6        IM1H     C3       CD2R5D   2.507000       11.6110           0   -1.08300   1.10000
       112 IM1H     6        IM1H     DC3      DRUD    -2.554000        0.4000           0   0.00000   0.00000
       113 IM1H     6        IM1H     H5       HDR5D    0.192000        1.0080           0   0.00000   0.00000
       114 IM1H     6        IM1H     C4       CD2R5E   2.724100       11.6110           0   -1.25300   1.20000
       115 IM1H     6        IM1H     DC4      DRUD    -2.747100        0.4000           0   0.00000   0.00000
       116 IM1H     6        IM1H     H6       HDR5E    0.203000        1.0080           0   0.00000   0.00000
       117 IM1H     6        IM1H     N2       ND2R5C   2.042200       13.6070           0   -0.803000   1.00000
       118 IM1H     6        IM1H     DN2      DRUD    -2.199200        0.4000           0   0.00000   0.00000
       119 IM1H     6        IM1H     H7       HDP1A    0.363000        1.0080           0   0.00000   0.00000
       120 IM1H     6        IM1H     LPN21    LPD      0.000000        0.0000           -1   0.00000   0.00000
       121 IM1H     7        IM1H     C1       CD33F    2.485000       11.6110           0   -1.18100   1.10000
       122 IM1H     7        IM1H     DC1      DRUD    -2.667000        0.4000           0   0.00000   0.00000
       123 IM1H     7        IM1H     H1       HDA3A    0.135000        1.0080           0   0.00000   0.00000
       124 IM1H     7        IM1H     H2       HDA3A    0.135000        1.0080           0   0.00000   0.00000
       125 IM1H     7        IM1H     H3       HDA3A    0.135000        1.0080           0   0.00000   0.00000
       126 IM1H     7        IM1H     N1       ND2R5C   2.357200       13.6070           0   -0.803000   1.00000
       127 IM1H     7        IM1H     DN1      DRUD    -2.199200        0.4000           0   0.00000   0.00000
       128 IM1H     7        IM1H     C2       CD2R5D   2.447000       11.6110           0   -1.08300   1.10000
       129 IM1H     7        IM1H     DC2      DRUD    -2.554000        0.4000           0   0.00000   0.00000
       130 IM1H     7        IM1H     H4       HDR5D    0.195000        1.0080           0   0.00000   0.00000
       131 IM1H     7        IM1H     C3       CD2R5D   2.507000       11.6110           0   -1.08300   1.10000
       132 IM1H     7        IM1H     DC3      DRUD    -2.554000        0.4000           0   0.00000   0.00000
       133 IM1H     7        IM1H     H5       HDR5D    0.192000        1.0080           0   0.00000   0.00000
       134 IM1H     7        IM1H     C4       CD2R5E   2.724100       11.6110           0   -1.25300   1.20000
       135 IM1H     7        IM1H     DC4      DRUD    -2.747100        0.4000           0   0.00000   0.00000
       136 IM1H     7        IM1H     H6       HDR5E    0.203000        1.0080           0   0.00000   0.00000
       137 IM1H     7        IM1H     N2       ND2R5C   2.042200       13.6070           0   -0.803000   1.00000
       138 IM1H     7        IM1H     DN2      DRUD    -2.199200        0.4000           0   0.00000   0.00000
       139 IM1H     7        IM1H     H7       HDP1A    0.363000        1.0080           0   0.00000   0.00000
       140 IM1H     7        IM1H     LPN21    LPD      0.000000        0.0000           -1   0.00000   0.00000
       141 IM1H     8        IM1H     C1       CD33F    2.485000       11.6110           0   -1.18100   1.10000
       142 IM1H     8        IM1H     DC1      DRUD    -2.667000        0.4000           0   0.00000   0.00000
       143 IM1H     8        IM1H     H1       HDA3A    0.135000        1.0080           0   0.00000   0.00000
       144 IM1H     8        IM1H     H2       HDA3A    0.135000        1.0080           0   0.00000   0.00000
       145 IM1H     8        IM1H     H3       HDA3A    0.135000        1.0080           0   0.00000   0.00000
       146 IM1H     8        IM1H     N1       ND2R5C   2.357200       13.6070           0   -0.803000   1.00000
       147 IM1H     8        IM1H     DN1      DRUD    -2.199200        0.4000           0   0.00000   0.00000
       148 IM1H     8        IM1H     C2       CD2R5D   2.447000       11.6110           0   -1.08300   1.10000
       149 IM1H     8        IM1H     DC2      DRUD    -2.554000        0.4000           0   0.00000   0.00000
       150 IM1H     8        IM1H     H4       HDR5D    0.195000        1.0080           0   0.00000   0.00000
       151 IM1H     8        IM1H     C3       CD2R5D   2.507000       11.6110           0   -1.08300   1.10000
       152 IM1H     8        IM1H     DC3      DRUD    -2.554000        0.4000           0   0.00000   0.00000
       153 IM1H     8        IM1H     H5       HDR5D    0.192000        1.0080           0   0.00000   0.00000
       154 IM1H     8        IM1H     C4       CD2R5E   2.724100       11.6110           0   -1.25300   1.20000
       155 IM1H     8        IM1H     DC4      DRUD    -2.747100        0.4000           0   0.00000   0.00000
       156 IM1H     8        IM1H     H6       HDR5E    0.203000        1.0080           0   0.00000   0.00000
       157 IM1H     8        IM1H     N2       ND2R5C   2.042200       13.6070           0   -0.803000   1.00000
       158 IM1H     8        IM1H     DN2      DRUD    -2.199200        0.4000           0   0.00000   0.00000
       159 IM1H     8        IM1H     H7       HDP1A    0.363000        1.0080           0   0.00000   0.00000
       160 IM1H     8        IM1H     LPN21    LPD      0.000000        0.0000           -1   0.00000   0.00000
       161 IM1H     9        IM1H     C1       CD33F    2.485000       11.6110           0   -1.18100   1.10000
       162 IM1H     9        IM1H     DC1      DRUD    -2.667000        0.4000           0   0.00000   0.00000
       163 IM1H     9        IM1H     H1       HDA3A    0.135000        1.0080           0   0.00000   0.00000
       164 IM1H     9        IM1H     H2       HDA3A    0.135000        1.0080           0   0.00000   0.00000
       165 IM1H     9        IM1H     H3       HDA3A    0.135000        1.0080           0   0.00000   0.00000
       166 IM1H     9        IM1H     N1       ND2R5C   2.357200       13.6070           0   -0.803000   1.00000
       167 IM1H     9        IM1H     DN1      DRUD    -2.199200        0.4000           0   0.00000   0.00000
       168 IM1H     9        IM1H     C2       CD2R5D   2.447000       11.6110           0   -1.08300   1.10000
       169 IM1H     9        IM1H     DC2      DRUD    -2.554000        0.4000           0   0.00000   0.00000
       170 IM1H     9        IM1H     H4       HDR5D    0.195000        1.0080           0   0.00000   0.00000
       171 IM1H     9        IM1H     C3       CD2R5D   2.507000       11.6110           0   -1.08300   1.10000
       172 IM1H     9        IM1H     DC3      DRUD    -2.554000        0.4000           0   0.00000   0.00000
       173 IM1H     9        IM1H     H5       HDR5D    0.192000        1.0080           0   0.00000   0.00000
       174 IM1H     9        IM1H     C4       CD2R5E   2.724100       11.6110           0   -1.25300   1.20000
       175 IM1H     9        IM1H     DC4      DRUD    -2.747100        0.4000           0   0.00000   0.00000
       176 IM1H     9        IM1H     H6       HDR5E    0.203000        1.0080           0   0.00000   0.00000
       177 IM1H     9        IM1H     N2       ND2R5C   2.042200       13.6070           0   -0.803000   1.00000
       178 IM1H     9        IM1H     DN2      DRUD    -2.199200        0.4000           0   0.00000   0.00000
       179 IM1H     9        IM1H     H7       HDP1A    0.363000        1.0080           0   0.00000   0.00000
       180 IM1H     9        IM1H     LPN21    LPD      0.000000        0.0000           -1   0.00000   0.00000
       181 IM1H     10       IM1H     C1       CD33F    2.485000       11.6110           0   -1.18100   1.10000
       182 IM1H     10       IM1H     DC1      DRUD    -2.667000        0.4000           0   0.00000   0.00000
       183 IM1H     10       IM1H     H1       HDA3A    0.135000        1.0080           0   0.00000   0.00000
       184 IM1H     10       IM1H     H2       HDA3A    0.135000        1.0080           0   0.00000   0.00000
       185 IM1H     10       IM1H     H3       HDA3A    0.135000        1.0080           0   0.00000   0.00000
       186 IM1H     10       IM1H     N1       ND2R5C   2.357200       13.6070           0   -0.803000   1.00000
       187 IM1H     10       IM1H     DN1      DRUD    -2.199200        0.4000           0   0.00000   0.00000
       188 IM1H     10       IM1H     C2       CD2R5D   2.447000       11.6110           0   -1.08300   1.10000
       189 IM1H     10       IM1H     DC2      DRUD    -2.554000        0.4000           0   0.00000   0.00000
       190 IM1H     10       IM1H     H4       HDR5D    0.195000        1.0080           0   0.00000   0.00000
       191 IM1H     10       IM1H     C3       CD2R5D   2.507000       11.6110           0   -1.08300   1.10000
       192 IM1H     10       IM1H     DC3      DRUD    -2.554000        0.4000           0   0.00000   0.00000
       193 IM1H     10       IM1H     H5       HDR5D    0.192000        1.0080           0   0.00000   0.00000
       194 IM1H     10       IM1H     C4       CD2R5E   2.724100       11.6110           0   -1.25300   1.20000
       195 IM1H     10       IM1H     DC4      DRUD    -2.747100        0.4000           0   0.00000   0.00000
       196 IM1H     10       IM1H     H6       HDR5E    0.203000        1.0080           0   0.00000   0.00000
       197 IM1H     10       IM1H     N2       ND2R5C   2.042200       13.6070           0   -0.803000   1.00000
       198 IM1H     10       IM1H     DN2      DRUD    -2.199200        0.4000           0   0.00000   0.00000
       199 IM1H     10       IM1H     H7       HDP1A    0.363000        1.0080           0   0.00000   0.00000
       200 IM1H     10       IM1H     LPN21    LPD      0.000000        0.0000           -1   0.00000   0.00000
       201 IM1H     11       IM1H     C1       CD33F    2.485000       11.6110           0   -1.18100   1.10000
       202 IM1H     11       IM1H     DC1      DRUD    -2.667000        0.4000           0   0.00000   0.00000
       203 IM1H     11       IM1H     H1       HDA3A    0.135000        1.0080           0   0.00000   0.00000
       204 IM1H     11       IM1H     H2       HDA3A    0.135000        1.0080           0   0.00000   0.00000
       205 IM1H     11       IM1H     H3       HDA3A    0.135000        1.0080           0   0.00000   0.00000
       206 IM1H     11       IM1H     N1       ND2R5C   2.357200       13.6070           0   -0.803000   1.00000
       207 IM1H     11       IM1H     DN1      DRUD    -2.199200        0.4000           0   0.00000   0.00000
       208 IM1H     11       IM1H     C2       CD2R5D   2.447000       11.6110           0   -1.08300   1.10000
       209 IM1H     11       IM1H     DC2      DRUD    -2.554000        0.4000           0   0.00000   0.00000
       210 IM1H     11       IM1H     H4       HDR5D    0.195000        1.0080           0   0.00000   0.00000
       211 IM1H     11       IM1H     C3       CD2R5D   2.507000       11.6110           0   -1.08300   1.10000
       212 IM1H     11       IM1H     DC3      DRUD    -2.554000        0.4000           0   0.00000   0.00000
       213 IM1H     11       IM1H     H5       HDR5D    0.192000        1.0080           0   0.00000   0.00000
       214 IM1H     11       IM1H     C4       CD2R5E   2.724100       11.6110           0   -1.25300   1.20000
       215 IM1H     11       IM1H     DC4      DRUD    -2.747100        0.4000           0   0.00000   0.00000
       216 IM1H     11       IM1H     H6       HDR5E    0.203000        1.0080           0   0.00000   0.00000
       217 IM1H     11       IM1H     N2       ND2R5C   2.042200       13.6070           0   -0.803000   1.00000
       218 IM1H     11       IM1H     DN2      DRUD    -2.199200        0.4000           0   0.00000   0.00000
       219 IM1H     11       IM1H     H7       HDP1A    0.363000        1.0080           0   0.00000   0.00000
       220 IM1H     11       IM1H     LPN21    LPD      0.000000        0.0000           -1   0.00000   0.00000
       221 IM1H     12       IM1H     C1       CD33F    2.485000       11.6110           0   -1.18100   1.10000
       222 IM1H     12       IM1H     DC1      DRUD    -2.667000        0.4000           0   0.00000   0.00000
       223 IM1H     12       IM1H     H1       HDA3A    0.135000        1.0080           0   0.00000   0.00000
       224 IM1H     12       IM1H     H2       HDA3A    0.135000        1.0080           0   0.00000   0.00000
       225 IM1H     12       IM1H     H3       HDA3A    0.135000        1.0080           0   0.00000   0.00000
       226 IM1H     12       IM1H     N1       ND2R5C   2.357200       13.6070           0   -0.803000   1.00000
       227 IM1H     12       IM1H     DN1      DRUD    -2.199200        0.4000           0   0.00000   0.00000
       228 IM1H     12       IM1H     C2       CD2R5D   2.447000       11.6110           0   -1.08300   1.10000
       229 IM1H     12       IM1H     DC2      DRUD    -2.554000        0.4000           0   0.00000   0.00000
       230 IM1H     12       IM1H     H4       HDR5D    0.195000        1.0080           0   0.00000   0.00000
       231 IM1H     12       IM1H     C3       CD2R5D   2.507000       11.6110           0   -1.08300   1.10000
       232 IM1H     12       IM1H     DC3      DRUD    -2.554000        0.4000           0   0.00000   0.00000
       233 IM1H     12       IM1H     H5       HDR5D    0.192000        1.0080           0   0.00000   0.00000
       234 IM1H     12       IM1H     C4       CD2R5E   2.724100       11.6110           0   -1.25300   1.20000
       235 IM1H     12       IM1H     DC4      DRUD    -2.747100        0.4000           0   0.00000   0.00000
       236 IM1H     12       IM1H     H6       HDR5E    0.203000        1.0080           0   0.00000   0.00000
       237 IM1H     12       IM1H     N2       ND2R5C   2.042200       13.6070           0   -0.803000   1.00000
       238 IM1H     12       IM1H     DN2      DRUD    -2.199200        0.4000           0   0.00000   0.00000
       239 IM1H     12       IM1H     H7       HDP1A    0.363000        1.0080           0   0.00000   0.00000
       240 IM1H     12       IM1H     LPN21    LPD      0.000000        0.0000           -1   0.00000   0.00000
       241 IM1H     13       IM1H     C1       CD33F    2.485000       11.6110           0   -1.18100   1.10000
       242 IM1H     13       IM1H     DC1      DRUD    -2.667000        0.4000           0   0.00000   0.00000
       243 IM1H     13       IM1H     H1       HDA3A    0.135000        1.0080           0   0.00000   0.00000
       244 IM1H     13       IM1H     H2       HDA3A    0.135000        1.0080           0   0.00000   0.00000
       245 IM1H     13       IM1H     H3       HDA3A    0.135000        1.0080           0   0.00000   0.00000
       246 IM1H     13       IM1H     N1       ND2R5C   2.357200       13.6070           0   -0.803000   1.00000
       247 IM1H     13       IM1H     DN1      DRUD    -2.199200        0.4000           0   0.00000   0.00000
       248 IM1H     13       IM1H     C2       CD2R5D   2.447000       11.6110           0   -1.08300   1.10000
       249 IM1H     13       IM1H     DC2      DRUD    -2.554000        0.4000           0   0.00000   0.00000
       250 IM1H     13       IM1H     H4       HDR5D    0.195000        1.0080           0   0.00000   0.00000
       251 IM1H     13       IM1H     C3       CD2R5D   2.507000       11.6110           0   -1.08300   1.10000
       252 IM1H     13       IM1H     DC3      DRUD    -2.554000        0.4000           0   0.00000   0.00000
       253 IM1H     13       IM1H     H5       HDR5D    0.192000        1.0080           0   0.00000   0.00000
       254 IM1H     13       IM1H     C4       CD2R5E   2.724100       11.6110           0   -1.25300   1.20000
       255 IM1H     13       IM1H     DC4      DRUD    -2.747100        0.4000           0   0.00000   0.00000
       256 IM1H     13       IM1H     H6       HDR5E    0.203000        1.0080           0   0.00000   0.00000
       257 IM1H     13       IM1H     N2       ND2R5C   2.042200       13.6070           0   -0.803000   1.00000
       258 IM1H     13       IM1H     DN2      DRUD    -2.199200        0.4000           0   0.00000   0.00000
       259 IM1H     13       IM1H     H7       HDP1A    0.363000        1.0080           0   0.00000   0.00000
       260 IM1H     13       IM1H     LPN21    LPD      0.000000        0.0000           -1   0.00000   0.00000
       261 IM1H     14       IM1H     C1       CD33F    2.485000       11.6110           0   -1.18100   1.10000
       262 IM1H     14       IM1H     DC1      DRUD    -2.667000        0.4000           0   0.00000   0.00000
       263 IM1H     14       IM1H     H1       HDA3A    0.135000        1.0080           0   0.00000   0.00000
       264 IM1H     14       IM1H     H2       HDA3A    0.135000        1.0080           0   0.00000   0.00000
       265 IM1H     14       IM1H     H3       HDA3A    0.135000        1.0080           0   0.00000   0.00000
       266 IM1H     14       IM1H     N1       ND2R5C   2.357200       13.6070           0   -0.803000   1.00000
       267 IM1H     14       IM1H     DN1      DRUD    -2.199200        0.4000           0   0.00000   0.00000
       268 IM1H     14       IM1H     C2       CD2R5D   2.447000       11.6110           0   -1.08300   1.10000
       269 IM1H     14       IM1H     DC2      DRUD    -2.554000        0.4000           0   0.00000   0.00000
       270 IM1H     14       IM1H     H4       HDR5D    0.195000        1.0080           0   0.00000   0.00000
       271 IM1H     14       IM1H     C3       CD2R5D   2.507000       11.6110           0   -1.08300   1.10000
       272 IM1H     14       IM1H     DC3      DRUD    -2.554000        0.4000           0   0.00000   0.00000
       273 IM1H     14       IM1H     H5       HDR5D    0.192000        1.0080           0   0.00000   0.00000
       274 IM1H     14       IM1H     C4       CD2R5E   2.724100       11.6110           0   -1.25300   1.20000
       275 IM1H     14       IM1H     DC4      DRUD    -2.747100        0.4000           0   0.00000   0.00000
       276 IM1H     14       IM1H     H6       HDR5E    0.203000        1.0080           0   0.00000   0.00000
       277 IM1H     14       IM1H     N2       ND2R5C   2.042200       13.6070           0   -0.803000   1.00000
       278 IM1H     14       IM1H     DN2      DRUD    -2.199200        0.4000           0   0.00000   0.00000
       279 IM1H     14       IM1H     H7       HDP1A    0.363000        1.0080           0   0.00000   0.00000
       280 IM1H     14       IM1H     LPN21    LPD      0.000000        0.0000           -1   0.00000   0.00000
       281 IM1H     15       IM1H     C1       CD33F    2.485000       11.6110           0   -1.18100   1.10000
       282 IM1H     15       IM1H     DC1      DRUD    -2.667000        0.4000           0   0.00000   0.00000
       283 IM1H     15       IM1H     H1       HDA3A    0.135000        1.0080           0   0.00000   0.00000
       284 IM1H     15       IM1H     H2       HDA3A    0.135000        1.0080           0   0.00000   0.00000
       285 IM1H     15       IM1H     H3       HDA3A    0.135000        1.0080           0   0.00000   0.00000
       286 IM1H     15       IM1H     N1       ND2R5C   2.357200       13.6070           0   -0.803000   1.00000
       287 IM1H     15       IM1H     DN1      DRUD    -2.199200        0.4000           0   0.00000   0.00000
       288 IM1H     15       IM1H     C2       CD2R5D   2.447000       11.6110           0   -1.08300   1.10000
       289 IM1H     15       IM1H     DC2      DRUD    -2.554000        0.4000           0   0.00000   0.00000
       290 IM1H     15       IM1H     H4       HDR5D    0.195000        1.0080           0   0.00000   0.00000
       291 IM1H     15       IM1H     C3       CD2R5D   2.507000       11.6110           0   -1.08300   1.10000
       292 IM1H     15       IM1H     DC3      DRUD    -2.554000        0.4000           0   0.00000   0.00000
       293 IM1H     15       IM1H     H5       HDR5D    0.192000        1.0080           0   0.00000   0.00000
       294 IM1H     15       IM1H     C4       CD2R5E   2.724100       11.6110           0   -1.25300   1.20000
       295 IM1H     15       IM1H     DC4      DRUD    -2.747100        0.4000           0   0.00000   0.00000
       296 IM1H     15       IM1H     H6       HDR5E    0.203000        1.0080           0   0.00000   0.00000
       297 IM1H     15       IM1H     N2       ND2R5C   2.042200       13.6070           0   -0.803000   1.00000
       298 IM1H     15       IM1H     DN2      DRUD    -2.199200        0.4000           0   0.00000   0.00000
       299 IM1H     15       IM1H     H7       HDP1A    0.363000        1.0080           0   0.00000   0.00000
       300 IM1H     15       IM1H     LPN21    LPD      0.000000        0.0000           -1   0.00000   0.00000
       301 IM1H     16       IM1H     C1       CD33F    2.485000       11.6110           0   -1.18100   1.10000
       302 IM1H     16       IM1H     DC1      DRUD    -2.667000        0.4000           0   0.00000   0.00000
       303 IM1H     16       IM1H     H1       HDA3A    0.135000        1.0080           0   0.00000   0.00000
       304 IM1H     16       IM1H     H2       HDA3A    0.135000        1.0080           0   0.00000   0.00000
       305 IM1H     16       IM1H     H3       HDA3A    0.135000        1.0080           0   0.00000   0.00000
       306 IM1H     16       IM1H     N1       ND2R5C   2.357200       13.6070           0   -0.803000   1.00000
       307 IM1H     16       IM1H     DN1      DRUD    -2.199200        0.4000           0   0.00000   0.00000
       308 IM1H     16       IM1H     C2       CD2R5D   2.447000       11.6110           0   -1.08300   1.10000
       309 IM1H     16       IM1H     DC2      DRUD    -2.554000        0.4000           0   0.00000   0.00000
       310 IM1H     16       IM1H     H4       HDR5D    0.195000        1.0080           0   0.00000   0.00000
       311 IM1H     16       IM1H     C3       CD2R5D   2.507000       11.6110           0   -1.08300   1.10000
       312 IM1H     16       IM1H     DC3      DRUD    -2.554000        0.4000           0   0.00000   0.00000
       313 IM1H     16       IM1H     H5       HDR5D    0.192000        1.0080           0   0.00000   0.00000
       314 IM1H     16       IM1H     C4       CD2R5E   2.724100       11.6110           0   -1.25300   1.20000
       315 IM1H     16       IM1H     DC4      DRUD    -2.747100        0.4000           0   0.00000   0.00000
       316 IM1H     16       IM1H     H6       HDR5E    0.203000        1.0080           0   0.00000   0.00000
       317 IM1H     16       IM1H     N2       ND2R5C   2.042200       13.6070           0   -0.803000   1.00000
       318 IM1H     16       IM1H     DN2      DRUD    -2.199200        0.4000           0   0.00000   0.00000
       319 IM1H     16       IM1H     H7       HDP1A    0.363000        1.0080           0   0.00000   0.00000
       320 IM1H     16       IM1H     LPN21    LPD      0.000000        0.0000           -1   0.00000   0.00000
       321 IM1H     17       IM1H     C1       CD33F    2.485000       11.6110           0   -1.18100   1.10000
       322 IM1H     17       IM1H     DC1      DRUD    -2.667000        0.4000           0   0.00000   0.00000
       323 IM1H     17       IM1H     H1       HDA3A    0.135000        1.0080           0   0.00000   0.00000
       324 IM1H     17       IM1H     H2       HDA3A    0.135000        1.0080           0   0.00000   0.00000
       325 IM1H     17       IM1H     H3       HDA3A    0.135000        1.0080           0   0.00000   0.00000
       326 IM1H     17       IM1H     N1       ND2R5C   2.357200       13.6070           0   -0.803000   1.00000
       327 IM1H     17       IM1H     DN1      DRUD    -2.199200        0.4000           0   0.00000   0.00000
       328 IM1H     17       IM1H     C2       CD2R5D   2.447000       11.6110           0   -1.08300   1.10000
       329 IM1H     17       IM1H     DC2      DRUD    -2.554000        0.4000           0   0.00000   0.00000
       330 IM1H     17       IM1H     H4       HDR5D    0.195000        1.0080           0   0.00000   0.00000
       331 IM1H     17       IM1H     C3       CD2R5D   2.507000       11.6110           0   -1.08300   1.10000
       332 IM1H     17       IM1H     DC3      DRUD    -2.554000        0.4000           0   0.00000   0.00000
       333 IM1H     17       IM1H     H5       HDR5D    0.192000        1.0080           0   0.00000   0.00000
       334 IM1H     17       IM1H     C4       CD2R5E   2.724100       11.6110           0   -1.25300   1.20000
       335 IM1H     17       IM1H     DC4      DRUD    -2.747100        0.4000           0   0.00000   0.00000
       336 IM1H     17       IM1H     H6       HDR5E    0.203000        1.0080           0   0.00000   0.00000
       337 IM1H     17       IM1H     N2       ND2R5C   2.042200       13.6070           0   -0.803000   1.00000
       338 IM1H     17       IM1H     DN2      DRUD    -2.199200        0.4000           0   0.00000   0.00000
       339 IM1H     17       IM1H     H7       HDP1A    0.363000        1.0080           0   0.00000   0.00000
       340 IM1H     17       IM1H     LPN21    LPD      0.000000        0.0000           -1   0.00000   0.00000
       341 IM1H     18       IM1H     C1       CD33F    2.485000       11.6110           0   -1.18100   1.10000
       342 IM1H     18       IM1H     DC1      DRUD    -2.667000        0.4000           0   0.00000   0.00000
       343 IM1H     18       IM1H     H1       HDA3A    0.135000        1.0080           0   0.00000   0.00000
       344 IM1H     18       IM1H     H2       HDA3A    0.135000        1.0080           0   0.00000   0.00000
       345 IM1H     18       IM1H     H3       HDA3A    0.135000        1.0080           0   0.00000   0.00000
       346 IM1H     18       IM1H     N1       ND2R5C   2.357200       13.6070           0   -0.803000   1.00000
       347 IM1H     18       IM1H     DN1      DRUD    -2.199200        0.4000           0   0.00000   0.00000
       348 IM1H     18       IM1H     C2       CD2R5D   2.447000       11.6110           0   -1.08300   1.10000
       349 IM1H     18       IM1H     DC2      DRUD    -2.554000        0.4000           0   0.00000   0.00000
       350 IM1H     18       IM1H     H4       HDR5D    0.195000        1.0080           0   0.00000   0.00000
       351 IM1H     18       IM1H     C3       CD2R5D   2.507000       11.6110           0   -1.08300   1.10000
       352 IM1H     18       IM1H     DC3      DRUD    -2.554000        0.4000           0   0.00000   0.00000
       353 IM1H     18       IM1H     H5       HDR5D    0.192000        1.0080           0   0.00000   0.00000
       354 IM1H     18       IM1H     C4       CD2R5E   2.724100       11.6110           0   -1.25300   1.20000
       355 IM1H     18       IM1H     DC4      DRUD    -2.747100        0.4000           0   0.00000   0.00000
       356 IM1H     18       IM1H     H6       HDR5E    0.203000        1.0080           0   0.00000   0.00000
       357 IM1H     18       IM1H     N2       ND2R5C   2.042200       13.6070           0   -0.803000   1.00000
       358 IM1H     18       IM1H     DN2      DRUD    -2.199200        0.4000           0   0.00000   0.00000
       359 IM1H     18       IM1H     H7       HDP1A    0.363000        1.0080           0   0.00000   0.00000
       360 IM1H     18       IM1H     LPN21    LPD      0.000000        0.0000           -1   0.00000   0.00000
       361 IM1H     19       IM1H     C1       CD33F    2.485000       11.6110           0   -1.18100   1.10000
       362 IM1H     19       IM1H     DC1      DRUD    -2.667000        0.4000           0   0.00000   0.00000
       363 IM1H     19       IM1H     H1       HDA3A    0.135000        1.0080           0   0.00000   0.00000
       364 IM1H     19       IM1H     H2       HDA3A    0.135000        1.0080           0   0.00000   0.00000
       365 IM1H     19       IM1H     H3       HDA3A    0.135000        1.0080           0   0.00000   0.00000
       366 IM1H     19       IM1H     N1       ND2R5C   2.357200       13.6070           0   -0.803000   1.00000
       367 IM1H     19       IM1H     DN1      DRUD    -2.199200        0.4000           0   0.00000   0.00000
       368 IM1H     19       IM1H     C2       CD2R5D   2.447000       11.6110           0   -1.08300   1.10000
       369 IM1H     19       IM1H     DC2      DRUD    -2.554000        0.4000           0   0.00000   0.00000
       370 IM1H     19       IM1H     H4       HDR5D    0.195000        1.0080           0   0.00000   0.00000
       371 IM1H     19       IM1H     C3       CD2R5D   2.507000       11.6110           0   -1.08300   1.10000
       372 IM1H     19       IM1H     DC3      DRUD    -2.554000        0.4000           0   0.00000   0.00000
       373 IM1H     19       IM1H     H5       HDR5D    0.192000        1.0080           0   0.00000   0.00000
       374 IM1H     19       IM1H     C4       CD2R5E   2.724100       11.6110           0   -1.25300   1.20000
       375 IM1H     19       IM1H     DC4      DRUD    -2.747100        0.4000           0   0.00000   0.00000
       376 IM1H     19       IM1H     H6       HDR5E    0.203000        1.0080           0   0.00000   0.00000
       377 IM1H     19       IM1H     N2       ND2R5C   2.042200       13.6070           0   -0.803000   1.00000
       378 IM1H     19       IM1H     DN2      DRUD    -2.199200        0.4000           0   0.00000   0.00000
       379 IM1H     19       IM1H     H7       HDP1A    0.363000        1.0080           0   0.00000   0.00000
       380 IM1H     19       IM1H     LPN21    LPD      0.000000        0.0000           -1   0.00000   0.00000
       381 IM1H     20       IM1H     C1       CD33F    2.485000       11.6110           0   -1.18100   1.10000
       382 IM1H     20       IM1H     DC1      DRUD    -2.667000        0.4000           0   0.00000   0.00000
       383 IM1H     20       IM1H     H1       HDA3A    0.135000        1.0080           0   0.00000   0.00000
       384 IM1H     20       IM1H     H2       HDA3A    0.135000        1.0080           0   0.00000   0.00000
       385 IM1H     20       IM1H     H3       HDA3A    0.135000        1.0080           0   0.00000   0.00000
       386 IM1H     20       IM1H     N1       ND2R5C   2.357200       13.6070           0   -0.803000   1.00000
       387 IM1H     20       IM1H     DN1      DRUD    -2.199200        0.4000           0   0.00000   0.00000
       388 IM1H     20       IM1H     C2       CD2R5D   2.447000       11.6110           0   -1.08300   1.10000
       389 IM1H     20       IM1H     DC2      DRUD    -2.554000        0.4000           0   0.00000   0.00000
       390 IM1H     20       IM1H     H4       HDR5D    0.195000        1.0080           0   0.00000   0.00000
       391 IM1H     20       IM1H     C3       CD2R5D   2.507000       11.6110           0   -1.08300   1.10000
       392 IM1H     20       IM1H     DC3      DRUD    -2.554000        0.4000           0   0.00000   0.00000
       393 IM1H     20       IM1H     H5       HDR5D    0.192000        1.0080           0   0.00000   0.00000
       394 IM1H     20       IM1H     C4       CD2R5E   2.724100       11.6110           0   -1.25300   1.20000
       395 IM1H     20       IM1H     DC4      DRUD    -2.747100        0.4000           0   0.00000   0.00000
       396 IM1H     20       IM1H     H6       HDR5E    0.203000        1.0080           0   0.00000   0.00000
       397 IM1H     20       IM1H     N2       ND2R5C   2.042200       13.6070           0   -0.803000   1.00000
       398 IM1H     20       IM1H     DN2      DRUD    -2.199200        0.4000           0   0.00000   0.00000
       399 IM1H     20       IM1H     H7       HDP1A    0.363000        1.0080           0   0.00000   0.00000
       400 IM1H     20       IM1H     LPN21    LPD      0.000000        0.0000           -1   0.00000   0.00000
       401 IM1H     21       IM1H     C1       CD33F    2.485000       11.6110           0   -1.18100   1.10000
       402 IM1H     21       IM1H     DC1      DRUD    -2.667000        0.4000           0   0.00000   0.00000
       403 IM1H     21       IM1H     H1       HDA3A    0.135000        1.0080           0   0.00000   0.00000
       404 IM1H     21       IM1H     H2       HDA3A    0.135000        1.0080           0   0.00000   0.00000
       405 IM1H     21       IM1H     H3       HDA3A    0.135000        1.0080           0   0.00000   0.00000
       406 IM1H     21       IM1H     N1       ND2R5C   2.357200       13.6070           0   -0.803000   1.00000
       407 IM1H     21       IM1H     DN1      DRUD    -2.199200        0.4000           0   0.00000   0.00000
       408 IM1H     21       IM1H     C2       CD2R5D   2.447000       11.6110           0   -1.08300   1.10000
       409 IM1H     21       IM1H     DC2      DRUD    -2.554000        0.4000           0   0.00000   0.00000
       410 IM1H     21       IM1H     H4       HDR5D    0.195000        1.0080           0   0.00000   0.00000
       411 IM1H     21       IM1H     C3       CD2R5D   2.507000       11.6110           0   -1.08300   1.10000
       412 IM1H     21       IM1H     DC3      DRUD    -2.554000        0.4000           0   0.00000   0.00000
       413 IM1H     21       IM1H     H5       HDR5D    0.192000        1.0080           0   0.00000   0.00000
       414 IM1H     21       IM1H     C4       CD2R5E   2.724100       11.6110           0   -1.25300   1.20000
       415 IM1H     21       IM1H     DC4      DRUD    -2.747100        0.4000           0   0.00000   0.00000
       416 IM1H     21       IM1H     H6       HDR5E    0.203000        1.0080           0   0.00000   0.00000
       417 IM1H     21       IM1H     N2       ND2R5C   2.042200       13.6070           0   -0.803000   1.00000
       418 IM1H     21       IM1H     DN2      DRUD    -2.199200        0.4000           0   0.00000   0.00000
       419 IM1H     21       IM1H     H7       HDP1A    0.363000        1.0080           0   0.00000   0.00000
       420 IM1H     21       IM1H     LPN21    LPD      0.000000        0.0000           -1   0.00000   0.00000
       421 IM1H     22       IM1H     C1       CD33F    2.485000       11.6110           0   -1.18100   1.10000
       422 IM1H     22       IM1H     DC1      DRUD    -2.667000        0.4000           0   0.00000   0.00000
       423 IM1H     22       IM1H     H1       HDA3A    0.135000        1.0080           0   0.00000   0.00000
       424 IM1H     22       IM1H     H2       HDA3A    0.135000        1.0080           0   0.00000   0.00000
       425 IM1H     22       IM1H     H3       HDA3A    0.135000        1.0080           0   0.00000   0.00000
       426 IM1H     22       IM1H     N1       ND2R5C   2.357200       13.6070           0   -0.803000   1.00000
       427 IM1H     22       IM1H     DN1      DRUD    -2.199200        0.4000           0   0.00000   0.00000
       428 IM1H     22       IM1H     C2       CD2R5D   2.447000       11.6110           0   -1.08300   1.10000
       429 IM1H     22       IM1H     DC2      DRUD    -2.554000        0.4000           0   0.00000   0.00000
       430 IM1H     22       IM1H     H4       HDR5D    0.195000        1.0080           0   0.00000   0.00000
       431 IM1H     22       IM1H     C3       CD2R5D   2.507000       11.6110           0   -1.08300   1.10000
       432 IM1H     22       IM1H     DC3      DRUD    -2.554000        0.4000           0   0.00000   0.00000
       433 IM1H     22       IM1H     H5       HDR5D    0.192000        1.0080           0   0.00000   0.00000
       434 IM1H     22       IM1H     C4       CD2R5E   2.724100       11.6110           0   -1.25300   1.20000
       435 IM1H     22       IM1H     DC4      DRUD    -2.747100        0.4000           0   0.00000   0.00000
       436 IM1H     22       IM1H     H6       HDR5E    0.203000        1.0080           0   0.00000   0.00000
       437 IM1H     22       IM1H     N2       ND2R5C   2.042200       13.6070           0   -0.803000   1.00000
       438 IM1H     22       IM1H     DN2      DRUD    -2.199200        0.4000           0   0.00000   0.00000
       439 IM1H     22       IM1H     H7       HDP1A    0.363000        1.0080           0   0.00000   0.00000
       440 IM1H     22       IM1H     LPN21    LPD      0.000000        0.0000           -1   0.00000   0.00000
       441 IM1H     23       IM1H     C1       CD33F    2.485000       11.6110           0   -1.18100   1.10000
       442 IM1H     23       IM1H     DC1      DRUD    -2.667000        0.4000           0   0.00000   0.00000
       443 IM1H     23       IM1H     H1       HDA3A    0.135000        1.0080           0   0.00000   0.00000
       444 IM1H     23       IM1H     H2       HDA3A    0.135000        1.0080           0   0.00000   0.00000
       445 IM1H     23       IM1H     H3       HDA3A    0.135000        1.0080           0   0.00000   0.00000
       446 IM1H     23       IM1H     N1       ND2R5C   2.357200       13.6070           0   -0.803000   1.00000
       447 IM1H     23       IM1H     DN1      DRUD    -2.199200        0.4000           0   0.00000   0.00000
       448 IM1H     23       IM1H     C2       CD2R5D   2.447000       11.6110           0   -1.08300   1.10000
       449 IM1H     23       IM1H     DC2      DRUD    -2.554000        0.4000           0   0.00000   0.00000
       450 IM1H     23       IM1H     H4       HDR5D    0.195000        1.0080           0   0.00000   0.00000
       451 IM1H     23       IM1H     C3       CD2R5D   2.507000       11.6110           0   -1.08300   1.10000
       452 IM1H     23       IM1H     DC3      DRUD    -2.554000        0.4000           0   0.00000   0.00000
       453 IM1H     23       IM1H     H5       HDR5D    0.192000        1.0080           0   0.00000   0.00000
       454 IM1H     23       IM1H     C4       CD2R5E   2.724100       11.6110           0   -1.25300   1.20000
       455 IM1H     23       IM1H     DC4      DRUD    -2.747100        0.4000           0   0.00000   0.00000
       456 IM1H     23       IM1H     H6       HDR5E    0.203000        1.0080           0   0.00000   0.00000
       457 IM1H     23       IM1H     N2       ND2R5C   2.042200       13.6070           0   -0.803000   1.00000
       458 IM1H     23       IM1H     DN2      DRUD    -2.199200        0.4000           0   0.00000   0.00000
       459 IM1H     23       IM1H     H7       HDP1A    0.363000        1.0080           0   0.00000   0.00000
       460 IM1H     23       IM1H     LPN21    LPD      0.000000        0.0000           -1   0.00000   0.00000
       461 IM1H     24       IM1H     C1       CD33F    2.485000       11.6110           0   -1.18100   1.10000
       462 IM1H     24       IM1H     DC1      DRUD    -2.667000        0.4000           0   0.00000   0.00000
       463 IM1H     24       IM1H     H1       HDA3A    0.135000        1.0080           0   0.00000   0.00000
       464 IM1H     24       IM1H     H2       HDA3A    0.135000        1.0080           0   0.00000   0.00000
       465 IM1H     24       IM1H     H3       HDA3A    0.135000        1.0080           0   0.00000   0.00000
       466 IM1H     24       IM1H     N1       ND2R5C   2.357200       13.6070           0   -0.803000   1.00000
       467 IM1H     24       IM1H     DN1      DRUD    -2.199200        0.4000           0   0.00000   0.00000
       468 IM1H     24       IM1H     C2       CD2R5D   2.447000       11.6110           0   -1.08300   1.10000
       469 IM1H     24       IM1H     DC2      DRUD    -2.554000        0.4000           0   0.00000   0.00000
       470 IM1H     24       IM1H     H4       HDR5D    0.195000        1.0080           0   0.00000   0.00000
       471 IM1H     24       IM1H     C3       CD2R5D   2.507000       11.6110           0   -1.08300   1.10000
       472 IM1H     24       IM1H     DC3      DRUD    -2.554000        0.4000           0   0.00000   0.00000
       473 IM1H     24       IM1H     H5       HDR5D    0.192000        1.0080           0   0.00000   0.00000
       474 IM1H     24       IM1H     C4       CD2R5E   2.724100       11.6110           0   -1.25300   1.20000
       475 IM1H     24       IM1H     DC4      DRUD    -2.747100        0.4000           0   0.00000   0.00000
       476 IM1H     24       IM1H     H6       HDR5E    0.203000        1.0080           0   0.00000   0.00000
       477 IM1H     24       IM1H     N2       ND2R5C   2.042200       13.6070           0   -0.803000   1.00000
       478 IM1H     24       IM1H     DN2      DRUD    -2.199200        0.4000           0   0.00000   0.00000
       479 IM1H     24       IM1H     H7       HDP1A    0.363000        1.0080           0   0.00000   0.00000
       480 IM1H     24       IM1H     LPN21    LPD      0.000000        0.0000           -1   0.00000   0.00000
       481 IM1H     25       IM1H     C1       CD33F    2.485000       11.6110           0   -1.18100   1.10000
       482 IM1H     25       IM1H     DC1      DRUD    -2.667000        0.4000           0   0.00000   0.00000
       483 IM1H     25       IM1H     H1       HDA3A    0.135000        1.0080           0   0.00000   0.00000
       484 IM1H     25       IM1H     H2       HDA3A    0.135000        1.0080           0   0.00000   0.00000
       485 IM1H     25       IM1H     H3       HDA3A    0.135000        1.0080           0   0.00000   0.00000
       486 IM1H     25       IM1H     N1       ND2R5C   2.357200       13.6070           0   -0.803000   1.00000
       487 IM1H     25       IM1H     DN1      DRUD    -2.199200        0.4000           0   0.00000   0.00000
       488 IM1H     25       IM1H     C2       CD2R5D   2.447000       11.6110           0   -1.08300   1.10000
       489 IM1H     25       IM1H     DC2      DRUD    -2.554000        0.4000           0   0.00000   0.00000
       490 IM1H     25       IM1H     H4       HDR5D    0.195000        1.0080           0   0.00000   0.00000
       491 IM1H     25       IM1H     C3       CD2R5D   2.507000       11.6110           0   -1.08300   1.10000
       492 IM1H     25       IM1H     DC3      DRUD    -2.554000        0.4000           0   0.00000   0.00000
       493 IM1H     25       IM1H     H5       HDR5D    0.192000        1.0080           0   0.00000   0.00000
       494 IM1H     25       IM1H     C4       CD2R5E   2.724100       11.6110           0   -1.25300   1.20000
       495 IM1H     25       IM1H     DC4      DRUD    -2.747100        0.4000           0   0.00000   0.00000
       496 IM1H     25       IM1H     H6       HDR5E    0.203000        1.0080           0   0.00000   0.00000
       497 IM1H     25       IM1H     N2       ND2R5C   2.042200       13.6070           0   -0.803000   1.00000
       498 IM1H     25       IM1H     DN2      DRUD    -2.199200        0.4000           0   0.00000   0.00000
       499 IM1H     25       IM1H     H7       HDP1A    0.363000        1.0080           0   0.00000   0.00000
       500 IM1H     25       IM1H     LPN21    LPD      0.000000        0.0000           -1   0.00000   0.00000
       501 IM1H     26       IM1H     C1       CD33F    2.485000       11.6110           0   -1.18100   1.10000
       502 IM1H     26       IM1H     DC1      DRUD    -2.667000        0.4000           0   0.00000   0.00000
       503 IM1H     26       IM1H     H1       HDA3A    0.135000        1.0080           0   0.00000   0.00000
       504 IM1H     26       IM1H     H2       HDA3A    0.135000        1.0080           0   0.00000   0.00000
       505 IM1H     26       IM1H     H3       HDA3A    0.135000        1.0080           0   0.00000   0.00000
       506 IM1H     26       IM1H     N1       ND2R5C   2.357200       13.6070           0   -0.803000   1.00000
       507 IM1H     26       IM1H     DN1      DRUD    -2.199200        0.4000           0   0.00000   0.00000
       508 IM1H     26       IM1H     C2       CD2R5D   2.447000       11.6110           0   -1.08300   1.10000
       509 IM1H     26       IM1H     DC2      DRUD    -2.554000        0.4000           0   0.00000   0.00000
       510 IM1H     26       IM1H     H4       HDR5D    0.195000        1.0080           0   0.00000   0.00000
       511 IM1H     26       IM1H     C3       CD2R5D   2.507000       11.6110           0   -1.08300   1.10000
       512 IM1H     26       IM1H     DC3      DRUD    -2.554000        0.4000           0   0.00000   0.00000
       513 IM1H     26       IM1H     H5       HDR5D    0.192000        1.0080           0   0.00000   0.00000
       514 IM1H     26       IM1H     C4       CD2R5E   2.724100       11.6110           0   -1.25300   1.20000
       515 IM1H     26       IM1H     DC4      DRUD    -2.747100        0.4000           0   0.00000   0.00000
       516 IM1H     26       IM1H     H6       HDR5E    0.203000        1.0080           0   0.00000   0.00000
       517 IM1H     26       IM1H     N2       ND2R5C   2.042200       13.6070           0   -0.803000   1.00000
       518 IM1H     26       IM1H     DN2      DRUD    -2.199200        0.4000           0   0.00000   0.00000
       519 IM1H     26       IM1H     H7       HDP1A    0.363000        1.0080           0   0.00000   0.00000
       520 IM1H     26       IM1H     LPN21    LPD      0.000000        0.0000           -1   0.00000   0.00000
       521 IM1H     27       IM1H     C1       CD33F    2.485000       11.6110           0   -1.18100   1.10000
       522 IM1H     27       IM1H     DC1      DRUD    -2.667000        0.4000           0   0.00000   0.00000
       523 IM1H     27       IM1H     H1       HDA3A    0.135000        1.0080           0   0.00000   0.00000
       524 IM1H     27       IM1H     H2       HDA3A    0.135000        1.0080           0   0.00000   0.00000
       525 IM1H     27       IM1H     H3       HDA3A    0.135000        1.0080           0   0.00000   0.00000
       526 IM1H     27       IM1H     N1       ND2R5C   2.357200       13.6070           0   -0.803000   1.00000
       527 IM1H     27       IM1H     DN1      DRUD    -2.199200        0.4000           0   0.00000   0.00000
       528 IM1H     27       IM1H     C2       CD2R5D   2.447000       11.6110           0   -1.08300   1.10000
       529 IM1H     27       IM1H     DC2      DRUD    -2.554000        0.4000           0   0.00000   0.00000
       530 IM1H     27       IM1H     H4       HDR5D    0.195000        1.0080           0   0.00000   0.00000
       531 IM1H     27       IM1H     C3       CD2R5D   2.507000       11.6110           0   -1.08300   1.10000
       532 IM1H     27       IM1H     DC3      DRUD    -2.554000        0.4000           0   0.00000   0.00000
       533 IM1H     27       IM1H     H5       HDR5D    0.192000        1.0080           0   0.00000   0.00000
       534 IM1H     27       IM1H     C4       CD2R5E   2.724100       11.6110           0   -1.25300   1.20000
       535 IM1H     27       IM1H     DC4      DRUD    -2.747100        0.4000           0   0.00000   0.00000
       536 IM1H     27       IM1H     H6       HDR5E    0.203000        1.0080           0   0.00000   0.00000
       537 IM1H     27       IM1H     N2       ND2R5C   2.042200       13.6070           0   -0.803000   1.00000
       538 IM1H     27       IM1H     DN2      DRUD    -2.199200        0.4000           0   0.00000   0.00000
       539 IM1H     27       IM1H     H7       HDP1A    0.363000        1.0080           0   0.00000   0.00000
       540 IM1H     27       IM1H     LPN21    LPD      0.000000        0.0000           -1   0.00000   0.00000
       541 IM1H     28       IM1H     C1       CD33F    2.485000       11.6110           0   -1.18100   1.10000
       542 IM1H     28       IM1H     DC1      DRUD    -2.667000        0.4000           0   0.00000   0.00000
       543 IM1H     28       IM1H     H1       HDA3A    0.135000        1.0080           0   0.00000   0.00000
       544 IM1H     28       IM1H     H2       HDA3A    0.135000        1.0080           0   0.00000   0.00000
       545 IM1H     28       IM1H     H3       HDA3A    0.135000        1.0080           0   0.00000   0.00000
       546 IM1H     28       IM1H     N1       ND2R5C   2.357200       13.6070           0   -0.803000   1.00000
       547 IM1H     28       IM1H     DN1      DRUD    -2.199200        0.4000           0   0.00000   0.00000
       548 IM1H     28       IM1H     C2       CD2R5D   2.447000       11.6110           0   -1.08300   1.10000
       549 IM1H     28       IM1H     DC2      DRUD    -2.554000        0.4000           0   0.00000   0.00000
       550 IM1H     28       IM1H     H4       HDR5D    0.195000        1.0080           0   0.00000   0.00000
       551 IM1H     28       IM1H     C3       CD2R5D   2.507000       11.6110           0   -1.08300   1.10000
       552 IM1H     28       IM1H     DC3      DRUD    -2.554000        0.4000           0   0.00000   0.00000
       553 IM1H     28       IM1H     H5       HDR5D    0.192000        1.0080           0   0.00000   0.00000
       554 IM1H     28       IM1H     C4       CD2R5E   2.724100       11.6110           0   -1.25300   1.20000
       555 IM1H     28       IM1H     DC4      DRUD    -2.747100        0.4000           0   0.00000   0.00000
       556 IM1H     28       IM1H     H6       HDR5E    0.203000        1.0080           0   0.00000   0.00000
       557 IM1H     28       IM1H     N2       ND2R5C   2.042200       13.6070           0   -0.803000   1.00000
       558 IM1H     28       IM1H     DN2      DRUD    -2.199200        0.4000           0   0.00000   0.00000
       559 IM1H     28       IM1H     H7       HDP1A    0.363000        1.0080           0   0.00000   0.00000
       560 IM1H     28       IM1H     LPN21    LPD      0.000000        0.0000           -1   0.00000   0.00000
       561 IM1H     29       IM1H     C1       CD33F    2.485000       11.6110           0   -1.18100   1.10000
       562 IM1H     29       IM1H     DC1      DRUD    -2.667000        0.4000           0   0.00000   0.00000
       563 IM1H     29       IM1H     H1       HDA3A    0.135000        1.0080           0   0.00000   0.00000
       564 IM1H     29       IM1H     H2       HDA3A    0.135000        1.0080           0   0.00000   0.00000
       565 IM1H     29       IM1H     H3       HDA3A    0.135000        1.0080           0   0.00000   0.00000
       566 IM1H     29       IM1H     N1       ND2R5C   2.357200       13.6070           0   -0.803000   1.00000
       567 IM1H     29       IM1H     DN1      DRUD    -2.199200        0.4000           0   0.00000   0.00000
       568 IM1H     29       IM1H     C2       CD2R5D   2.447000       11.6110           0   -1.08300   1.10000
       569 IM1H     29       IM1H     DC2      DRUD    -2.554000        0.4000           0   0.00000   0.00000
       570 IM1H     29       IM1H     H4       HDR5D    0.195000        1.0080           0   0.00000   0.00000
       571 IM1H     29       IM1H     C3       CD2R5D   2.507000       11.6110           0   -1.08300   1.10000
       572 IM1H     29       IM1H     DC3      DRUD    -2.554000        0.4000           0   0.00000   0.00000
       573 IM1H     29       IM1H     H5       HDR5D    0.192000        1.0080           0   0.00000   0.00000
       574 IM1H     29       IM1H     C4       CD2R5E   2.724100       11.6110           0   -1.25300   1.20000
       575 IM1H     29       IM1H     DC4      DRUD    -2.747100        0.4000           0   0.00000   0.00000
       576 IM1H     29       IM1H     H6       HDR5E    0.203000        1.0080           0   0.00000   0.00000
       577 IM1H     29       IM1H     N2       ND2R5C   2.042200       13.6070           0   -0.803000   1.00000
       578 IM1H     29       IM1H     DN2      DRUD    -2.199200        0.4000           0   0.00000   0.00000
       579 IM1H     29       IM1H     H7       HDP1A    0.363000        1.0080           0   0.00000   0.00000
       580 IM1H     29       IM1H     LPN21    LPD      0.000000        0.0000           -1   0.00000   0.00000
       581 IM1H     30       IM1H     C1       CD33F    2.485000       11.6110           0   -1.18100   1.10000
       582 IM1H     30       IM1H     DC1      DRUD    -2.667000        0.4000           0   0.00000   0.00000
       583 IM1H     30       IM1H     H1       HDA3A    0.135000        1.0080           0   0.00000   0.00000
       584 IM1H     30       IM1H     H2       HDA3A    0.135000        1.0080           0   0.00000   0.00000
       585 IM1H     30       IM1H     H3       HDA3A    0.135000        1.0080           0   0.00000   0.00000
       586 IM1H     30       IM1H     N1       ND2R5C   2.357200       13.6070           0   -0.803000   1.00000
       587 IM1H     30       IM1H     DN1      DRUD    -2.199200        0.4000           0   0.00000   0.00000
       588 IM1H     30       IM1H     C2       CD2R5D   2.447000       11.6110           0   -1.08300   1.10000
       589 IM1H     30       IM1H     DC2      DRUD    -2.554000        0.4000           0   0.00000   0.00000
       590 IM1H     30       IM1H     H4       HDR5D    0.195000        1.0080           0   0.00000   0.00000
       591 IM1H     30       IM1H     C3       CD2R5D   2.507000       11.6110           0   -1.08300   1.10000
       592 IM1H     30       IM1H     DC3      DRUD    -2.554000        0.4000           0   0.00000   0.00000
       593 IM1H     30       IM1H     H5       HDR5D    0.192000        1.0080           0   0.00000   0.00000
       594 IM1H     30       IM1H     C4       CD2R5E   2.724100       11.6110           0   -1.25300   1.20000
       595 IM1H     30       IM1H     DC4      DRUD    -2.747100        0.4000           0   0.00000   0.00000
       596 IM1H     30       IM1H     H6       HDR5E    0.203000        1.0080           0   0.00000   0.00000
       597 IM1H     30       IM1H     N2       ND2R5C   2.042200       13.6070           0   -0.803000   1.00000
       598 IM1H     30       IM1H     DN2      DRUD    -2.199200        0.4000           0   0.00000   0.00000
       599 IM1H     30       IM1H     H7       HDP1A    0.363000        1.0080           0   0.00000   0.00000
       600 IM1H     30       IM1H     LPN21    LPD      0.000000        0.0000           -1   0.00000   0.00000
       601 IM1H     31       IM1H     C1       CD33F    2.485000       11.6110           0   -1.18100   1.10000
       602 IM1H     31       IM1H     DC1      DRUD    -2.667000        0.4000           0   0.00000   0.00000
       603 IM1H     31       IM1H     H1       HDA3A    0.135000        1.0080           0   0.00000   0.00000
       604 IM1H     31       IM1H     H2       HDA3A    0.135000        1.0080           0   0.00000   0.00000
       605 IM1H     31       IM1H     H3       HDA3A    0.135000        1.0080           0   0.00000   0.00000
       606 IM1H     31       IM1H     N1       ND2R5C   2.357200       13.6070           0   -0.803000   1.00000
       607 IM1H     31       IM1H     DN1      DRUD    -2.199200        0.4000           0   0.00000   0.00000
       608 IM1H     31       IM1H     C2       CD2R5D   2.447000       11.6110           0   -1.08300   1.10000
       609 IM1H     31       IM1H     DC2      DRUD    -2.554000        0.4000           0   0.00000   0.00000
       610 IM1H     31       IM1H     H4       HDR5D    0.195000        1.0080           0   0.00000   0.00000
       611 IM1H     31       IM1H     C3       CD2R5D   2.507000       11.6110           0   -1.08300   1.10000
       612 IM1H     31       IM1H     DC3      DRUD    -2.554000        0.4000           0   0.00000   0.00000
       613 IM1H     31       IM1H     H5       HDR5D    0.192000        1.0080           0   0.00000   0.00000
       614 IM1H     31       IM1H     C4       CD2R5E   2.724100       11.6110           0   -1.25300   1.20000
       615 IM1H     31       IM1H     DC4      DRUD    -2.747100        0.4000           0   0.00000   0.00000
       616 IM1H     31       IM1H     H6       HDR5E    0.203000        1.0080           0   0.00000   0.00000
       617 IM1H     31       IM1H     N2       ND2R5C   2.042200       13.6070           0   -0.803000   1.00000
       618 IM1H     31       IM1H     DN2      DRUD    -2.199200        0.4000           0   0.00000   0.00000
       619 IM1H     31       IM1H     H7       HDP1A    0.363000        1.0080           0   0.00000   0.00000
       620 IM1H     31       IM1H     LPN21    LPD      0.000000        0.0000           -1   0.00000   0.00000
       621 IM1H     32       IM1H     C1       CD33F    2.485000       11.6110           0   -1.18100   1.10000
       622 IM1H     32       IM1H     DC1      DRUD    -2.667000        0.4000           0   0.00000   0.00000
       623 IM1H     32       IM1H     H1       HDA3A    0.135000        1.0080           0   0.00000   0.00000
       624 IM1H     32       IM1H     H2       HDA3A    0.135000        1.0080           0   0.00000   0.00000
       625 IM1H     32       IM1H     H3       HDA3A    0.135000        1.0080           0   0.00000   0.00000
       626 IM1H     32       IM1H     N1       ND2R5C   2.357200       13.6070           0   -0.803000   1.00000
       627 IM1H     32       IM1H     DN1      DRUD    -2.199200        0.4000           0   0.00000   0.00000
       628 IM1H     32       IM1H     C2       CD2R5D   2.447000       11.6110           0   -1.08300   1.10000
       629 IM1H     32       IM1H     DC2      DRUD    -2.554000        0.4000           0   0.00000   0.00000
       630 IM1H     32       IM1H     H4       HDR5D    0.195000        1.0080           0   0.00000   0.00000
       631 IM1H     32       IM1H     C3       CD2R5D   2.507000       11.6110           0   -1.08300   1.10000
       632 IM1H     32       IM1H     DC3      DRUD    -2.554000        0.4000           0   0.00000   0.00000
       633 IM1H     32       IM1H     H5       HDR5D    0.192000        1.0080           0   0.00000   0.00000
       634 IM1H     32       IM1H     C4       CD2R5E   2.724100       11.6110           0   -1.25300   1.20000
       635 IM1H     32       IM1H     DC4      DRUD    -2.747100        0.4000           0   0.00000   0.00000
       636 IM1H     32       IM1H     H6       HDR5E    0.203000        1.0080           0   0.00000   0.00000
       637 IM1H     32       IM1H     N2       ND2R5C   2.042200       13.6070           0   -0.803000   1.00000
       638 IM1H     32       IM1H     DN2      DRUD    -2.199200        0.4000           0   0.00000   0.00000
       639 IM1H     32       IM1H     H7       HDP1A    0.363000        1.0080           0   0.00000   0.00000
       640 IM1H     32       IM1H     LPN21    LPD      0.000000        0.0000           -1   0.00000   0.00000
       641 IM1H     33       IM1H     C1       CD33F    2.485000       11.6110           0   -1.18100   1.10000
       642 IM1H     33       IM1H     DC1      DRUD    -2.667000        0.4000           0   0.00000   0.00000
       643 IM1H     33       IM1H     H1       HDA3A    0.135000        1.0080           0   0.00000   0.00000
       644 IM1H     33       IM1H     H2       HDA3A    0.135000        1.0080           0   0.00000   0.00000
       645 IM1H     33       IM1H     H3       HDA3A    0.135000        1.0080           0   0.00000   0.00000
       646 IM1H     33       IM1H     N1       ND2R5C   2.357200       13.6070           0   -0.803000   1.00000
       647 IM1H     33       IM1H     DN1      DRUD    -2.199200        0.4000           0   0.00000   0.00000
       648 IM1H     33       IM1H     C2       CD2R5D   2.447000       11.6110           0   -1.08300   1.10000
       649 IM1H     33       IM1H     DC2      DRUD    -2.554000        0.4000           0   0.00000   0.00000
       650 IM1H     33       IM1H     H4       HDR5D    0.195000        1.0080           0   0.00000   0.00000
       651 IM1H     33       IM1H     C3       CD2R5D   2.507000       11.6110           0   -1.08300   1.10000
       652 IM1H     33       IM1H     DC3      DRUD    -2.554000        0.4000           0   0.00000   0.00000
       653 IM1H     33       IM1H     H5       HDR5D    0.192000        1.0080           0   0.00000   0.00000
       654 IM1H     33       IM1H     C4       CD2R5E   2.724100       11.6110           0   -1.25300   1.20000
       655 IM1H     33       IM1H     DC4      DRUD    -2.747100        0.4000           0   0.00000   0.00000
       656 IM1H     33       IM1H     H6       HDR5E    0.203000        1.0080           0   0.00000   0.00000
       657 IM1H     33       IM1H     N2       ND2R5C   2.042200       13.6070           0   -0.803000   1.00000
       658 IM1H     33       IM1H     DN2      DRUD    -2.199200        0.4000           0   0.00000   0.00000
       659 IM1H     33       IM1H     H7       HDP1A    0.363000        1.0080           0   0.00000   0.00000
       660 IM1H     33       IM1H     LPN21    LPD      0.000000        0.0000           -1   0.00000   0.00000
       661 IM1H     34       IM1H     C1       CD33F    2.485000       11.6110           0   -1.18100   1.10000
       662 IM1H     34       IM1H     DC1      DRUD    -2.667000        0.4000           0   0.00000   0.00000
       663 IM1H     34       IM1H     H1       HDA3A    0.135000        1.0080           0   0.00000   0.00000
       664 IM1H     34       IM1H     H2       HDA3A    0.135000        1.0080           0   0.00000   0.00000
       665 IM1H     34       IM1H     H3       HDA3A    0.135000        1.0080           0   0.00000   0.00000
       666 IM1H     34       IM1H     N1       ND2R5C   2.357200       13.6070           0   -0.803000   1.00000
       667 IM1H     34       IM1H     DN1      DRUD    -2.199200        0.4000           0   0.00000   0.00000
       668 IM1H     34       IM1H     C2       CD2R5D   2.447000       11.6110           0   -1.08300   1.10000
       669 IM1H     34       IM1H     DC2      DRUD    -2.554000        0.4000           0   0.00000   0.00000
       670 IM1H     34       IM1H     H4       HDR5D    0.195000        1.0080           0   0.00000   0.00000
       671 IM1H     34       IM1H     C3       CD2R5D   2.507000       11.6110           0   -1.08300   1.10000
       672 IM1H     34       IM1H     DC3      DRUD    -2.554000        0.4000           0   0.00000   0.00000
       673 IM1H     34       IM1H     H5       HDR5D    0.192000        1.0080           0   0.00000   0.00000
       674 IM1H     34       IM1H     C4       CD2R5E   2.724100       11.6110           0   -1.25300   1.20000
       675 IM1H     34       IM1H     DC4      DRUD    -2.747100        0.4000           0   0.00000   0.00000
       676 IM1H     34       IM1H     H6       HDR5E    0.203000        1.0080           0   0.00000   0.00000
       677 IM1H     34       IM1H     N2       ND2R5C   2.042200       13.6070           0   -0.803000   1.00000
       678 IM1H     34       IM1H     DN2      DRUD    -2.199200        0.4000           0   0.00000   0.00000
       679 IM1H     34       IM1H     H7       HDP1A    0.363000        1.0080           0   0.00000   0.00000
       680 IM1H     34       IM1H     LPN21    LPD      0.000000        0.0000           -1   0.00000   0.00000
       681 IM1H     35       IM1H     C1       CD33F    2.485000       11.6110           0   -1.18100   1.10000
       682 IM1H     35       IM1H     DC1      DRUD    -2.667000        0.4000           0   0.00000   0.00000
       683 IM1H     35       IM1H     H1       HDA3A    0.135000        1.0080           0   0.00000   0.00000
       684 IM1H     35       IM1H     H2       HDA3A    0.135000        1.0080           0   0.00000   0.00000
       685 IM1H     35       IM1H     H3       HDA3A    0.135000        1.0080           0   0.00000   0.00000
       686 IM1H     35       IM1H     N1       ND2R5C   2.357200       13.6070           0   -0.803000   1.00000
       687 IM1H     35       IM1H     DN1      DRUD    -2.199200        0.4000           0   0.00000   0.00000
       688 IM1H     35       IM1H     C2       CD2R5D   2.447000       11.6110           0   -1.08300   1.10000
       689 IM1H     35       IM1H     DC2      DRUD    -2.554000        0.4000           0   0.00000   0.00000
       690 IM1H     35       IM1H     H4       HDR5D    0.195000        1.0080           0   0.00000   0.00000
       691 IM1H     35       IM1H     C3       CD2R5D   2.507000       11.6110           0   -1.08300   1.10000
       692 IM1H     35       IM1H     DC3      DRUD    -2.554000        0.4000           0   0.00000   0.00000
       693 IM1H     35       IM1H     H5       HDR5D    0.192000        1.0080           0   0.00000   0.00000
       694 IM1H     35       IM1H     C4       CD2R5E   2.724100       11.6110           0   -1.25300   1.20000
       695 IM1H     35       IM1H     DC4      DRUD    -2.747100        0.4000           0   0.00000   0.00000
       696 IM1H     35       IM1H     H6       HDR5E    0.203000        1.0080           0   0.00000   0.00000
       697 IM1H     35       IM1H     N2       ND2R5C   2.042200       13.6070           0   -0.803000   1.00000
       698 IM1H     35       IM1H     DN2      DRUD    -2.199200        0.4000           0   0.00000   0.00000
       699 IM1H     35       IM1H     H7       HDP1A    0.363000        1.0080           0   0.00000   0.00000
       700 IM1H     35       IM1H     LPN21    LPD      0.000000        0.0000           -1   0.00000   0.00000
       701 IM1H     36       IM1H     C1       CD33F    2.485000       11.6110           0   -1.18100   1.10000
       702 IM1H     36       IM1H     DC1      DRUD    -2.667000        0.4000           0   0.00000   0.00000
       703 IM1H     36       IM1H     H1       HDA3A    0.135000        1.0080           0   0.00000   0.00000
       704 IM1H     36       IM1H     H2       HDA3A    0.135000        1.0080           0   0.00000   0.00000
       705 IM1H     36       IM1H     H3       HDA3A    0.135000        1.0080           0   0.00000   0.00000
       706 IM1H     36       IM1H     N1       ND2R5C   2.357200       13.6070           0   -0.803000   1.00000
       707 IM1H     36       IM1H     DN1      DRUD    -2.199200        0.4000           0   0.00000   0.00000
       708 IM1H     36       IM1H     C2       CD2R5D   2.447000       11.6110           0   -1.08300   1.10000
       709 IM1H     36       IM1H     DC2      DRUD    -2.554000        0.4000           0   0.00000   0.00000
       710 IM1H     36       IM1H     H4       HDR5D    0.195000        1.0080           0   0.00000   0.00000
       711 IM1H     36       IM1H     C3       CD2R5D   2.507000       11.6110           0   -1.08300   1.10000
       712 IM1H     36       IM1H     DC3      DRUD    -2.554000        0.4000           0   0.00000   0.00000
       713 IM1H     36       IM1H     H5       HDR5D    0.192000        1.0080           0   0.00000   0.00000
       714 IM1H     36       IM1H     C4       CD2R5E   2.724100       11.6110           0   -1.25300   1.20000
       715 IM1H     36       IM1H     DC4      DRUD    -2.747100        0.4000           0   0.00000   0.00000
       716 IM1H     36       IM1H     H6       HDR5E    0.203000        1.0080           0   0.00000   0.00000
       717 IM1H     36       IM1H     N2       ND2R5C   2.042200       13.6070           0   -0.803000   1.00000
       718 IM1H     36       IM1H     DN2      DRUD    -2.199200        0.4000           0   0.00000   0.00000
       719 IM1H     36       IM1H     H7       HDP1A    0.363000        1.0080           0   0.00000   0.00000
       720 IM1H     36       IM1H     LPN21    LPD      0.000000        0.0000           -1   0.00000   0.00000
       721 IM1H     37       IM1H     C1       CD33F    2.485000       11.6110           0   -1.18100   1.10000
       722 IM1H     37       IM1H     DC1      DRUD    -2.667000        0.4000           0   0.00000   0.00000
       723 IM1H     37       IM1H     H1       HDA3A    0.135000        1.0080           0   0.00000   0.00000
       724 IM1H     37       IM1H     H2       HDA3A    0.135000        1.0080           0   0.00000   0.00000
       725 IM1H     37       IM1H     H3       HDA3A    0.135000        1.0080           0   0.00000   0.00000
       726 IM1H     37       IM1H     N1       ND2R5C   2.357200       13.6070           0   -0.803000   1.00000
       727 IM1H     37       IM1H     DN1      DRUD    -2.199200        0.4000           0   0.00000   0.00000
       728 IM1H     37       IM1H     C2       CD2R5D   2.447000       11.6110           0   -1.08300   1.10000
       729 IM1H     37       IM1H     DC2      DRUD    -2.554000        0.4000           0   0.00000   0.00000
       730 IM1H     37       IM1H     H4       HDR5D    0.195000        1.0080           0   0.00000   0.00000
       731 IM1H     37       IM1H     C3       CD2R5D   2.507000       11.6110           0   -1.08300   1.10000
       732 IM1H     37       IM1H     DC3      DRUD    -2.554000        0.4000           0   0.00000   0.00000
       733 IM1H     37       IM1H     H5       HDR5D    0.192000        1.0080           0   0.00000   0.00000
       734 IM1H     37       IM1H     C4       CD2R5E   2.724100       11.6110           0   -1.25300   1.20000
       735 IM1H     37       IM1H     DC4      DRUD    -2.747100        0.4000           0   0.00000   0.00000
       736 IM1H     37       IM1H     H6       HDR5E    0.203000        1.0080           0   0.00000   0.00000
       737 IM1H     37       IM1H     N2       ND2R5C   2.042200       13.6070           0   -0.803000   1.00000
       738 IM1H     37       IM1H     DN2      DRUD    -2.199200        0.4000           0   0.00000   0.00000
       739 IM1H     37       IM1H     H7       HDP1A    0.363000        1.0080           0   0.00000   0.00000
       740 IM1H     37       IM1H     LPN21    LPD      0.000000        0.0000           -1   0.00000   0.00000
       741 IM1H     38       IM1H     C1       CD33F    2.485000       11.6110           0   -1.18100   1.10000
       742 IM1H     38       IM1H     DC1      DRUD    -2.667000        0.4000           0   0.00000   0.00000
       743 IM1H     38       IM1H     H1       HDA3A    0.135000        1.0080           0   0.00000   0.00000
       744 IM1H     38       IM1H     H2       HDA3A    0.135000        1.0080           0   0.00000   0.00000
       745 IM1H     38       IM1H     H3       HDA3A    0.135000        1.0080           0   0.00000   0.00000
       746 IM1H     38       IM1H     N1       ND2R5C   2.357200       13.6070           0   -0.803000   1.00000
       747 IM1H     38       IM1H     DN1      DRUD    -2.199200        0.4000           0   0.00000   0.00000
       748 IM1H     38       IM1H     C2       CD2R5D   2.447000       11.6110           0   -1.08300   1.10000
       749 IM1H     38       IM1H     DC2      DRUD    -2.554000        0.4000           0   0.00000   0.00000
       750 IM1H     38       IM1H     H4       HDR5D    0.195000        1.0080           0   0.00000   0.00000
       751 IM1H     38       IM1H     C3       CD2R5D   2.507000       11.6110           0   -1.08300   1.10000
       752 IM1H     38       IM1H     DC3      DRUD    -2.554000        0.4000           0   0.00000   0.00000
       753 IM1H     38       IM1H     H5       HDR5D    0.192000        1.0080           0   0.00000   0.00000
       754 IM1H     38       IM1H     C4       CD2R5E   2.724100       11.6110           0   -1.25300   1.20000
       755 IM1H     38       IM1H     DC4      DRUD    -2.747100        0.4000           0   0.00000   0.00000
       756 IM1H     38       IM1H     H6       HDR5E    0.203000        1.0080           0   0.00000   0.00000
       757 IM1H     38       IM1H     N2       ND2R5C   2.042200       13.6070           0   -0.803000   1.00000
       758 IM1H     38       IM1H     DN2      DRUD    -2.199200        0.4000           0   0.00000   0.00000
       759 IM1H     38       IM1H     H7       HDP1A    0.363000        1.0080           0   0.00000   0.00000
       760 IM1H     38       IM1H     LPN21    LPD      0.000000        0.0000           -1   0.00000   0.00000
       761 IM1H     39       IM1H     C1       CD33F    2.485000       11.6110           0   -1.18100   1.10000
       762 IM1H     39       IM1H     DC1      DRUD    -2.667000        0.4000           0   0.00000   0.00000
       763 IM1H     39       IM1H     H1       HDA3A    0.135000        1.0080           0   0.00000   0.00000
       764 IM1H     39       IM1H     H2       HDA3A    0.135000        1.0080           0   0.00000   0.00000
       765 IM1H     39       IM1H     H3       HDA3A    0.135000        1.0080           0   0.00000   0.00000
       766 IM1H     39       IM1H     N1       ND2R5C   2.357200       13.6070           0   -0.803000   1.00000
       767 IM1H     39       IM1H     DN1      DRUD    -2.199200        0.4000           0   0.00000   0.00000
       768 IM1H     39       IM1H     C2       CD2R5D   2.447000       11.6110           0   -1.08300   1.10000
       769 IM1H     39       IM1H     DC2      DRUD    -2.554000        0.4000           0   0.00000   0.00000
       770 IM1H     39       IM1H     H4       HDR5D    0.195000        1.0080           0   0.00000   0.00000
       771 IM1H     39       IM1H     C3       CD2R5D   2.507000       11.6110           0   -1.08300   1.10000
       772 IM1H     39       IM1H     DC3      DRUD    -2.554000        0.4000           0   0.00000   0.00000
       773 IM1H     39       IM1H     H5       HDR5D    0.192000        1.0080           0   0.00000   0.00000
       774 IM1H     39       IM1H     C4       CD2R5E   2.724100       11.6110           0   -1.25300   1.20000
       775 IM1H     39       IM1H     DC4      DRUD    -2.747100        0.4000           0   0.00000   0.00000
       776 IM1H     39       IM1H     H6       HDR5E    0.203000        1.0080           0   0.00000   0.00000
       777 IM1H     39       IM1H     N2       ND2R5C   2.042200       13.6070           0   -0.803000   1.00000
       778 IM1H     39       IM1H     DN2      DRUD    -2.199200        0.4000           0   0.00000   0.00000
       779 IM1H     39       IM1H     H7       HDP1A    0.363000        1.0080           0   0.00000   0.00000
       780 IM1H     39       IM1H     LPN21    LPD      0.000000        0.0000           -1   0.00000   0.00000
       781 IM1H     40       IM1H     C1       CD33F    2.485000       11.6110           0   -1.18100   1.10000
       782 IM1H     40       IM1H     DC1      DRUD    -2.667000        0.4000           0   0.00000   0.00000
       783 IM1H     40       IM1H     H1       HDA3A    0.135000        1.0080           0   0.00000   0.00000
       784 IM1H     40       IM1H     H2       HDA3A    0.135000        1.0080           0   0.00000   0.00000
       785 IM1H     40       IM1H     H3       HDA3A    0.135000        1.0080           0   0.00000   0.00000
       786 IM1H     40       IM1H     N1       ND2R5C   2.357200       13.6070           0   -0.803000   1.00000
       787 IM1H     40       IM1H     DN1      DRUD    -2.199200        0.4000           0   0.00000   0.00000
       788 IM1H     40       IM1H     C2       CD2R5D   2.447000       11.6110           0   -1.08300   1.10000
       789 IM1H     40       IM1H     DC2      DRUD    -2.554000        0.4000           0   0.00000   0.00000
       790 IM1H     40       IM1H     H4       HDR5D    0.195000        1.0080           0   0.00000   0.00000
       791 IM1H     40       IM1H     C3       CD2R5D   2.507000       11.6110           0   -1.08300   1.10000
       792 IM1H     40       IM1H     DC3      DRUD    -2.554000        0.4000           0   0.00000   0.00000
       793 IM1H     40       IM1H     H5       HDR5D    0.192000        1.0080           0   0.00000   0.00000
       794 IM1H     40       IM1H     C4       CD2R5E   2.724100       11.6110           0   -1.25300   1.20000
       795 IM1H     40       IM1H     DC4      DRUD    -2.747100        0.4000           0   0.00000   0.00000
       796 IM1H     40       IM1H     H6       HDR5E    0.203000        1.0080           0   0.00000   0.00000
       797 IM1H     40       IM1H     N2       ND2R5C   2.042200       13.6070           0   -0.803000   1.00000
       798 IM1H     40       IM1H     DN2      DRUD    -2.199200        0.4000           0   0.00000   0.00000
       799 IM1H     40       IM1H     H7       HDP1A    0.363000        1.0080           0   0.00000   0.00000
       800 IM1H     40       IM1H     LPN21    LPD      0.000000        0.0000           -1   0.00000   0.00000
       801 IM1H     41       IM1H     C1       CD33F    2.485000       11.6110           0   -1.18100   1.10000
       802 IM1H     41       IM1H     DC1      DRUD    -2.667000        0.4000           0   0.00000   0.00000
       803 IM1H     41       IM1H     H1       HDA3A    0.135000        1.0080           0   0.00000   0.00000
       804 IM1H     41       IM1H     H2       HDA3A    0.135000        1.0080           0   0.00000   0.00000
       805 IM1H     41       IM1H     H3       HDA3A    0.135000        1.0080           0   0.00000   0.00000
       806 IM1H     41       IM1H     N1       ND2R5C   2.357200       13.6070           0   -0.803000   1.00000
       807 IM1H     41       IM1H     DN1      DRUD    -2.199200        0.4000           0   0.00000   0.00000
       808 IM1H     41       IM1H     C2       CD2R5D   2.447000       11.6110           0   -1.08300   1.10000
       809 IM1H     41       IM1H     DC2      DRUD    -2.554000        0.4000           0   0.00000   0.00000
       810 IM1H     41       IM1H     H4       HDR5D    0.195000        1.0080           0   0.00000   0.00000
       811 IM1H     41       IM1H     C3       CD2R5D   2.507000       11.6110           0   -1.08300   1.10000
       812 IM1H     41       IM1H     DC3      DRUD    -2.554000        0.4000           0   0.00000   0.00000
       813 IM1H     41       IM1H     H5       HDR5D    0.192000        1.0080           0   0.00000   0.00000
       814 IM1H     41       IM1H     C4       CD2R5E   2.724100       11.6110           0   -1.25300   1.20000
       815 IM1H     41       IM1H     DC4      DRUD    -2.747100        0.4000           0   0.00000   0.00000
       816 IM1H     41       IM1H     H6       HDR5E    0.203000        1.0080           0   0.00000   0.00000
       817 IM1H     41       IM1H     N2       ND2R5C   2.042200       13.6070           0   -0.803000   1.00000
       818 IM1H     41       IM1H     DN2      DRUD    -2.199200        0.4000           0   0.00000   0.00000
       819 IM1H     41       IM1H     H7       HDP1A    0.363000        1.0080           0   0.00000   0.00000
       820 IM1H     41       IM1H     LPN21    LPD      0.000000        0.0000           -1   0.00000   0.00000
       821 IM1H     42       IM1H     C1       CD33F    2.485000       11.6110           0   -1.18100   1.10000
       822 IM1H     42       IM1H     DC1      DRUD    -2.667000        0.4000           0   0.00000   0.00000
       823 IM1H     42       IM1H     H1       HDA3A    0.135000        1.0080           0   0.00000   0.00000
       824 IM1H     42       IM1H     H2       HDA3A    0.135000        1.0080           0   0.00000   0.00000
       825 IM1H     42       IM1H     H3       HDA3A    0.135000        1.0080           0   0.00000   0.00000
       826 IM1H     42       IM1H     N1       ND2R5C   2.357200       13.6070           0   -0.803000   1.00000
       827 IM1H     42       IM1H     DN1      DRUD    -2.199200        0.4000           0   0.00000   0.00000
       828 IM1H     42       IM1H     C2       CD2R5D   2.447000       11.6110           0   -1.08300   1.10000
       829 IM1H     42       IM1H     DC2      DRUD    -2.554000        0.4000           0   0.00000   0.00000
       830 IM1H     42       IM1H     H4       HDR5D    0.195000        1.0080           0   0.00000   0.00000
       831 IM1H     42       IM1H     C3       CD2R5D   2.507000       11.6110           0   -1.08300   1.10000
       832 IM1H     42       IM1H     DC3      DRUD    -2.554000        0.4000           0   0.00000   0.00000
       833 IM1H     42       IM1H     H5       HDR5D    0.192000        1.0080           0   0.00000   0.00000
       834 IM1H     42       IM1H     C4       CD2R5E   2.724100       11.6110           0   -1.25300   1.20000
       835 IM1H     42       IM1H     DC4      DRUD    -2.747100        0.4000           0   0.00000   0.00000
       836 IM1H     42       IM1H     H6       HDR5E    0.203000        1.0080           0   0.00000   0.00000
       837 IM1H     42       IM1H     N2       ND2R5C   2.042200       13.6070           0   -0.803000   1.00000
       838 IM1H     42       IM1H     DN2      DRUD    -2.199200        0.4000           0   0.00000   0.00000
       839 IM1H     42       IM1H     H7       HDP1A    0.363000        1.0080           0   0.00000   0.00000
       840 IM1H     42       IM1H     LPN21    LPD      0.000000        0.0000           -1   0.00000   0.00000
       841 IM1H     43       IM1H     C1       CD33F    2.485000       11.6110           0   -1.18100   1.10000
       842 IM1H     43       IM1H     DC1      DRUD    -2.667000        0.4000           0   0.00000   0.00000
       843 IM1H     43       IM1H     H1       HDA3A    0.135000        1.0080           0   0.00000   0.00000
       844 IM1H     43       IM1H     H2       HDA3A    0.135000        1.0080           0   0.00000   0.00000
       845 IM1H     43       IM1H     H3       HDA3A    0.135000        1.0080           0   0.00000   0.00000
       846 IM1H     43       IM1H     N1       ND2R5C   2.357200       13.6070           0   -0.803000   1.00000
       847 IM1H     43       IM1H     DN1      DRUD    -2.199200        0.4000           0   0.00000   0.00000
       848 IM1H     43       IM1H     C2       CD2R5D   2.447000       11.6110           0   -1.08300   1.10000
       849 IM1H     43       IM1H     DC2      DRUD    -2.554000        0.4000           0   0.00000   0.00000
       850 IM1H     43       IM1H     H4       HDR5D    0.195000        1.0080           0   0.00000   0.00000
       851 IM1H     43       IM1H     C3       CD2R5D   2.507000       11.6110           0   -1.08300   1.10000
       852 IM1H     43       IM1H     DC3      DRUD    -2.554000        0.4000           0   0.00000   0.00000
       853 IM1H     43       IM1H     H5       HDR5D    0.192000        1.0080           0   0.00000   0.00000
       854 IM1H     43       IM1H     C4       CD2R5E   2.724100       11.6110           0   -1.25300   1.20000
       855 IM1H     43       IM1H     DC4      DRUD    -2.747100        0.4000           0   0.00000   0.00000
       856 IM1H     43       IM1H     H6       HDR5E    0.203000        1.0080           0   0.00000   0.00000
       857 IM1H     43       IM1H     N2       ND2R5C   2.042200       13.6070           0   -0.803000   1.00000
       858 IM1H     43       IM1H     DN2      DRUD    -2.199200        0.4000           0   0.00000   0.00000
       859 IM1H     43       IM1H     H7       HDP1A    0.363000        1.0080           0   0.00000   0.00000
       860 IM1H     43       IM1H     LPN21    LPD      0.000000        0.0000           -1   0.00000   0.00000
       861 IM1H     44       IM1H     C1       CD33F    2.485000       11.6110           0   -1.18100   1.10000
       862 IM1H     44       IM1H     DC1      DRUD    -2.667000        0.4000           0   0.00000   0.00000
       863 IM1H     44       IM1H     H1       HDA3A    0.135000        1.0080           0   0.00000   0.00000
       864 IM1H     44       IM1H     H2       HDA3A    0.135000        1.0080           0   0.00000   0.00000
       865 IM1H     44       IM1H     H3       HDA3A    0.135000        1.0080           0   0.00000   0.00000
       866 IM1H     44       IM1H     N1       ND2R5C   2.357200       13.6070           0   -0.803000   1.00000
       867 IM1H     44       IM1H     DN1      DRUD    -2.199200        0.4000           0   0.00000   0.00000
       868 IM1H     44       IM1H     C2       CD2R5D   2.447000       11.6110           0   -1.08300   1.10000
       869 IM1H     44       IM1H     DC2      DRUD    -2.554000        0.4000           0   0.00000   0.00000
       870 IM1H     44       IM1H     H4       HDR5D    0.195000        1.0080           0   0.00000   0.00000
       871 IM1H     44       IM1H     C3       CD2R5D   2.507000       11.6110           0   -1.08300   1.10000
       872 IM1H     44       IM1H     DC3      DRUD    -2.554000        0.4000           0   0.00000   0.00000
       873 IM1H     44       IM1H     H5       HDR5D    0.192000        1.0080           0   0.00000   0.00000
       874 IM1H     44       IM1H     C4       CD2R5E   2.724100       11.6110           0   -1.25300   1.20000
       875 IM1H     44       IM1H     DC4      DRUD    -2.747100        0.4000           0   0.00000   0.00000
       876 IM1H     44       IM1H     H6       HDR5E    0.203000        1.0080           0   0.00000   0.00000
       877 IM1H     44       IM1H     N2       ND2R5C   2.042200       13.6070           0   -0.803000   1.00000
       878 IM1H     44       IM1H     DN2      DRUD    -2.199200        0.4000           0   0.00000   0.00000
       879 IM1H     44       IM1H     H7       HDP1A    0.363000        1.0080           0   0.00000   0.00000
       880 IM1H     44       IM1H     LPN21    LPD      0.000000        0.0000           -1   0.00000   0.00000
       881 IM1H     45       IM1H     C1       CD33F    2.485000       11.6110           0   -1.18100   1.10000
       882 IM1H     45       IM1H     DC1      DRUD    -2.667000        0.4000           0   0.00000   0.00000
       883 IM1H     45       IM1H     H1       HDA3A    0.135000        1.0080           0   0.00000   0.00000
       884 IM1H     45       IM1H     H2       HDA3A    0.135000        1.0080           0   0.00000   0.00000
       885 IM1H     45       IM1H     H3       HDA3A    0.135000        1.0080           0   0.00000   0.00000
       886 IM1H     45       IM1H     N1       ND2R5C   2.357200       13.6070           0   -0.803000   1.00000
       887 IM1H     45       IM1H     DN1      DRUD    -2.199200        0.4000           0   0.00000   0.00000
       888 IM1H     45       IM1H     C2       CD2R5D   2.447000       11.6110           0   -1.08300   1.10000
       889 IM1H     45       IM1H     DC2      DRUD    -2.554000        0.4000           0   0.00000   0.00000
       890 IM1H     45       IM1H     H4       HDR5D    0.195000        1.0080           0   0.00000   0.00000
       891 IM1H     45       IM1H     C3       CD2R5D   2.507000       11.6110           0   -1.08300   1.10000
       892 IM1H     45       IM1H     DC3      DRUD    -2.554000        0.4000           0   0.00000   0.00000
       893 IM1H     45       IM1H     H5       HDR5D    0.192000        1.0080           0   0.00000   0.00000
       894 IM1H     45       IM1H     C4       CD2R5E   2.724100       11.6110           0   -1.25300   1.20000
       895 IM1H     45       IM1H     DC4      DRUD    -2.747100        0.4000           0   0.00000   0.00000
       896 IM1H     45       IM1H     H6       HDR5E    0.203000        1.0080           0   0.00000   0.00000
       897 IM1H     45       IM1H     N2       ND2R5C   2.042200       13.6070           0   -0.803000   1.00000
       898 IM1H     45       IM1H     DN2      DRUD    -2.199200        0.4000           0   0.00000   0.00000
       899 IM1H     45       IM1H     H7       HDP1A    0.363000        1.0080           0   0.00000   0.00000
       900 IM1H     45       IM1H     LPN21    LPD      0.000000        0.0000           -1   0.00000   0.00000
       901 IM1H     46       IM1H     C1       CD33F    2.485000       11.6110           0   -1.18100   1.10000
       902 IM1H     46       IM1H     DC1      DRUD    -2.667000        0.4000           0   0.00000   0.00000
       903 IM1H     46       IM1H     H1       HDA3A    0.135000        1.0080           0   0.00000   0.00000
       904 IM1H     46       IM1H     H2       HDA3A    0.135000        1.0080           0   0.00000   0.00000
       905 IM1H     46       IM1H     H3       HDA3A    0.135000        1.0080           0   0.00000   0.00000
       906 IM1H     46       IM1H     N1       ND2R5C   2.357200       13.6070           0   -0.803000   1.00000
       907 IM1H     46       IM1H     DN1      DRUD    -2.199200        0.4000           0   0.00000   0.00000
       908 IM1H     46       IM1H     C2       CD2R5D   2.447000       11.6110           0   -1.08300   1.10000
       909 IM1H     46       IM1H     DC2      DRUD    -2.554000        0.4000           0   0.00000   0.00000
       910 IM1H     46       IM1H     H4       HDR5D    0.195000        1.0080           0   0.00000   0.00000
       911 IM1H     46       IM1H     C3       CD2R5D   2.507000       11.6110           0   -1.08300   1.10000
       912 IM1H     46       IM1H     DC3      DRUD    -2.554000        0.4000           0   0.00000   0.00000
       913 IM1H     46       IM1H     H5       HDR5D    0.192000        1.0080           0   0.00000   0.00000
       914 IM1H     46       IM1H     C4       CD2R5E   2.724100       11.6110           0   -1.25300   1.20000
       915 IM1H     46       IM1H     DC4      DRUD    -2.747100        0.4000           0   0.00000   0.00000
       916 IM1H     46       IM1H     H6       HDR5E    0.203000        1.0080           0   0.00000   0.00000
       917 IM1H     46       IM1H     N2       ND2R5C   2.042200       13.6070           0   -0.803000   1.00000
       918 IM1H     46       IM1H     DN2      DRUD    -2.199200        0.4000           0   0.00000   0.00000
       919 IM1H     46       IM1H     H7       HDP1A    0.363000        1.0080           0   0.00000   0.00000
       920 IM1H     46       IM1H     LPN21    LPD      0.000000        0.0000           -1   0.00000   0.00000
       921 IM1H     47       IM1H     C1       CD33F    2.485000       11.6110           0   -1.18100   1.10000
       922 IM1H     47       IM1H     DC1      DRUD    -2.667000        0.4000           0   0.00000   0.00000
       923 IM1H     47       IM1H     H1       HDA3A    0.135000        1.0080           0   0.00000   0.00000
       924 IM1H     47       IM1H     H2       HDA3A    0.135000        1.0080           0   0.00000   0.00000
       925 IM1H     47       IM1H     H3       HDA3A    0.135000        1.0080           0   0.00000   0.00000
       926 IM1H     47       IM1H     N1       ND2R5C   2.357200       13.6070           0   -0.803000   1.00000
       927 IM1H     47       IM1H     DN1      DRUD    -2.199200        0.4000           0   0.00000   0.00000
       928 IM1H     47       IM1H     C2       CD2R5D   2.447000       11.6110           0   -1.08300   1.10000
       929 IM1H     47       IM1H     DC2      DRUD    -2.554000        0.4000           0   0.00000   0.00000
       930 IM1H     47       IM1H     H4       HDR5D    0.195000        1.0080           0   0.00000   0.00000
       931 IM1H     47       IM1H     C3       CD2R5D   2.507000       11.6110           0   -1.08300   1.10000
       932 IM1H     47       IM1H     DC3      DRUD    -2.554000        0.4000           0   0.00000   0.00000
       933 IM1H     47       IM1H     H5       HDR5D    0.192000        1.0080           0   0.00000   0.00000
       934 IM1H     47       IM1H     C4       CD2R5E   2.724100       11.6110           0   -1.25300   1.20000
       935 IM1H     47       IM1H     DC4      DRUD    -2.747100        0.4000           0   0.00000   0.00000
       936 IM1H     47       IM1H     H6       HDR5E    0.203000        1.0080           0   0.00000   0.00000
       937 IM1H     47       IM1H     N2       ND2R5C   2.042200       13.6070           0   -0.803000   1.00000
       938 IM1H     47       IM1H     DN2      DRUD    -2.199200        0.4000           0   0.00000   0.00000
       939 IM1H     47       IM1H     H7       HDP1A    0.363000        1.0080           0   0.00000   0.00000
       940 IM1H     47       IM1H     LPN21    LPD      0.000000        0.0000           -1   0.00000   0.00000
       941 IM1H     48       IM1H     C1       CD33F    2.485000       11.6110           0   -1.18100   1.10000
       942 IM1H     48       IM1H     DC1      DRUD    -2.667000        0.4000           0   0.00000   0.00000
       943 IM1H     48       IM1H     H1       HDA3A    0.135000        1.0080           0   0.00000   0.00000
       944 IM1H     48       IM1H     H2       HDA3A    0.135000        1.0080           0   0.00000   0.00000
       945 IM1H     48       IM1H     H3       HDA3A    0.135000        1.0080           0   0.00000   0.00000
       946 IM1H     48       IM1H     N1       ND2R5C   2.357200       13.6070           0   -0.803000   1.00000
       947 IM1H     48       IM1H     DN1      DRUD    -2.199200        0.4000           0   0.00000   0.00000
       948 IM1H     48       IM1H     C2       CD2R5D   2.447000       11.6110           0   -1.08300   1.10000
       949 IM1H     48       IM1H     DC2      DRUD    -2.554000        0.4000           0   0.00000   0.00000
       950 IM1H     48       IM1H     H4       HDR5D    0.195000        1.0080           0   0.00000   0.00000
       951 IM1H     48       IM1H     C3       CD2R5D   2.507000       11.6110           0   -1.08300   1.10000
       952 IM1H     48       IM1H     DC3      DRUD    -2.554000        0.4000           0   0.00000   0.00000
       953 IM1H     48       IM1H     H5       HDR5D    0.192000        1.0080           0   0.00000   0.00000
       954 IM1H     48       IM1H     C4       CD2R5E   2.724100       11.6110           0   -1.25300   1.20000
       955 IM1H     48       IM1H     DC4      DRUD    -2.747100        0.4000           0   0.00000   0.00000
       956 IM1H     48       IM1H     H6       HDR5E    0.203000        1.0080           0   0.00000   0.00000
       957 IM1H     48       IM1H     N2       ND2R5C   2.042200       13.6070           0   -0.803000   1.00000
       958 IM1H     48       IM1H     DN2      DRUD    -2.199200        0.4000           0   0.00000   0.00000
       959 IM1H     48       IM1H     H7       HDP1A    0.363000        1.0080           0   0.00000   0.00000
       960 IM1H     48       IM1H     LPN21    LPD      0.000000        0.0000           -1   0.00000   0.00000
       961 IM1H     49       IM1H     C1       CD33F    2.485000       11.6110           0   -1.18100   1.10000
       962 IM1H     49       IM1H     DC1      DRUD    -2.667000        0.4000           0   0.00000   0.00000
       963 IM1H     49       IM1H     H1       HDA3A    0.135000        1.0080           0   0.00000   0.00000
       964 IM1H     49       IM1H     H2       HDA3A    0.135000        1.0080           0   0.00000   0.00000
       965 IM1H     49       IM1H     H3       HDA3A    0.135000        1.0080           0   0.00000   0.00000
       966 IM1H     49       IM1H     N1       ND2R5C   2.357200       13.6070           0   -0.803000   1.00000
       967 IM1H     49       IM1H     DN1      DRUD    -2.199200        0.4000           0   0.00000   0.00000
       968 IM1H     49       IM1H     C2       CD2R5D   2.447000       11.6110           0   -1.08300   1.10000
       969 IM1H     49       IM1H     DC2      DRUD    -2.554000        0.4000           0   0.00000   0.00000
       970 IM1H     49       IM1H     H4       HDR5D    0.195000        1.0080           0   0.00000   0.00000
       971 IM1H     49       IM1H     C3       CD2R5D   2.507000       11.6110           0   -1.08300   1.10000
       972 IM1H     49       IM1H     DC3      DRUD    -2.554000        0.4000           0   0.00000   0.00000
       973 IM1H     49       IM1H     H5       HDR5D    0.192000        1.0080           0   0.00000   0.00000
       974 IM1H     49       IM1H     C4       CD2R5E   2.724100       11.6110           0   -1.25300   1.20000
       975 IM1H     49       IM1H     DC4      DRUD    -2.747100        0.4000           0   0.00000   0.00000
       976 IM1H     49       IM1H     H6       HDR5E    0.203000        1.0080           0   0.00000   0.00000
       977 IM1H     49       IM1H     N2       ND2R5C   2.042200       13.6070           0   -0.803000   1.00000
       978 IM1H     49       IM1H     DN2      DRUD    -2.199200        0.4000           0   0.00000   0.00000
       979 IM1H     49       IM1H     H7       HDP1A    0.363000        1.0080           0   0.00000   0.00000
       980 IM1H     49       IM1H     LPN21    LPD      0.000000        0.0000           -1   0.00000   0.00000
       981 IM1H     50       IM1H     C1       CD33F    2.485000       11.6110           0   -1.18100   1.10000
       982 IM1H     50       IM1H     DC1      DRUD    -2.667000        0.4000           0   0.00000   0.00000
       983 IM1H     50       IM1H     H1       HDA3A    0.135000        1.0080           0   0.00000   0.00000
       984 IM1H     50       IM1H     H2       HDA3A    0.135000        1.0080           0   0.00000   0.00000
       985 IM1H     50       IM1H     H3       HDA3A    0.135000        1.0080           0   0.00000   0.00000
       986 IM1H     50       IM1H     N1       ND2R5C   2.357200       13.6070           0   -0.803000   1.00000
       987 IM1H     50       IM1H     DN1      DRUD    -2.199200        0.4000           0   0.00000   0.00000
       988 IM1H     50       IM1H     C2       CD2R5D   2.447000       11.6110           0   -1.08300   1.10000
       989 IM1H     50       IM1H     DC2      DRUD    -2.554000        0.4000           0   0.00000   0.00000
       990 IM1H     50       IM1H     H4       HDR5D    0.195000        1.0080           0   0.00000   0.00000
       991 IM1H     50       IM1H     C3       CD2R5D   2.507000       11.6110           0   -1.08300   1.10000
       992 IM1H     50       IM1H     DC3      DRUD    -2.554000        0.4000           0   0.00000   0.00000
       993 IM1H     50       IM1H     H5       HDR5D    0.192000        1.0080           0   0.00000   0.00000
       994 IM1H     50       IM1H     C4       CD2R5E   2.724100       11.6110           0   -1.25300   1.20000
       995 IM1H     50       IM1H     DC4      DRUD    -2.747100        0.4000           0   0.00000   0.00000
       996 IM1H     50       IM1H     H6       HDR5E    0.203000        1.0080           0   0.00000   0.00000
       997 IM1H     50       IM1H     N2       ND2R5C   2.042200       13.6070           0   -0.803000   1.00000
       998 IM1H     50       IM1H     DN2      DRUD    -2.199200        0.4000           0   0.00000   0.00000
       999 IM1H     50       IM1H     H7       HDP1A    0.363000        1.0080           0   0.00000   0.00000
      1000 IM1H     50       IM1H     LPN21    LPD      0.000000        0.0000           -1   0.00000   0.00000
      1001 IM1H     51       IM1H     C1       CD33F    2.485000       11.6110           0   -1.18100   1.10000
      1002 IM1H     51       IM1H     DC1      DRUD    -2.667000        0.4000           0   0.00000   0.00000
      1003 IM1H     51       IM1H     H1       HDA3A    0.135000        1.0080           0   0.00000   0.00000
      1004 IM1H     51       IM1H     H2       HDA3A    0.135000        1.0080           0   0.00000   0.00000
      1005 IM1H     51       IM1H     H3       HDA3A    0.135000        1.0080           0   0.00000   0.00000
      1006 IM1H     51       IM1H     N1       ND2R5C   2.357200       13.6070           0   -0.803000   1.00000
      1007 IM1H     51       IM1H     DN1      DRUD    -2.199200        0.4000           0   0.00000   0.00000
      1008 IM1H     51       IM1H     C2       CD2R5D   2.447000       11.6110           0   -1.08300   1.10000
      1009 IM1H     51       IM1H     DC2      DRUD    -2.554000        0.4000           0   0.00000   0.00000
      1010 IM1H     51       IM1H     H4       HDR5D    0.195000        1.0080           0   0.00000   0.00000
      1011 IM1H     51       IM1H     C3       CD2R5D   2.507000       11.6110           0   -1.08300   1.10000
      1012 IM1H     51       IM1H     DC3      DRUD    -2.554000        0.4000           0   0.00000   0.00000
      1013 IM1H     51       IM1H     H5       HDR5D    0.192000        1.0080           0   0.00000   0.00000
      1014 IM1H     51       IM1H     C4       CD2R5E   2.724100       11.6110           0   -1.25300   1.20000
      1015 IM1H     51       IM1H     DC4      DRUD    -2.747100        0.4000           0   0.00000   0.00000
      1016 IM1H     51       IM1H     H6       HDR5E    0.203000        1.0080           0   0.00000   0.00000
      1017 IM1H     51       IM1H     N2       ND2R5C   2.042200       13.6070           0   -0.803000   1.00000
      1018 IM1H     51       IM1H     DN2      DRUD    -2.199200        0.4000           0   0.00000   0.00000
      1019 IM1H     51       IM1H     H7       HDP1A    0.363000        1.0080           0   0.00000   0.00000
      1020 IM1H     51       IM1H     LPN21    LPD      0.000000        0.0000           -1   0.00000   0.00000
      1021 IM1H     52       IM1H     C1       CD33F    2.485000       11.6110           0   -1.18100   1.10000
      1022 IM1H     52       IM1H     DC1      DRUD    -2.667000        0.4000           0   0.00000   0.00000
      1023 IM1H     52       IM1H     H1       HDA3A    0.135000        1.0080           0   0.00000   0.00000
      1024 IM1H     52       IM1H     H2       HDA3A    0.135000        1.0080           0   0.00000   0.00000
      1025 IM1H     52       IM1H     H3       HDA3A    0.135000        1.0080           0   0.00000   0.00000
      1026 IM1H     52       IM1H     N1       ND2R5C   2.357200       13.6070           0   -0.803000   1.00000
      1027 IM1H     52       IM1H     DN1      DRUD    -2.199200        0.4000           0   0.00000   0.00000
      1028 IM1H     52       IM1H     C2       CD2R5D   2.447000       11.6110           0   -1.08300   1.10000
      1029 IM1H     52       IM1H     DC2      DRUD    -2.554000        0.4000           0   0.00000   0.00000
      1030 IM1H     52       IM1H     H4       HDR5D    0.195000        1.0080           0   0.00000   0.00000
      1031 IM1H     52       IM1H     C3       CD2R5D   2.507000       11.6110           0   -1.08300   1.10000
      1032 IM1H     52       IM1H     DC3      DRUD    -2.554000        0.4000           0   0.00000   0.00000
      1033 IM1H     52       IM1H     H5       HDR5D    0.192000        1.0080           0   0.00000   0.00000
      1034 IM1H     52       IM1H     C4       CD2R5E   2.724100       11.6110           0   -1.25300   1.20000
      1035 IM1H     52       IM1H     DC4      DRUD    -2.747100        0.4000           0   0.00000   0.00000
      1036 IM1H     52       IM1H     H6       HDR5E    0.203000        1.0080           0   0.00000   0.00000
      1037 IM1H     52       IM1H     N2       ND2R5C   2.042200       13.6070           0   -0.803000   1.00000
      1038 IM1H     52       IM1H     DN2      DRUD    -2.199200        0.4000           0   0.00000   0.00000
      1039 IM1H     52       IM1H     H7       HDP1A    0.363000        1.0080           0   0.00000   0.00000
      1040 IM1H     52       IM1H     LPN21    LPD      0.000000        0.0000           -1   0.00000   0.00000
      1041 IM1H     53       IM1H     C1       CD33F    2.485000       11.6110           0   -1.18100   1.10000
      1042 IM1H     53       IM1H     DC1      DRUD    -2.667000        0.4000           0   0.00000   0.00000
      1043 IM1H     53       IM1H     H1       HDA3A    0.135000        1.0080           0   0.00000   0.00000
      1044 IM1H     53       IM1H     H2       HDA3A    0.135000        1.0080           0   0.00000   0.00000
      1045 IM1H     53       IM1H     H3       HDA3A    0.135000        1.0080           0   0.00000   0.00000
      1046 IM1H     53       IM1H     N1       ND2R5C   2.357200       13.6070           0   -0.803000   1.00000
      1047 IM1H     53       IM1H     DN1      DRUD    -2.199200        0.4000           0   0.00000   0.00000
      1048 IM1H     53       IM1H     C2       CD2R5D   2.447000       11.6110           0   -1.08300   1.10000
      1049 IM1H     53       IM1H     DC2      DRUD    -2.554000        0.4000           0   0.00000   0.00000
      1050 IM1H     53       IM1H     H4       HDR5D    0.195000        1.0080           0   0.00000   0.00000
      1051 IM1H     53       IM1H     C3       CD2R5D   2.507000       11.6110           0   -1.08300   1.10000
      1052 IM1H     53       IM1H     DC3      DRUD    -2.554000        0.4000           0   0.00000   0.00000
      1053 IM1H     53       IM1H     H5       HDR5D    0.192000        1.0080           0   0.00000   0.00000
      1054 IM1H     53       IM1H     C4       CD2R5E   2.724100       11.6110           0   -1.25300   1.20000
      1055 IM1H     53       IM1H     DC4      DRUD    -2.747100        0.4000           0   0.00000   0.00000
      1056 IM1H     53       IM1H     H6       HDR5E    0.203000        1.0080           0   0.00000   0.00000
      1057 IM1H     53       IM1H     N2       ND2R5C   2.042200       13.6070           0   -0.803000   1.00000
      1058 IM1H     53       IM1H     DN2      DRUD    -2.199200        0.4000           0   0.00000   0.00000
      1059 IM1H     53       IM1H     H7       HDP1A    0.363000        1.0080           0   0.00000   0.00000
      1060 IM1H     53       IM1H     LPN21    LPD      0.000000        0.0000           -1   0.00000   0.00000
      1061 IM1H     54       IM1H     C1       CD33F    2.485000       11.6110           0   -1.18100   1.10000
      1062 IM1H     54       IM1H     DC1      DRUD    -2.667000        0.4000           0   0.00000   0.00000
      1063 IM1H     54       IM1H     H1       HDA3A    0.135000        1.0080           0   0.00000   0.00000
      1064 IM1H     54       IM1H     H2       HDA3A    0.135000        1.0080           0   0.00000   0.00000
      1065 IM1H     54       IM1H     H3       HDA3A    0.135000        1.0080           0   0.00000   0.00000
      1066 IM1H     54       IM1H     N1       ND2R5C   2.357200       13.6070           0   -0.803000   1.00000
      1067 IM1H     54       IM1H     DN1      DRUD    -2.199200        0.4000           0   0.00000   0.00000
      1068 IM1H     54       IM1H     C2       CD2R5D   2.447000       11.6110           0   -1.08300   1.10000
      1069 IM1H     54       IM1H     DC2      DRUD    -2.554000        0.4000           0   0.00000   0.00000
      1070 IM1H     54       IM1H     H4       HDR5D    0.195000        1.0080           0   0.00000   0.00000
      1071 IM1H     54       IM1H     C3       CD2R5D   2.507000       11.6110           0   -1.08300   1.10000
      1072 IM1H     54       IM1H     DC3      DRUD    -2.554000        0.4000           0   0.00000   0.00000
      1073 IM1H     54       IM1H     H5       HDR5D    0.192000        1.0080           0   0.00000   0.00000
      1074 IM1H     54       IM1H     C4       CD2R5E   2.724100       11.6110           0   -1.25300   1.20000
      1075 IM1H     54       IM1H     DC4      DRUD    -2.747100        0.4000           0   0.00000   0.00000
      1076 IM1H     54       IM1H     H6       HDR5E    0.203000        1.0080           0   0.00000   0.00000
      1077 IM1H     54       IM1H     N2       ND2R5C   2.042200       13.6070           0   -0.803000   1.00000
      1078 IM1H     54       IM1H     DN2      DRUD    -2.199200        0.4000           0   0.00000   0.00000
      1079 IM1H     54       IM1H     H7       HDP1A    0.363000        1.0080           0   0.00000   0.00000
      1080 IM1H     54       IM1H     LPN21    LPD      0.000000        0.0000           -1   0.00000   0.00000
      1081 IM1H     55       IM1H     C1       CD33F    2.485000       11.6110           0   -1.18100   1.10000
      1082 IM1H     55       IM1H     DC1      DRUD    -2.667000        0.4000           0   0.00000   0.00000
      1083 IM1H     55       IM1H     H1       HDA3A    0.135000        1.0080           0   0.00000   0.00000
      1084 IM1H     55       IM1H     H2       HDA3A    0.135000        1.0080           0   0.00000   0.00000
      1085 IM1H     55       IM1H     H3       HDA3A    0.135000        1.0080           0   0.00000   0.00000
      1086 IM1H     55       IM1H     N1       ND2R5C   2.357200       13.6070           0   -0.803000   1.00000
      1087 IM1H     55       IM1H     DN1      DRUD    -2.199200        0.4000           0   0.00000   0.00000
      1088 IM1H     55       IM1H     C2       CD2R5D   2.447000       11.6110           0   -1.08300   1.10000
      1089 IM1H     55       IM1H     DC2      DRUD    -2.554000        0.4000           0   0.00000   0.00000
      1090 IM1H     55       IM1H     H4       HDR5D    0.195000        1.0080           0   0.00000   0.00000
      1091 IM1H     55       IM1H     C3       CD2R5D   2.507000       11.6110           0   -1.08300   1.10000
      1092 IM1H     55       IM1H     DC3      DRUD    -2.554000        0.4000           0   0.00000   0.00000
      1093 IM1H     55       IM1H     H5       HDR5D    0.192000        1.0080           0   0.00000   0.00000
      1094 IM1H     55       IM1H     C4       CD2R5E   2.724100       11.6110           0   -1.25300   1.20000
      1095 IM1H     55       IM1H     DC4      DRUD    -2.747100        0.4000           0   0.00000   0.00000
      1096 IM1H     55       IM1H     H6       HDR5E    0.203000        1.0080           0   0.00000   0.00000
      1097 IM1H     55       IM1H     N2       ND2R5C   2.042200       13.6070           0   -0.803000   1.00000
      1098 IM1H     55       IM1H     DN2      DRUD    -2.199200        0.4000           0   0.00000   0.00000
      1099 IM1H     55       IM1H     H7       HDP1A    0.363000        1.0080           0   0.00000   0.00000
      1100 IM1H     55       IM1H     LPN21    LPD      0.000000        0.0000           -1   0.00000   0.00000
      1101 IM1H     56       IM1H     C1       CD33F    2.485000       11.6110           0   -1.18100   1.10000
      1102 IM1H     56       IM1H     DC1      DRUD    -2.667000        0.4000           0   0.00000   0.00000
      1103 IM1H     56       IM1H     H1       HDA3A    0.135000        1.0080           0   0.00000   0.00000
      1104 IM1H     56       IM1H     H2       HDA3A    0.135000        1.0080           0   0.00000   0.00000
      1105 IM1H     56       IM1H     H3       HDA3A    0.135000        1.0080           0   0.00000   0.00000
      1106 IM1H     56       IM1H     N1       ND2R5C   2.357200       13.6070           0   -0.803000   1.00000
      1107 IM1H     56       IM1H     DN1      DRUD    -2.199200        0.4000           0   0.00000   0.00000
      1108 IM1H     56       IM1H     C2       CD2R5D   2.447000       11.6110           0   -1.08300   1.10000
      1109 IM1H     56       IM1H     DC2      DRUD    -2.554000        0.4000           0   0.00000   0.00000
      1110 IM1H     56       IM1H     H4       HDR5D    0.195000        1.0080           0   0.00000   0.00000
      1111 IM1H     56       IM1H     C3       CD2R5D   2.507000       11.6110           0   -1.08300   1.10000
      1112 IM1H     56       IM1H     DC3      DRUD    -2.554000        0.4000           0   0.00000   0.00000
      1113 IM1H     56       IM1H     H5       HDR5D    0.192000        1.0080           0   0.00000   0.00000
      1114 IM1H     56       IM1H     C4       CD2R5E   2.724100       11.6110           0   -1.25300   1.20000
      1115 IM1H     56       IM1H     DC4      DRUD    -2.747100        0.4000           0   0.00000   0.00000
      1116 IM1H     56       IM1H     H6       HDR5E    0.203000        1.0080           0   0.00000   0.00000
      1117 IM1H     56       IM1H     N2       ND2R5C   2.042200       13.6070           0   -0.803000   1.00000
      1118 IM1H     56       IM1H     DN2      DRUD    -2.199200        0.4000           0   0.00000   0.00000
      1119 IM1H     56       IM1H     H7       HDP1A    0.363000        1.0080           0   0.00000   0.00000
      1120 IM1H     56       IM1H     LPN21    LPD      0.000000        0.0000           -1   0.00000   0.00000
      1121 IM1H     57       IM1H     C1       CD33F    2.485000       11.6110           0   -1.18100   1.10000
      1122 IM1H     57       IM1H     DC1      DRUD    -2.667000        0.4000           0   0.00000   0.00000
      1123 IM1H     57       IM1H     H1       HDA3A    0.135000        1.0080           0   0.00000   0.00000
      1124 IM1H     57       IM1H     H2       HDA3A    0.135000        1.0080           0   0.00000   0.00000
      1125 IM1H     57       IM1H     H3       HDA3A    0.135000        1.0080           0   0.00000   0.00000
      1126 IM1H     57       IM1H     N1       ND2R5C   2.357200       13.6070           0   -0.803000   1.00000
      1127 IM1H     57       IM1H     DN1      DRUD    -2.199200        0.4000           0   0.00000   0.00000
      1128 IM1H     57       IM1H     C2       CD2R5D   2.447000       11.6110           0   -1.08300   1.10000
      1129 IM1H     57       IM1H     DC2      DRUD    -2.554000        0.4000           0   0.00000   0.00000
      1130 IM1H     57       IM1H     H4       HDR5D    0.195000        1.0080           0   0.00000   0.00000
      1131 IM1H     57       IM1H     C3       CD2R5D   2.507000       11.6110           0   -1.08300   1.10000
      1132 IM1H     57       IM1H     DC3      DRUD    -2.554000        0.4000           0   0.00000   0.00000
      1133 IM1H     57       IM1H     H5       HDR5D    0.192000        1.0080           0   0.00000   0.00000
      1134 IM1H     57       IM1H     C4       CD2R5E   2.724100       11.6110           0   -1.25300   1.20000
      1135 IM1H     57       IM1H     DC4      DRUD    -2.747100        0.4000           0   0.00000   0.00000
      1136 IM1H     57       IM1H     H6       HDR5E    0.203000        1.0080           0   0.00000   0.00000
      1137 IM1H     57       IM1H     N2       ND2R5C   2.042200       13.6070           0   -0.803000   1.00000
      1138 IM1H     57       IM1H     DN2      DRUD    -2.199200        0.4000           0   0.00000   0.00000
      1139 IM1H     57       IM1H     H7       HDP1A    0.363000        1.0080           0   0.00000   0.00000
      1140 IM1H     57       IM1H     LPN21    LPD      0.000000        0.0000           -1   0.00000   0.00000
      1141 IM1H     58       IM1H     C1       CD33F    2.485000       11.6110           0   -1.18100   1.10000
      1142 IM1H     58       IM1H     DC1      DRUD    -2.667000        0.4000           0   0.00000   0.00000
      1143 IM1H     58       IM1H     H1       HDA3A    0.135000        1.0080           0   0.00000   0.00000
      1144 IM1H     58       IM1H     H2       HDA3A    0.135000        1.0080           0   0.00000   0.00000
      1145 IM1H     58       IM1H     H3       HDA3A    0.135000        1.0080           0   0.00000   0.00000
      1146 IM1H     58       IM1H     N1       ND2R5C   2.357200       13.6070           0   -0.803000   1.00000
      1147 IM1H     58       IM1H     DN1      DRUD    -2.199200        0.4000           0   0.00000   0.00000
      1148 IM1H     58       IM1H     C2       CD2R5D   2.447000       11.6110           0   -1.08300   1.10000
      1149 IM1H     58       IM1H     DC2      DRUD    -2.554000        0.4000           0   0.00000   0.00000
      1150 IM1H     58       IM1H     H4       HDR5D    0.195000        1.0080           0   0.00000   0.00000
      1151 IM1H     58       IM1H     C3       CD2R5D   2.507000       11.6110           0   -1.08300   1.10000
      1152 IM1H     58       IM1H     DC3      DRUD    -2.554000        0.4000           0   0.00000   0.00000
      1153 IM1H     58       IM1H     H5       HDR5D    0.192000        1.0080           0   0.00000   0.00000
      1154 IM1H     58       IM1H     C4       CD2R5E   2.724100       11.6110           0   -1.25300   1.20000
      1155 IM1H     58       IM1H     DC4      DRUD    -2.747100        0.4000           0   0.00000   0.00000
      1156 IM1H     58       IM1H     H6       HDR5E    0.203000        1.0080           0   0.00000   0.00000
      1157 IM1H     58       IM1H     N2       ND2R5C   2.042200       13.6070           0   -0.803000   1.00000
      1158 IM1H     58       IM1H     DN2      DRUD    -2.199200        0.4000           0   0.00000   0.00000
      1159 IM1H     58       IM1H     H7       HDP1A    0.363000        1.0080           0   0.00000   0.00000
      1160 IM1H     58       IM1H     LPN21    LPD      0.000000        0.0000           -1   0.00000   0.00000
      1161 IM1H     59       IM1H     C1       CD33F    2.485000       11.6110           0   -1.18100   1.10000
      1162 IM1H     59       IM1H     DC1      DRUD    -2.667000        0.4000           0   0.00000   0.00000
      1163 IM1H     59       IM1H     H1       HDA3A    0.135000        1.0080           0   0.00000   0.00000
      1164 IM1H     59       IM1H     H2       HDA3A    0.135000        1.0080           0   0.00000   0.00000
      1165 IM1H     59       IM1H     H3       HDA3A    0.135000        1.0080           0   0.00000   0.00000
      1166 IM1H     59       IM1H     N1       ND2R5C   2.357200       13.6070           0   -0.803000   1.00000
      1167 IM1H     59       IM1H     DN1      DRUD    -2.199200        0.4000           0   0.00000   0.00000
      1168 IM1H     59       IM1H     C2       CD2R5D   2.447000       11.6110           0   -1.08300   1.10000
      1169 IM1H     59       IM1H     DC2      DRUD    -2.554000        0.4000           0   0.00000   0.00000
      1170 IM1H     59       IM1H     H4       HDR5D    0.195000        1.0080           0   0.00000   0.00000
      1171 IM1H     59       IM1H     C3       CD2R5D   2.507000       11.6110           0   -1.08300   1.10000
      1172 IM1H     59       IM1H     DC3      DRUD    -2.554000        0.4000           0   0.00000   0.00000
      1173 IM1H     59       IM1H     H5       HDR5D    0.192000        1.0080           0   0.00000   0.00000
      1174 IM1H     59       IM1H     C4       CD2R5E   2.724100       11.6110           0   -1.25300   1.20000
      1175 IM1H     59       IM1H     DC4      DRUD    -2.747100        0.4000           0   0.00000   0.00000
      1176 IM1H     59       IM1H     H6       HDR5E    0.203000        1.0080           0   0.00000   0.00000
      1177 IM1H     59       IM1H     N2       ND2R5C   2.042200       13.6070           0   -0.803000   1.00000
      1178 IM1H     59       IM1H     DN2      DRUD    -2.199200        0.4000           0   0.00000   0.00000
      1179 IM1H     59       IM1H     H7       HDP1A    0.363000        1.0080           0   0.00000   0.00000
      1180 IM1H     59       IM1H     LPN21    LPD      0.000000        0.0000           -1   0.00000   0.00000
      1181 IM1H     60       IM1H     C1       CD33F    2.485000       11.6110           0   -1.18100   1.10000
      1182 IM1H     60       IM1H     DC1      DRUD    -2.667000        0.4000           0   0.00000   0.00000
      1183 IM1H     60       IM1H     H1       HDA3A    0.135000        1.0080           0   0.00000   0.00000
      1184 IM1H     60       IM1H     H2       HDA3A    0.135000        1.0080           0   0.00000   0.00000
      1185 IM1H     60       IM1H     H3       HDA3A    0.135000        1.0080           0   0.00000   0.00000
      1186 IM1H     60       IM1H     N1       ND2R5C   2.357200       13.6070           0   -0.803000   1.00000
      1187 IM1H     60       IM1H     DN1      DRUD    -2.199200        0.4000           0   0.00000   0.00000
      1188 IM1H     60       IM1H     C2       CD2R5D   2.447000       11.6110           0   -1.08300   1.10000
      1189 IM1H     60       IM1H     DC2      DRUD    -2.554000        0.4000           0   0.00000   0.00000
      1190 IM1H     60       IM1H     H4       HDR5D    0.195000        1.0080           0   0.00000   0.00000
      1191 IM1H     60       IM1H     C3       CD2R5D   2.507000       11.6110           0   -1.08300   1.10000
      1192 IM1H     60       IM1H     DC3      DRUD    -2.554000        0.4000           0   0.00000   0.00000
      1193 IM1H     60       IM1H     H5       HDR5D    0.192000        1.0080           0   0.00000   0.00000
      1194 IM1H     60       IM1H     C4       CD2R5E   2.724100       11.6110           0   -1.25300   1.20000
      1195 IM1H     60       IM1H     DC4      DRUD    -2.747100        0.4000           0   0.00000   0.00000
      1196 IM1H     60       IM1H     H6       HDR5E    0.203000        1.0080           0   0.00000   0.00000
      1197 IM1H     60       IM1H     N2       ND2R5C   2.042200       13.6070           0   -0.803000   1.00000
      1198 IM1H     60       IM1H     DN2      DRUD    -2.199200        0.4000           0   0.00000   0.00000
      1199 IM1H     60       IM1H     H7       HDP1A    0.363000        1.0080           0   0.00000   0.00000
      1200 IM1H     60       IM1H     LPN21    LPD      0.000000        0.0000           -1   0.00000   0.00000
      1201 IM1H     61       IM1H     C1       CD33F    2.485000       11.6110           0   -1.18100   1.10000
      1202 IM1H     61       IM1H     DC1      DRUD    -2.667000        0.4000           0   0.00000   0.00000
      1203 IM1H     61       IM1H     H1       HDA3A    0.135000        1.0080           0   0.00000   0.00000
      1204 IM1H     61       IM1H     H2       HDA3A    0.135000        1.0080           0   0.00000   0.00000
      1205 IM1H     61       IM1H     H3       HDA3A    0.135000        1.0080           0   0.00000   0.00000
      1206 IM1H     61       IM1H     N1       ND2R5C   2.357200       13.6070           0   -0.803000   1.00000
      1207 IM1H     61       IM1H     DN1      DRUD    -2.199200        0.4000           0   0.00000   0.00000
      1208 IM1H     61       IM1H     C2       CD2R5D   2.447000       11.6110           0   -1.08300   1.10000
      1209 IM1H     61       IM1H     DC2      DRUD    -2.554000        0.4000           0   0.00000   0.00000
      1210 IM1H     61       IM1H     H4       HDR5D    0.195000        1.0080           0   0.00000   0.00000
      1211 IM1H     61       IM1H     C3       CD2R5D   2.507000       11.6110           0   -1.08300   1.10000
      1212 IM1H     61       IM1H     DC3      DRUD    -2.554000        0.4000           0   0.00000   0.00000
      1213 IM1H     61       IM1H     H5       HDR5D    0.192000        1.0080           0   0.00000   0.00000
      1214 IM1H     61       IM1H     C4       CD2R5E   2.724100       11.6110           0   -1.25300   1.20000
      1215 IM1H     61       IM1H     DC4      DRUD    -2.747100        0.4000           0   0.00000   0.00000
      1216 IM1H     61       IM1H     H6       HDR5E    0.203000        1.0080           0   0.00000   0.00000
      1217 IM1H     61       IM1H     N2       ND2R5C   2.042200       13.6070           0   -0.803000   1.00000
      1218 IM1H     61       IM1H     DN2      DRUD    -2.199200        0.4000           0   0.00000   0.00000
      1219 IM1H     61       IM1H     H7       HDP1A    0.363000        1.0080           0   0.00000   0.00000
      1220 IM1H     61       IM1H     LPN21    LPD      0.000000        0.0000           -1   0.00000   0.00000
      1221 IM1H     62       IM1H     C1       CD33F    2.485000       11.6110           0   -1.18100   1.10000
      1222 IM1H     62       IM1H     DC1      DRUD    -2.667000        0.4000           0   0.00000   0.00000
      1223 IM1H     62       IM1H     H1       HDA3A    0.135000        1.0080           0   0.00000   0.00000
      1224 IM1H     62       IM1H     H2       HDA3A    0.135000        1.0080           0   0.00000   0.00000
      1225 IM1H     62       IM1H     H3       HDA3A    0.135000        1.0080           0   0.00000   0.00000
      1226 IM1H     62       IM1H     N1       ND2R5C   2.357200       13.6070           0   -0.803000   1.00000
      1227 IM1H     62       IM1H     DN1      DRUD    -2.199200        0.4000           0   0.00000   0.00000
      1228 IM1H     62       IM1H     C2       CD2R5D   2.447000       11.6110           0   -1.08300   1.10000
      1229 IM1H     62       IM1H     DC2      DRUD    -2.554000        0.4000           0   0.00000   0.00000
      1230 IM1H     62       IM1H     H4       HDR5D    0.195000        1.0080           0   0.00000   0.00000
      1231 IM1H     62       IM1H     C3       CD2R5D   2.507000       11.6110           0   -1.08300   1.10000
      1232 IM1H     62       IM1H     DC3      DRUD    -2.554000        0.4000           0   0.00000   0.00000
      1233 IM1H     62       IM1H     H5       HDR5D    0.192000        1.0080           0   0.00000   0.00000
      1234 IM1H     62       IM1H     C4       CD2R5E   2.724100       11.6110           0   -1.25300   1.20000
      1235 IM1H     62       IM1H     DC4      DRUD    -2.747100        0.4000           0   0.00000   0.00000
      1236 IM1H     62       IM1H     H6       HDR5E    0.203000        1.0080           0   0.00000   0.00000
      1237 IM1H     62       IM1H     N2       ND2R5C   2.042200       13.6070           0   -0.803000   1.00000
      1238 IM1H     62       IM1H     DN2      DRUD    -2.199200        0.4000           0   0.00000   0.00000
      1239 IM1H     62       IM1H     H7       HDP1A    0.363000        1.0080           0   0.00000   0.00000
      1240 IM1H     62       IM1H     LPN21    LPD      0.000000        0.0000           -1   0.00000   0.00000
      1241 IM1H     63       IM1H     C1       CD33F    2.485000       11.6110           0   -1.18100   1.10000
      1242 IM1H     63       IM1H     DC1      DRUD    -2.667000        0.4000           0   0.00000   0.00000
      1243 IM1H     63       IM1H     H1       HDA3A    0.135000        1.0080           0   0.00000   0.00000
      1244 IM1H     63       IM1H     H2       HDA3A    0.135000        1.0080           0   0.00000   0.00000
      1245 IM1H     63       IM1H     H3       HDA3A    0.135000        1.0080           0   0.00000   0.00000
      1246 IM1H     63       IM1H     N1       ND2R5C   2.357200       13.6070           0   -0.803000   1.00000
      1247 IM1H     63       IM1H     DN1      DRUD    -2.199200        0.4000           0   0.00000   0.00000
      1248 IM1H     63       IM1H     C2       CD2R5D   2.447000       11.6110           0   -1.08300   1.10000
      1249 IM1H     63       IM1H     DC2      DRUD    -2.554000        0.4000           0   0.00000   0.00000
      1250 IM1H     63       IM1H     H4       HDR5D    0.195000        1.0080           0   0.00000   0.00000
      1251 IM1H     63       IM1H     C3       CD2R5D   2.507000       11.6110           0   -1.08300   1.10000
      1252 IM1H     63       IM1H     DC3      DRUD    -2.554000        0.4000           0   0.00000   0.00000
      1253 IM1H     63       IM1H     H5       HDR5D    0.192000        1.0080           0   0.00000   0.00000
      1254 IM1H     63       IM1H     C4       CD2R5E   2.724100       11.6110           0   -1.25300   1.20000
      1255 IM1H     63       IM1H     DC4      DRUD    -2.747100        0.4000           0   0.00000   0.00000
      1256 IM1H     63       IM1H     H6       HDR5E    0.203000        1.0080           0   0.00000   0.00000
      1257 IM1H     63       IM1H     N2       ND2R5C   2.042200       13.6070           0   -0.803000   1.00000
      1258 IM1H     63       IM1H     DN2      DRUD    -2.199200        0.4000           0   0.00000   0.00000
      1259 IM1H     63       IM1H     H7       HDP1A    0.363000        1.0080           0   0.00000   0.00000
      1260 IM1H     63       IM1H     LPN21    LPD      0.000000        0.0000           -1   0.00000   0.00000
      1261 IM1H     64       IM1H     C1       CD33F    2.485000       11.6110           0   -1.18100   1.10000
      1262 IM1H     64       IM1H     DC1      DRUD    -2.667000        0.4000           0   0.00000   0.00000
      1263 IM1H     64       IM1H     H1       HDA3A    0.135000        1.0080           0   0.00000   0.00000
      1264 IM1H     64       IM1H     H2       HDA3A    0.135000        1.0080           0   0.00000   0.00000
      1265 IM1H     64       IM1H     H3       HDA3A    0.135000        1.0080           0   0.00000   0.00000
      1266 IM1H     64       IM1H     N1       ND2R5C   2.357200       13.6070           0   -0.803000   1.00000
      1267 IM1H     64       IM1H     DN1      DRUD    -2.199200        0.4000           0   0.00000   0.00000
      1268 IM1H     64       IM1H     C2       CD2R5D   2.447000       11.6110           0   -1.08300   1.10000
      1269 IM1H     64       IM1H     DC2      DRUD    -2.554000        0.4000           0   0.00000   0.00000
      1270 IM1H     64       IM1H     H4       HDR5D    0.195000        1.0080           0   0.00000   0.00000
      1271 IM1H     64       IM1H     C3       CD2R5D   2.507000       11.6110           0   -1.08300   1.10000
      1272 IM1H     64       IM1H     DC3      DRUD    -2.554000        0.4000           0   0.00000   0.00000
      1273 IM1H     64       IM1H     H5       HDR5D    0.192000        1.0080           0   0.00000   0.00000
      1274 IM1H     64       IM1H     C4       CD2R5E   2.724100       11.6110           0   -1.25300   1.20000
      1275 IM1H     64       IM1H     DC4      DRUD    -2.747100        0.4000           0   0.00000   0.00000
      1276 IM1H     64       IM1H     H6       HDR5E    0.203000        1.0080           0   0.00000   0.00000
      1277 IM1H     64       IM1H     N2       ND2R5C   2.042200       13.6070           0   -0.803000   1.00000
      1278 IM1H     64       IM1H     DN2      DRUD    -2.199200        0.4000           0   0.00000   0.00000
      1279 IM1H     64       IM1H     H7       HDP1A    0.363000        1.0080           0   0.00000   0.00000
      1280 IM1H     64       IM1H     LPN21    LPD      0.000000        0.0000           -1   0.00000   0.00000
      1281 IM1H     65       IM1H     C1       CD33F    2.485000       11.6110           0   -1.18100   1.10000
      1282 IM1H     65       IM1H     DC1      DRUD    -2.667000        0.4000           0   0.00000   0.00000
      1283 IM1H     65       IM1H     H1       HDA3A    0.135000        1.0080           0   0.00000   0.00000
      1284 IM1H     65       IM1H     H2       HDA3A    0.135000        1.0080           0   0.00000   0.00000
      1285 IM1H     65       IM1H     H3       HDA3A    0.135000        1.0080           0   0.00000   0.00000
      1286 IM1H     65       IM1H     N1       ND2R5C   2.357200       13.6070           0   -0.803000   1.00000
      1287 IM1H     65       IM1H     DN1      DRUD    -2.199200        0.4000           0   0.00000   0.00000
      1288 IM1H     65       IM1H     C2       CD2R5D   2.447000       11.6110           0   -1.08300   1.10000
      1289 IM1H     65       IM1H     DC2      DRUD    -2.554000        0.4000           0   0.00000   0.00000
      1290 IM1H     65       IM1H     H4       HDR5D    0.195000        1.0080           0   0.00000   0.00000
      1291 IM1H     65       IM1H     C3       CD2R5D   2.507000       11.6110           0   -1.08300   1.10000
      1292 IM1H     65       IM1H     DC3      DRUD    -2.554000        0.4000           0   0.00000   0.00000
      1293 IM1H     65       IM1H     H5       HDR5D    0.192000        1.0080           0   0.00000   0.00000
      1294 IM1H     65       IM1H     C4       CD2R5E   2.724100       11.6110           0   -1.25300   1.20000
      1295 IM1H     65       IM1H     DC4      DRUD    -2.747100        0.4000           0   0.00000   0.00000
      1296 IM1H     65       IM1H     H6       HDR5E    0.203000        1.0080           0   0.00000   0.00000
      1297 IM1H     65       IM1H     N2       ND2R5C   2.042200       13.6070           0   -0.803000   1.00000
      1298 IM1H     65       IM1H     DN2      DRUD    -2.199200        0.4000           0   0.00000   0.00000
      1299 IM1H     65       IM1H     H7       HDP1A    0.363000        1.0080           0   0.00000   0.00000
      1300 IM1H     65       IM1H     LPN21    LPD      0.000000        0.0000           -1   0.00000   0.00000
      1301 IM1H     66       IM1H     C1       CD33F    2.485000       11.6110           0   -1.18100   1.10000
      1302 IM1H     66       IM1H     DC1      DRUD    -2.667000        0.4000           0   0.00000   0.00000
      1303 IM1H     66       IM1H     H1       HDA3A    0.135000        1.0080           0   0.00000   0.00000
      1304 IM1H     66       IM1H     H2       HDA3A    0.135000        1.0080           0   0.00000   0.00000
      1305 IM1H     66       IM1H     H3       HDA3A    0.135000        1.0080           0   0.00000   0.00000
      1306 IM1H     66       IM1H     N1       ND2R5C   2.357200       13.6070           0   -0.803000   1.00000
      1307 IM1H     66       IM1H     DN1      DRUD    -2.199200        0.4000           0   0.00000   0.00000
      1308 IM1H     66       IM1H     C2       CD2R5D   2.447000       11.6110           0   -1.08300   1.10000
      1309 IM1H     66       IM1H     DC2      DRUD    -2.554000        0.4000           0   0.00000   0.00000
      1310 IM1H     66       IM1H     H4       HDR5D    0.195000        1.0080           0   0.00000   0.00000
      1311 IM1H     66       IM1H     C3       CD2R5D   2.507000       11.6110           0   -1.08300   1.10000
      1312 IM1H     66       IM1H     DC3      DRUD    -2.554000        0.4000           0   0.00000   0.00000
      1313 IM1H     66       IM1H     H5       HDR5D    0.192000        1.0080           0   0.00000   0.00000
      1314 IM1H     66       IM1H     C4       CD2R5E   2.724100       11.6110           0   -1.25300   1.20000
      1315 IM1H     66       IM1H     DC4      DRUD    -2.747100        0.4000           0   0.00000   0.00000
      1316 IM1H     66       IM1H     H6       HDR5E    0.203000        1.0080           0   0.00000   0.00000
      1317 IM1H     66       IM1H     N2       ND2R5C   2.042200       13.6070           0   -0.803000   1.00000
      1318 IM1H     66       IM1H     DN2      DRUD    -2.199200        0.4000           0   0.00000   0.00000
      1319 IM1H     66       IM1H     H7       HDP1A    0.363000        1.0080           0   0.00000   0.00000
      1320 IM1H     66       IM1H     LPN21    LPD      0.000000        0.0000           -1   0.00000   0.00000
      1321 IM1H     67       IM1H     C1       CD33F    2.485000       11.6110           0   -1.18100   1.10000
      1322 IM1H     67       IM1H     DC1      DRUD    -2.667000        0.4000           0   0.00000   0.00000
      1323 IM1H     67       IM1H     H1       HDA3A    0.135000        1.0080           0   0.00000   0.00000
      1324 IM1H     67       IM1H     H2       HDA3A    0.135000        1.0080           0   0.00000   0.00000
      1325 IM1H     67       IM1H     H3       HDA3A    0.135000        1.0080           0   0.00000   0.00000
      1326 IM1H     67       IM1H     N1       ND2R5C   2.357200       13.6070           0   -0.803000   1.00000
      1327 IM1H     67       IM1H     DN1      DRUD    -2.199200        0.4000           0   0.00000   0.00000
      1328 IM1H     67       IM1H     C2       CD2R5D   2.447000       11.6110           0   -1.08300   1.10000
      1329 IM1H     67       IM1H     DC2      DRUD    -2.554000        0.4000           0   0.00000   0.00000
      1330 IM1H     67       IM1H     H4       HDR5D    0.195000        1.0080           0   0.00000   0.00000
      1331 IM1H     67       IM1H     C3       CD2R5D   2.507000       11.6110           0   -1.08300   1.10000
      1332 IM1H     67       IM1H     DC3      DRUD    -2.554000        0.4000           0   0.00000   0.00000
      1333 IM1H     67       IM1H     H5       HDR5D    0.192000        1.0080           0   0.00000   0.00000
      1334 IM1H     67       IM1H     C4       CD2R5E   2.724100       11.6110           0   -1.25300   1.20000
      1335 IM1H     67       IM1H     DC4      DRUD    -2.747100        0.4000           0   0.00000   0.00000
      1336 IM1H     67       IM1H     H6       HDR5E    0.203000        1.0080           0   0.00000   0.00000
      1337 IM1H     67       IM1H     N2       ND2R5C   2.042200       13.6070           0   -0.803000   1.00000
      1338 IM1H     67       IM1H     DN2      DRUD    -2.199200        0.4000           0   0.00000   0.00000
      1339 IM1H     67       IM1H     H7       HDP1A    0.363000        1.0080           0   0.00000   0.00000
      1340 IM1H     67       IM1H     LPN21    LPD      0.000000        0.0000           -1   0.00000   0.00000
      1341 IM1H     68       IM1H     C1       CD33F    2.485000       11.6110           0   -1.18100   1.10000
      1342 IM1H     68       IM1H     DC1      DRUD    -2.667000        0.4000           0   0.00000   0.00000
      1343 IM1H     68       IM1H     H1       HDA3A    0.135000        1.0080           0   0.00000   0.00000
      1344 IM1H     68       IM1H     H2       HDA3A    0.135000        1.0080           0   0.00000   0.00000
      1345 IM1H     68       IM1H     H3       HDA3A    0.135000        1.0080           0   0.00000   0.00000
      1346 IM1H     68       IM1H     N1       ND2R5C   2.357200       13.6070           0   -0.803000   1.00000
      1347 IM1H     68       IM1H     DN1      DRUD    -2.199200        0.4000           0   0.00000   0.00000
      1348 IM1H     68       IM1H     C2       CD2R5D   2.447000       11.6110           0   -1.08300   1.10000
      1349 IM1H     68       IM1H     DC2      DRUD    -2.554000        0.4000           0   0.00000   0.00000
      1350 IM1H     68       IM1H     H4       HDR5D    0.195000        1.0080           0   0.00000   0.00000
      1351 IM1H     68       IM1H     C3       CD2R5D   2.507000       11.6110           0   -1.08300   1.10000
      1352 IM1H     68       IM1H     DC3      DRUD    -2.554000        0.4000           0   0.00000   0.00000
      1353 IM1H     68       IM1H     H5       HDR5D    0.192000        1.0080           0   0.00000   0.00000
      1354 IM1H     68       IM1H     C4       CD2R5E   2.724100       11.6110           0   -1.25300   1.20000
      1355 IM1H     68       IM1H     DC4      DRUD    -2.747100        0.4000           0   0.00000   0.00000
      1356 IM1H     68       IM1H     H6       HDR5E    0.203000        1.0080           0   0.00000   0.00000
      1357 IM1H     68       IM1H     N2       ND2R5C   2.042200       13.6070           0   -0.803000   1.00000
      1358 IM1H     68       IM1H     DN2      DRUD    -2.199200        0.4000           0   0.00000   0.00000
      1359 IM1H     68       IM1H     H7       HDP1A    0.363000        1.0080           0   0.00000   0.00000
      1360 IM1H     68       IM1H     LPN21    LPD      0.000000        0.0000           -1   0.00000   0.00000
      1361 IM1H     69       IM1H     C1       CD33F    2.485000       11.6110           0   -1.18100   1.10000
      1362 IM1H     69       IM1H     DC1      DRUD    -2.667000        0.4000           0   0.00000   0.00000
      1363 IM1H     69       IM1H     H1       HDA3A    0.135000        1.0080           0   0.00000   0.00000
      1364 IM1H     69       IM1H     H2       HDA3A    0.135000        1.0080           0   0.00000   0.00000
      1365 IM1H     69       IM1H     H3       HDA3A    0.135000        1.0080           0   0.00000   0.00000
      1366 IM1H     69       IM1H     N1       ND2R5C   2.357200       13.6070           0   -0.803000   1.00000
      1367 IM1H     69       IM1H     DN1      DRUD    -2.199200        0.4000           0   0.00000   0.00000
      1368 IM1H     69       IM1H     C2       CD2R5D   2.447000       11.6110           0   -1.08300   1.10000
      1369 IM1H     69       IM1H     DC2      DRUD    -2.554000        0.4000           0   0.00000   0.00000
      1370 IM1H     69       IM1H     H4       HDR5D    0.195000        1.0080           0   0.00000   0.00000
      1371 IM1H     69       IM1H     C3       CD2R5D   2.507000       11.6110           0   -1.08300   1.10000
      1372 IM1H     69       IM1H     DC3      DRUD    -2.554000        0.4000           0   0.00000   0.00000
      1373 IM1H     69       IM1H     H5       HDR5D    0.192000        1.0080           0   0.00000   0.00000
      1374 IM1H     69       IM1H     C4       CD2R5E   2.724100       11.6110           0   -1.25300   1.20000
      1375 IM1H     69       IM1H     DC4      DRUD    -2.747100        0.4000           0   0.00000   0.00000
      1376 IM1H     69       IM1H     H6       HDR5E    0.203000        1.0080           0   0.00000   0.00000
      1377 IM1H     69       IM1H     N2       ND2R5C   2.042200       13.6070           0   -0.803000   1.00000
      1378 IM1H     69       IM1H     DN2      DRUD    -2.199200        0.4000           0   0.00000   0.00000
      1379 IM1H     69       IM1H     H7       HDP1A    0.363000        1.0080           0   0.00000   0.00000
      1380 IM1H     69       IM1H     LPN21    LPD      0.000000        0.0000           -1   0.00000   0.00000
      1381 IM1H     70       IM1H     C1       CD33F    2.485000       11.6110           0   -1.18100   1.10000
      1382 IM1H     70       IM1H     DC1      DRUD    -2.667000        0.4000           0   0.00000   0.00000
      1383 IM1H     70       IM1H     H1       HDA3A    0.135000        1.0080           0   0.00000   0.00000
      1384 IM1H     70       IM1H     H2       HDA3A    0.135000        1.0080           0   0.00000   0.00000
      1385 IM1H     70       IM1H     H3       HDA3A    0.135000        1.0080           0   0.00000   0.00000
      1386 IM1H     70       IM1H     N1       ND2R5C   2.357200       13.6070           0   -0.803000   1.00000
      1387 IM1H     70       IM1H     DN1      DRUD    -2.199200        0.4000           0   0.00000   0.00000
      1388 IM1H     70       IM1H     C2       CD2R5D   2.447000       11.6110           0   -1.08300   1.10000
      1389 IM1H     70       IM1H     DC2      DRUD    -2.554000        0.4000           0   0.00000   0.00000
      1390 IM1H     70       IM1H     H4       HDR5D    0.195000        1.0080           0   0.00000   0.00000
      1391 IM1H     70       IM1H     C3       CD2R5D   2.507000       11.6110           0   -1.08300   1.10000
      1392 IM1H     70       IM1H     DC3      DRUD    -2.554000        0.4000           0   0.00000   0.00000
      1393 IM1H     70       IM1H     H5       HDR5D    0.192000        1.0080           0   0.00000   0.00000
      1394 IM1H     70       IM1H     C4       CD2R5E   2.724100       11.6110           0   -1.25300   1.20000
      1395 IM1H     70       IM1H     DC4      DRUD    -2.747100        0.4000           0   0.00000   0.00000
      1396 IM1H     70       IM1H     H6       HDR5E    0.203000        1.0080           0   0.00000   0.00000
      1397 IM1H     70       IM1H     N2       ND2R5C   2.042200       13.6070           0   -0.803000   1.00000
      1398 IM1H     70       IM1H     DN2      DRUD    -2.199200        0.4000           0   0.00000   0.00000
      1399 IM1H     70       IM1H     H7       HDP1A    0.363000        1.0080           0   0.00000   0.00000
      1400 IM1H     70       IM1H     LPN21    LPD      0.000000        0.0000           -1   0.00000   0.00000
      1401 IM1H     71       IM1H     C1       CD33F    2.485000       11.6110           0   -1.18100   1.10000
      1402 IM1H     71       IM1H     DC1      DRUD    -2.667000        0.4000           0   0.00000   0.00000
      1403 IM1H     71       IM1H     H1       HDA3A    0.135000        1.0080           0   0.00000   0.00000
      1404 IM1H     71       IM1H     H2       HDA3A    0.135000        1.0080           0   0.00000   0.00000
      1405 IM1H     71       IM1H     H3       HDA3A    0.135000        1.0080           0   0.00000   0.00000
      1406 IM1H     71       IM1H     N1       ND2R5C   2.357200       13.6070           0   -0.803000   1.00000
      1407 IM1H     71       IM1H     DN1      DRUD    -2.199200        0.4000           0   0.00000   0.00000
      1408 IM1H     71       IM1H     C2       CD2R5D   2.447000       11.6110           0   -1.08300   1.10000
      1409 IM1H     71       IM1H     DC2      DRUD    -2.554000        0.4000           0   0.00000   0.00000
      1410 IM1H     71       IM1H     H4       HDR5D    0.195000        1.0080           0   0.00000   0.00000
      1411 IM1H     71       IM1H     C3       CD2R5D   2.507000       11.6110           0   -1.08300   1.10000
      1412 IM1H     71       IM1H     DC3      DRUD    -2.554000        0.4000           0   0.00000   0.00000
      1413 IM1H     71       IM1H     H5       HDR5D    0.192000        1.0080           0   0.00000   0.00000
      1414 IM1H     71       IM1H     C4       CD2R5E   2.724100       11.6110           0   -1.25300   1.20000
      1415 IM1H     71       IM1H     DC4      DRUD    -2.747100        0.4000           0   0.00000   0.00000
      1416 IM1H     71       IM1H     H6       HDR5E    0.203000        1.0080           0   0.00000   0.00000
      1417 IM1H     71       IM1H     N2       ND2R5C   2.042200       13.6070           0   -0.803000   1.00000
      1418 IM1H     71       IM1H     DN2      DRUD    -2.199200        0.4000           0   0.00000   0.00000
      1419 IM1H     71       IM1H     H7       HDP1A    0.363000        1.0080           0   0.00000   0.00000
      1420 IM1H     71       IM1H     LPN21    LPD      0.000000        0.0000           -1   0.00000   0.00000
      1421 IM1H     72       IM1H     C1       CD33F    2.485000       11.6110           0   -1.18100   1.10000
      1422 IM1H     72       IM1H     DC1      DRUD    -2.667000        0.4000           0   0.00000   0.00000
      1423 IM1H     72       IM1H     H1       HDA3A    0.135000        1.0080           0   0.00000   0.00000
      1424 IM1H     72       IM1H     H2       HDA3A    0.135000        1.0080           0   0.00000   0.00000
      1425 IM1H     72       IM1H     H3       HDA3A    0.135000        1.0080           0   0.00000   0.00000
      1426 IM1H     72       IM1H     N1       ND2R5C   2.357200       13.6070           0   -0.803000   1.00000
      1427 IM1H     72       IM1H     DN1      DRUD    -2.199200        0.4000           0   0.00000   0.00000
      1428 IM1H     72       IM1H     C2       CD2R5D   2.447000       11.6110           0   -1.08300   1.10000
      1429 IM1H     72       IM1H     DC2      DRUD    -2.554000        0.4000           0   0.00000   0.00000
      1430 IM1H     72       IM1H     H4       HDR5D    0.195000        1.0080           0   0.00000   0.00000
      1431 IM1H     72       IM1H     C3       CD2R5D   2.507000       11.6110           0   -1.08300   1.10000
      1432 IM1H     72       IM1H     DC3      DRUD    -2.554000        0.4000           0   0.00000   0.00000
      1433 IM1H     72       IM1H     H5       HDR5D    0.192000        1.0080           0   0.00000   0.00000
      1434 IM1H     72       IM1H     C4       CD2R5E   2.724100       11.6110           0   -1.25300   1.20000
      1435 IM1H     72       IM1H     DC4      DRUD    -2.747100        0.4000           0   0.00000   0.00000
      1436 IM1H     72       IM1H     H6       HDR5E    0.203000        1.0080           0   0.00000   0.00000
      1437 IM1H     72       IM1H     N2       ND2R5C   2.042200       13.6070           0   -0.803000   1.00000
      1438 IM1H     72       IM1H     DN2      DRUD    -2.199200        0.4000           0   0.00000   0.00000
      1439 IM1H     72       IM1H     H7       HDP1A    0.363000        1.0080           0   0.00000   0.00000
      1440 IM1H     72       IM1H     LPN21    LPD      0.000000        0.0000           -1   0.00000   0.00000
      1441 IM1H     73       IM1H     C1       CD33F    2.485000       11.6110           0   -1.18100   1.10000
      1442 IM1H     73       IM1H     DC1      DRUD    -2.667000        0.4000           0   0.00000   0.00000
      1443 IM1H     73       IM1H     H1       HDA3A    0.135000        1.0080           0   0.00000   0.00000
      1444 IM1H     73       IM1H     H2       HDA3A    0.135000        1.0080           0   0.00000   0.00000
      1445 IM1H     73       IM1H     H3       HDA3A    0.135000        1.0080           0   0.00000   0.00000
      1446 IM1H     73       IM1H     N1       ND2R5C   2.357200       13.6070           0   -0.803000   1.00000
      1447 IM1H     73       IM1H     DN1      DRUD    -2.199200        0.4000           0   0.00000   0.00000
      1448 IM1H     73       IM1H     C2       CD2R5D   2.447000       11.6110           0   -1.08300   1.10000
      1449 IM1H     73       IM1H     DC2      DRUD    -2.554000        0.4000           0   0.00000   0.00000
      1450 IM1H     73       IM1H     H4       HDR5D    0.195000        1.0080           0   0.00000   0.00000
      1451 IM1H     73       IM1H     C3       CD2R5D   2.507000       11.6110           0   -1.08300   1.10000
      1452 IM1H     73       IM1H     DC3      DRUD    -2.554000        0.4000           0   0.00000   0.00000
      1453 IM1H     73       IM1H     H5       HDR5D    0.192000        1.0080           0   0.00000   0.00000
      1454 IM1H     73       IM1H     C4       CD2R5E   2.724100       11.6110           0   -1.25300   1.20000
      1455 IM1H     73       IM1H     DC4      DRUD    -2.747100        0.4000           0   0.00000   0.00000
      1456 IM1H     73       IM1H     H6       HDR5E    0.203000        1.0080           0   0.00000   0.00000
      1457 IM1H     73       IM1H     N2       ND2R5C   2.042200       13.6070           0   -0.803000   1.00000
      1458 IM1H     73       IM1H     DN2      DRUD    -2.199200        0.4000           0   0.00000   0.00000
      1459 IM1H     73       IM1H     H7       HDP1A    0.363000        1.0080           0   0.00000   0.00000
      1460 IM1H     73       IM1H     LPN21    LPD      0.000000        0.0000           -1   0.00000   0.00000
      1461 IM1H     74       IM1H     C1       CD33F    2.485000       11.6110           0   -1.18100   1.10000
      1462 IM1H     74       IM1H     DC1      DRUD    -2.667000        0.4000           0   0.00000   0.00000
      1463 IM1H     74       IM1H     H1       HDA3A    0.135000        1.0080           0   0.00000   0.00000
      1464 IM1H     74       IM1H     H2       HDA3A    0.135000        1.0080           0   0.00000   0.00000
      1465 IM1H     74       IM1H     H3       HDA3A    0.135000        1.0080           0   0.00000   0.00000
      1466 IM1H     74       IM1H     N1       ND2R5C   2.357200       13.6070           0   -0.803000   1.00000
      1467 IM1H     74       IM1H     DN1      DRUD    -2.199200        0.4000           0   0.00000   0.00000
      1468 IM1H     74       IM1H     C2       CD2R5D   2.447000       11.6110           0   -1.08300   1.10000
      1469 IM1H     74       IM1H     DC2      DRUD    -2.554000        0.4000           0   0.00000   0.00000
      1470 IM1H     74       IM1H     H4       HDR5D    0.195000        1.0080           0   0.00000   0.00000
      1471 IM1H     74       IM1H     C3       CD2R5D   2.507000       11.6110           0   -1.08300   1.10000
      1472 IM1H     74       IM1H     DC3      DRUD    -2.554000        0.4000           0   0.00000   0.00000
      1473 IM1H     74       IM1H     H5       HDR5D    0.192000        1.0080           0   0.00000   0.00000
      1474 IM1H     74       IM1H     C4       CD2R5E   2.724100       11.6110           0   -1.25300   1.20000
      1475 IM1H     74       IM1H     DC4      DRUD    -2.747100        0.4000           0   0.00000   0.00000
      1476 IM1H     74       IM1H     H6       HDR5E    0.203000        1.0080           0   0.00000   0.00000
      1477 IM1H     74       IM1H     N2       ND2R5C   2.042200       13.6070           0   -0.803000   1.00000
      1478 IM1H     74       IM1H     DN2      DRUD    -2.199200        0.4000           0   0.00000   0.00000
      1479 IM1H     74       IM1H     H7       HDP1A    0.363000        1.0080           0   0.00000   0.00000
      1480 IM1H     74       IM1H     LPN21    LPD      0.000000        0.0000           -1   0.00000   0.00000
      1481 IM1H     75       IM1H     C1       CD33F    2.485000       11.6110           0   -1.18100   1.10000
      1482 IM1H     75       IM1H     DC1      DRUD    -2.667000        0.4000           0   0.00000   0.00000
      1483 IM1H     75       IM1H     H1       HDA3A    0.135000        1.0080           0   0.00000   0.00000
      1484 IM1H     75       IM1H     H2       HDA3A    0.135000        1.0080           0   0.00000   0.00000
      1485 IM1H     75       IM1H     H3       HDA3A    0.135000        1.0080           0   0.00000   0.00000
      1486 IM1H     75       IM1H     N1       ND2R5C   2.357200       13.6070           0   -0.803000   1.00000
      1487 IM1H     75       IM1H     DN1      DRUD    -2.199200        0.4000           0   0.00000   0.00000
      1488 IM1H     75       IM1H     C2       CD2R5D   2.447000       11.6110           0   -1.08300   1.10000
      1489 IM1H     75       IM1H     DC2      DRUD    -2.554000        0.4000           0   0.00000   0.00000
      1490 IM1H     75       IM1H     H4       HDR5D    0.195000        1.0080           0   0.00000   0.00000
      1491 IM1H     75       IM1H     C3       CD2R5D   2.507000       11.6110           0   -1.08300   1.10000
      1492 IM1H     75       IM1H     DC3      DRUD    -2.554000        0.4000           0   0.00000   0.00000
      1493 IM1H     75       IM1H     H5       HDR5D    0.192000        1.0080           0   0.00000   0.00000
      1494 IM1H     75       IM1H     C4       CD2R5E   2.724100       11.6110           0   -1.25300   1.20000
      1495 IM1H     75       IM1H     DC4      DRUD    -2.747100        0.4000           0   0.00000   0.00000
      1496 IM1H     75       IM1H     H6       HDR5E    0.203000        1.0080           0   0.00000   0.00000
      1497 IM1H     75       IM1H     N2       ND2R5C   2.042200       13.6070           0   -0.803000   1.00000
      1498 IM1H     75       IM1H     DN2      DRUD    -2.199200        0.4000           0   0.00000   0.00000
      1499 IM1H     75       IM1H     H7       HDP1A    0.363000        1.0080           0   0.00000   0.00000
      1500 IM1H     75       IM1H     LPN21    LPD      0.000000        0.0000           -1   0.00000   0.00000
      1501 IM1H     76       IM1H     C1       CD33F    2.485000       11.6110           0   -1.18100   1.10000
      1502 IM1H     76       IM1H     DC1      DRUD    -2.667000        0.4000           0   0.00000   0.00000
      1503 IM1H     76       IM1H     H1       HDA3A    0.135000        1.0080           0   0.00000   0.00000
      1504 IM1H     76       IM1H     H2       HDA3A    0.135000        1.0080           0   0.00000   0.00000
      1505 IM1H     76       IM1H     H3       HDA3A    0.135000        1.0080           0   0.00000   0.00000
      1506 IM1H     76       IM1H     N1       ND2R5C   2.357200       13.6070           0   -0.803000   1.00000
      1507 IM1H     76       IM1H     DN1      DRUD    -2.199200        0.4000           0   0.00000   0.00000
      1508 IM1H     76       IM1H     C2       CD2R5D   2.447000       11.6110           0   -1.08300   1.10000
      1509 IM1H     76       IM1H     DC2      DRUD    -2.554000        0.4000           0   0.00000   0.00000
      1510 IM1H     76       IM1H     H4       HDR5D    0.195000        1.0080           0   0.00000   0.00000
      1511 IM1H     76       IM1H     C3       CD2R5D   2.507000       11.6110           0   -1.08300   1.10000
      1512 IM1H     76       IM1H     DC3      DRUD    -2.554000        0.4000           0   0.00000   0.00000
      1513 IM1H     76       IM1H     H5       HDR5D    0.192000        1.0080           0   0.00000   0.00000
      1514 IM1H     76       IM1H     C4       CD2R5E   2.724100       11.6110           0   -1.25300   1.20000
      1515 IM1H     76       IM1H     DC4      DRUD    -2.747100        0.4000           0   0.00000   0.00000
      1516 IM1H     76       IM1H     H6       HDR5E    0.203000        1.0080           0   0.00000   0.00000
      1517 IM1H     76       IM1H     N2       ND2R5C   2.042200       13.6070           0   -0.803000   1.00000
      1518 IM1H     76       IM1H     DN2      DRUD    -2.199200        0.4000           0   0.00000   0.00000
      1519 IM1H     76       IM1H     H7       HDP1A    0.363000        1.0080           0   0.00000   0.00000
      1520 IM1H     76       IM1H     LPN21    LPD      0.000000        0.0000           -1   0.00000   0.00000
      1521 IM1H     77       IM1H     C1       CD33F    2.485000       11.6110           0   -1.18100   1.10000
      1522 IM1H     77       IM1H     DC1      DRUD    -2.667000        0.4000           0   0.00000   0.00000
      1523 IM1H     77       IM1H     H1       HDA3A    0.135000        1.0080           0   0.00000   0.00000
      1524 IM1H     77       IM1H     H2       HDA3A    0.135000        1.0080           0   0.00000   0.00000
      1525 IM1H     77       IM1H     H3       HDA3A    0.135000        1.0080           0   0.00000   0.00000
      1526 IM1H     77       IM1H     N1       ND2R5C   2.357200       13.6070           0   -0.803000   1.00000
      1527 IM1H     77       IM1H     DN1      DRUD    -2.199200        0.4000           0   0.00000   0.00000
      1528 IM1H     77       IM1H     C2       CD2R5D   2.447000       11.6110           0   -1.08300   1.10000
      1529 IM1H     77       IM1H     DC2      DRUD    -2.554000        0.4000           0   0.00000   0.00000
      1530 IM1H     77       IM1H     H4       HDR5D    0.195000        1.0080           0   0.00000   0.00000
      1531 IM1H     77       IM1H     C3       CD2R5D   2.507000       11.6110           0   -1.08300   1.10000
      1532 IM1H     77       IM1H     DC3      DRUD    -2.554000        0.4000           0   0.00000   0.00000
      1533 IM1H     77       IM1H     H5       HDR5D    0.192000        1.0080           0   0.00000   0.00000
      1534 IM1H     77       IM1H     C4       CD2R5E   2.724100       11.6110           0   -1.25300   1.20000
      1535 IM1H     77       IM1H     DC4      DRUD    -2.747100        0.4000           0   0.00000   0.00000
      1536 IM1H     77       IM1H     H6       HDR5E    0.203000        1.0080           0   0.00000   0.00000
      1537 IM1H     77       IM1H     N2       ND2R5C   2.042200       13.6070           0   -0.803000   1.00000
      1538 IM1H     77       IM1H     DN2      DRUD    -2.199200        0.4000           0   0.00000   0.00000
      1539 IM1H     77       IM1H     H7       HDP1A    0.363000        1.0080           0   0.00000   0.00000
      1540 IM1H     77       IM1H     LPN21    LPD      0.000000        0.0000           -1   0.00000   0.00000
      1541 IM1H     78       IM1H     C1       CD33F    2.485000       11.6110           0   -1.18100   1.10000
      1542 IM1H     78       IM1H     DC1      DRUD    -2.667000        0.4000           0   0.00000   0.00000
      1543 IM1H     78       IM1H     H1       HDA3A    0.135000        1.0080           0   0.00000   0.00000
      1544 IM1H     78       IM1H     H2       HDA3A    0.135000        1.0080           0   0.00000   0.00000
      1545 IM1H     78       IM1H     H3       HDA3A    0.135000        1.0080           0   0.00000   0.00000
      1546 IM1H     78       IM1H     N1       ND2R5C   2.357200       13.6070           0   -0.803000   1.00000
      1547 IM1H     78       IM1H     DN1      DRUD    -2.199200        0.4000           0   0.00000   0.00000
      1548 IM1H     78       IM1H     C2       CD2R5D   2.447000       11.6110           0   -1.08300   1.10000
      1549 IM1H     78       IM1H     DC2      DRUD    -2.554000        0.4000           0   0.00000   0.00000
      1550 IM1H     78       IM1H     H4       HDR5D    0.195000        1.0080           0   0.00000   0.00000
      1551 IM1H     78       IM1H     C3       CD2R5D   2.507000       11.6110           0   -1.08300   1.10000
      1552 IM1H     78       IM1H     DC3      DRUD    -2.554000        0.4000           0   0.00000   0.00000
      1553 IM1H     78       IM1H     H5       HDR5D    0.192000        1.0080           0   0.00000   0.00000
      1554 IM1H     78       IM1H     C4       CD2R5E   2.724100       11.6110           0   -1.25300   1.20000
      1555 IM1H     78       IM1H     DC4      DRUD    -2.747100        0.4000           0   0.00000   0.00000
      1556 IM1H     78       IM1H     H6       HDR5E    0.203000        1.0080           0   0.00000   0.00000
      1557 IM1H     78       IM1H     N2       ND2R5C   2.042200       13.6070           0   -0.803000   1.00000
      1558 IM1H     78       IM1H     DN2      DRUD    -2.199200        0.4000           0   0.00000   0.00000
      1559 IM1H     78       IM1H     H7       HDP1A    0.363000        1.0080           0   0.00000   0.00000
      1560 IM1H     78       IM1H     LPN21    LPD      0.000000        0.0000           -1   0.00000   0.00000
      1561 IM1H     79       IM1H     C1       CD33F    2.485000       11.6110           0   -1.18100   1.10000
      1562 IM1H     79       IM1H     DC1      DRUD    -2.667000        0.4000           0   0.00000   0.00000
      1563 IM1H     79       IM1H     H1       HDA3A    0.135000        1.0080           0   0.00000   0.00000
      1564 IM1H     79       IM1H     H2       HDA3A    0.135000        1.0080           0   0.00000   0.00000
      1565 IM1H     79       IM1H     H3       HDA3A    0.135000        1.0080           0   0.00000   0.00000
      1566 IM1H     79       IM1H     N1       ND2R5C   2.357200       13.6070           0   -0.803000   1.00000
      1567 IM1H     79       IM1H     DN1      DRUD    -2.199200        0.4000           0   0.00000   0.00000
      1568 IM1H     79       IM1H     C2       CD2R5D   2.447000       11.6110           0   -1.08300   1.10000
      1569 IM1H     79       IM1H     DC2      DRUD    -2.554000        0.4000           0   0.00000   0.00000
      1570 IM1H     79       IM1H     H4       HDR5D    0.195000        1.0080           0   0.00000   0.00000
      1571 IM1H     79       IM1H     C3       CD2R5D   2.507000       11.6110           0   -1.08300   1.10000
      1572 IM1H     79       IM1H     DC3      DRUD    -2.554000        0.4000           0   0.00000   0.00000
      1573 IM1H     79       IM1H     H5       HDR5D    0.192000        1.0080           0   0.00000   0.00000
      1574 IM1H     79       IM1H     C4       CD2R5E   2.724100       11.6110           0   -1.25300   1.20000
      1575 IM1H     79       IM1H     DC4      DRUD    -2.747100        0.4000           0   0.00000   0.00000
      1576 IM1H     79       IM1H     H6       HDR5E    0.203000        1.0080           0   0.00000   0.00000
      1577 IM1H     79       IM1H     N2       ND2R5C   2.042200       13.6070           0   -0.803000   1.00000
      1578 IM1H     79       IM1H     DN2      DRUD    -2.199200        0.4000           0   0.00000   0.00000
      1579 IM1H     79       IM1H     H7       HDP1A    0.363000        1.0080           0   0.00000   0.00000
      1580 IM1H     79       IM1H     LPN21    LPD      0.000000        0.0000           -1   0.00000   0.00000
      1581 IM1H     80       IM1H     C1       CD33F    2.485000       11.6110           0   -1.18100   1.10000
      1582 IM1H     80       IM1H     DC1      DRUD    -2.667000        0.4000           0   0.00000   0.00000
      1583 IM1H     80       IM1H     H1       HDA3A    0.135000        1.0080           0   0.00000   0.00000
      1584 IM1H     80       IM1H     H2       HDA3A    0.135000        1.0080           0   0.00000   0.00000
      1585 IM1H     80       IM1H     H3       HDA3A    0.135000        1.0080           0   0.00000   0.00000
      1586 IM1H     80       IM1H     N1       ND2R5C   2.357200       13.6070           0   -0.803000   1.00000
      1587 IM1H     80       IM1H     DN1      DRUD    -2.199200        0.4000           0   0.00000   0.00000
      1588 IM1H     80       IM1H     C2       CD2R5D   2.447000       11.6110           0   -1.08300   1.10000
      1589 IM1H     80       IM1H     DC2      DRUD    -2.554000        0.4000           0   0.00000   0.00000
      1590 IM1H     80       IM1H     H4       HDR5D    0.195000        1.0080           0   0.00000   0.00000
      1591 IM1H     80       IM1H     C3       CD2R5D   2.507000       11.6110           0   -1.08300   1.10000
      1592 IM1H     80       IM1H     DC3      DRUD    -2.554000        0.4000           0   0.00000   0.00000
      1593 IM1H     80       IM1H     H5       HDR5D    0.192000        1.0080           0   0.00000   0.00000
      1594 IM1H     80       IM1H     C4       CD2R5E   2.724100       11.6110           0   -1.25300   1.20000
      1595 IM1H     80       IM1H     DC4      DRUD    -2.747100        0.4000           0   0.00000   0.00000
      1596 IM1H     80       IM1H     H6       HDR5E    0.203000        1.0080           0   0.00000   0.00000
      1597 IM1H     80       IM1H     N2       ND2R5C   2.042200       13.6070           0   -0.803000   1.00000
      1598 IM1H     80       IM1H     DN2      DRUD    -2.199200        0.4000           0   0.00000   0.00000
      1599 IM1H     80       IM1H     H7       HDP1A    0.363000        1.0080           0   0.00000   0.00000
      1600 IM1H     80       IM1H     LPN21    LPD      0.000000        0.0000           -1   0.00000   0.00000
      1601 IM1H     81       IM1H     C1       CD33F    2.485000       11.6110           0   -1.18100   1.10000
      1602 IM1H     81       IM1H     DC1      DRUD    -2.667000        0.4000           0   0.00000   0.00000
      1603 IM1H     81       IM1H     H1       HDA3A    0.135000        1.0080           0   0.00000   0.00000
      1604 IM1H     81       IM1H     H2       HDA3A    0.135000        1.0080           0   0.00000   0.00000
      1605 IM1H     81       IM1H     H3       HDA3A    0.135000        1.0080           0   0.00000   0.00000
      1606 IM1H     81       IM1H     N1       ND2R5C   2.357200       13.6070           0   -0.803000   1.00000
      1607 IM1H     81       IM1H     DN1      DRUD    -2.199200        0.4000           0   0.00000   0.00000
      1608 IM1H     81       IM1H     C2       CD2R5D   2.447000       11.6110           0   -1.08300   1.10000
      1609 IM1H     81       IM1H     DC2      DRUD    -2.554000        0.4000           0   0.00000   0.00000
      1610 IM1H     81       IM1H     H4       HDR5D    0.195000        1.0080           0   0.00000   0.00000
      1611 IM1H     81       IM1H     C3       CD2R5D   2.507000       11.6110           0   -1.08300   1.10000
      1612 IM1H     81       IM1H     DC3      DRUD    -2.554000        0.4000           0   0.00000   0.00000
      1613 IM1H     81       IM1H     H5       HDR5D    0.192000        1.0080           0   0.00000   0.00000
      1614 IM1H     81       IM1H     C4       CD2R5E   2.724100       11.6110           0   -1.25300   1.20000
      1615 IM1H     81       IM1H     DC4      DRUD    -2.747100        0.4000           0   0.00000   0.00000
      1616 IM1H     81       IM1H     H6       HDR5E    0.203000        1.0080           0   0.00000   0.00000
      1617 IM1H     81       IM1H     N2       ND2R5C   2.042200       13.6070           0   -0.803000   1.00000
      1618 IM1H     81       IM1H     DN2      DRUD    -2.199200        0.4000           0   0.00000   0.00000
      1619 IM1H     81       IM1H     H7       HDP1A    0.363000        1.0080           0   0.00000   0.00000
      1620 IM1H     81       IM1H     LPN21    LPD      0.000000        0.0000           -1   0.00000   0.00000
      1621 IM1H     82       IM1H     C1       CD33F    2.485000       11.6110           0   -1.18100   1.10000
      1622 IM1H     82       IM1H     DC1      DRUD    -2.667000        0.4000           0   0.00000   0.00000
      1623 IM1H     82       IM1H     H1       HDA3A    0.135000        1.0080           0   0.00000   0.00000
      1624 IM1H     82       IM1H     H2       HDA3A    0.135000        1.0080           0   0.00000   0.00000
      1625 IM1H     82       IM1H     H3       HDA3A    0.135000        1.0080           0   0.00000   0.00000
      1626 IM1H     82       IM1H     N1       ND2R5C   2.357200       13.6070           0   -0.803000   1.00000
      1627 IM1H     82       IM1H     DN1      DRUD    -2.199200        0.4000           0   0.00000   0.00000
      1628 IM1H     82       IM1H     C2       CD2R5D   2.447000       11.6110           0   -1.08300   1.10000
      1629 IM1H     82       IM1H     DC2      DRUD    -2.554000        0.4000           0   0.00000   0.00000
      1630 IM1H     82       IM1H     H4       HDR5D    0.195000        1.0080           0   0.00000   0.00000
      1631 IM1H     82       IM1H     C3       CD2R5D   2.507000       11.6110           0   -1.08300   1.10000
      1632 IM1H     82       IM1H     DC3      DRUD    -2.554000        0.4000           0   0.00000   0.00000
      1633 IM1H     82       IM1H     H5       HDR5D    0.192000        1.0080           0   0.00000   0.00000
      1634 IM1H     82       IM1H     C4       CD2R5E   2.724100       11.6110           0   -1.25300   1.20000
      1635 IM1H     82       IM1H     DC4      DRUD    -2.747100        0.4000           0   0.00000   0.00000
      1636 IM1H     82       IM1H     H6       HDR5E    0.203000        1.0080           0   0.00000   0.00000
      1637 IM1H     82       IM1H     N2       ND2R5C   2.042200       13.6070           0   -0.803000   1.00000
      1638 IM1H     82       IM1H     DN2      DRUD    -2.199200        0.4000           0   0.00000   0.00000
      1639 IM1H     82       IM1H     H7       HDP1A    0.363000        1.0080           0   0.00000   0.00000
      1640 IM1H     82       IM1H     LPN21    LPD      0.000000        0.0000           -1   0.00000   0.00000
      1641 IM1H     83       IM1H     C1       CD33F    2.485000       11.6110           0   -1.18100   1.10000
      1642 IM1H     83       IM1H     DC1      DRUD    -2.667000        0.4000           0   0.00000   0.00000
      1643 IM1H     83       IM1H     H1       HDA3A    0.135000        1.0080           0   0.00000   0.00000
      1644 IM1H     83       IM1H     H2       HDA3A    0.135000        1.0080           0   0.00000   0.00000
      1645 IM1H     83       IM1H     H3       HDA3A    0.135000        1.0080           0   0.00000   0.00000
      1646 IM1H     83       IM1H     N1       ND2R5C   2.357200       13.6070           0   -0.803000   1.00000
      1647 IM1H     83       IM1H     DN1      DRUD    -2.199200        0.4000           0   0.00000   0.00000
      1648 IM1H     83       IM1H     C2       CD2R5D   2.447000       11.6110           0   -1.08300   1.10000
      1649 IM1H     83       IM1H     DC2      DRUD    -2.554000        0.4000           0   0.00000   0.00000
      1650 IM1H     83       IM1H     H4       HDR5D    0.195000        1.0080           0   0.00000   0.00000
      1651 IM1H     83       IM1H     C3       CD2R5D   2.507000       11.6110           0   -1.08300   1.10000
      1652 IM1H     83       IM1H     DC3      DRUD    -2.554000        0.4000           0   0.00000   0.00000
      1653 IM1H     83       IM1H     H5       HDR5D    0.192000        1.0080           0   0.00000   0.00000
      1654 IM1H     83       IM1H     C4       CD2R5E   2.724100       11.6110           0   -1.25300   1.20000
      1655 IM1H     83       IM1H     DC4      DRUD    -2.747100        0.4000           0   0.00000   0.00000
      1656 IM1H     83       IM1H     H6       HDR5E    0.203000        1.0080           0   0.00000   0.00000
      1657 IM1H     83       IM1H     N2       ND2R5C   2.042200       13.6070           0   -0.803000   1.00000
      1658 IM1H     83       IM1H     DN2      DRUD    -2.199200        0.4000           0   0.00000   0.00000
      1659 IM1H     83       IM1H     H7       HDP1A    0.363000        1.0080           0   0.00000   0.00000
      1660 IM1H     83       IM1H     LPN21    LPD      0.000000        0.0000           -1   0.00000   0.00000
      1661 IM1H     84       IM1H     C1       CD33F    2.485000       11.6110           0   -1.18100   1.10000
      1662 IM1H     84       IM1H     DC1      DRUD    -2.667000        0.4000           0   0.00000   0.00000
      1663 IM1H     84       IM1H     H1       HDA3A    0.135000        1.0080           0   0.00000   0.00000
      1664 IM1H     84       IM1H     H2       HDA3A    0.135000        1.0080           0   0.00000   0.00000
      1665 IM1H     84       IM1H     H3       HDA3A    0.135000        1.0080           0   0.00000   0.00000
      1666 IM1H     84       IM1H     N1       ND2R5C   2.357200       13.6070           0   -0.803000   1.00000
      1667 IM1H     84       IM1H     DN1      DRUD    -2.199200        0.4000           0   0.00000   0.00000
      1668 IM1H     84       IM1H     C2       CD2R5D   2.447000       11.6110           0   -1.08300   1.10000
      1669 IM1H     84       IM1H     DC2      DRUD    -2.554000        0.4000           0   0.00000   0.00000
      1670 IM1H     84       IM1H     H4       HDR5D    0.195000        1.0080           0   0.00000   0.00000
      1671 IM1H     84       IM1H     C3       CD2R5D   2.507000       11.6110           0   -1.08300   1.10000
      1672 IM1H     84       IM1H     DC3      DRUD    -2.554000        0.4000           0   0.00000   0.00000
      1673 IM1H     84       IM1H     H5       HDR5D    0.192000        1.0080           0   0.00000   0.00000
      1674 IM1H     84       IM1H     C4       CD2R5E   2.724100       11.6110           0   -1.25300   1.20000
      1675 IM1H     84       IM1H     DC4      DRUD    -2.747100        0.4000           0   0.00000   0.00000
      1676 IM1H     84       IM1H     H6       HDR5E    0.203000        1.0080           0   0.00000   0.00000
      1677 IM1H     84       IM1H     N2       ND2R5C   2.042200       13.6070           0   -0.803000   1.00000
      1678 IM1H     84       IM1H     DN2      DRUD    -2.199200        0.4000           0   0.00000   0.00000
      1679 IM1H     84       IM1H     H7       HDP1A    0.363000        1.0080           0   0.00000   0.00000
      1680 IM1H     84       IM1H     LPN21    LPD      0.000000        0.0000           -1   0.00000   0.00000
      1681 IM1H     85       IM1H     C1       CD33F    2.485000       11.6110           0   -1.18100   1.10000
      1682 IM1H     85       IM1H     DC1      DRUD    -2.667000        0.4000           0   0.00000   0.00000
      1683 IM1H     85       IM1H     H1       HDA3A    0.135000        1.0080           0   0.00000   0.00000
      1684 IM1H     85       IM1H     H2       HDA3A    0.135000        1.0080           0   0.00000   0.00000
      1685 IM1H     85       IM1H     H3       HDA3A    0.135000        1.0080           0   0.00000   0.00000
      1686 IM1H     85       IM1H     N1       ND2R5C   2.357200       13.6070           0   -0.803000   1.00000
      1687 IM1H     85       IM1H     DN1      DRUD    -2.199200        0.4000           0   0.00000   0.00000
      1688 IM1H     85       IM1H     C2       CD2R5D   2.447000       11.6110           0   -1.08300   1.10000
      1689 IM1H     85       IM1H     DC2      DRUD    -2.554000        0.4000           0   0.00000   0.00000
      1690 IM1H     85       IM1H     H4       HDR5D    0.195000        1.0080           0   0.00000   0.00000
      1691 IM1H     85       IM1H     C3       CD2R5D   2.507000       11.6110           0   -1.08300   1.10000
      1692 IM1H     85       IM1H     DC3      DRUD    -2.554000        0.4000           0   0.00000   0.00000
      1693 IM1H     85       IM1H     H5       HDR5D    0.192000        1.0080           0   0.00000   0.00000
      1694 IM1H     85       IM1H     C4       CD2R5E   2.724100       11.6110           0   -1.25300   1.20000
      1695 IM1H     85       IM1H     DC4      DRUD    -2.747100        0.4000           0   0.00000   0.00000
      1696 IM1H     85       IM1H     H6       HDR5E    0.203000        1.0080           0   0.00000   0.00000
      1697 IM1H     85       IM1H     N2       ND2R5C   2.042200       13.6070           0   -0.803000   1.00000
      1698 IM1H     85       IM1H     DN2      DRUD    -2.199200        0.4000           0   0.00000   0.00000
      1699 IM1H     85       IM1H     H7       HDP1A    0.363000        1.0080           0   0.00000   0.00000
      1700 IM1H     85       IM1H     LPN21    LPD      0.000000        0.0000           -1   0.00000   0.00000
      1701 IM1H     86       IM1H     C1       CD33F    2.485000       11.6110           0   -1.18100   1.10000
      1702 IM1H     86       IM1H     DC1      DRUD    -2.667000        0.4000           0   0.00000   0.00000
      1703 IM1H     86       IM1H     H1       HDA3A    0.135000        1.0080           0   0.00000   0.00000
      1704 IM1H     86       IM1H     H2       HDA3A    0.135000        1.0080           0   0.00000   0.00000
      1705 IM1H     86       IM1H     H3       HDA3A    0.135000        1.0080           0   0.00000   0.00000
      1706 IM1H     86       IM1H     N1       ND2R5C   2.357200       13.6070           0   -0.803000   1.00000
      1707 IM1H     86       IM1H     DN1      DRUD    -2.199200        0.4000           0   0.00000   0.00000
      1708 IM1H     86       IM1H     C2       CD2R5D   2.447000       11.6110           0   -1.08300   1.10000
      1709 IM1H     86       IM1H     DC2      DRUD    -2.554000        0.4000           0   0.00000   0.00000
      1710 IM1H     86       IM1H     H4       HDR5D    0.195000        1.0080           0   0.00000   0.00000
      1711 IM1H     86       IM1H     C3       CD2R5D   2.507000       11.6110           0   -1.08300   1.10000
      1712 IM1H     86       IM1H     DC3      DRUD    -2.554000        0.4000           0   0.00000   0.00000
      1713 IM1H     86       IM1H     H5       HDR5D    0.192000        1.0080           0   0.00000   0.00000
      1714 IM1H     86       IM1H     C4       CD2R5E   2.724100       11.6110           0   -1.25300   1.20000
      1715 IM1H     86       IM1H     DC4      DRUD    -2.747100        0.4000           0   0.00000   0.00000
      1716 IM1H     86       IM1H     H6       HDR5E    0.203000        1.0080           0   0.00000   0.00000
      1717 IM1H     86       IM1H     N2       ND2R5C   2.042200       13.6070           0   -0.803000   1.00000
      1718 IM1H     86       IM1H     DN2      DRUD    -2.199200        0.4000           0   0.00000   0.00000
      1719 IM1H     86       IM1H     H7       HDP1A    0.363000        1.0080           0   0.00000   0.00000
      1720 IM1H     86       IM1H     LPN21    LPD      0.000000        0.0000           -1   0.00000   0.00000
      1721 IM1H     87       IM1H     C1       CD33F    2.485000       11.6110           0   -1.18100   1.10000
      1722 IM1H     87       IM1H     DC1      DRUD    -2.667000        0.4000           0   0.00000   0.00000
      1723 IM1H     87       IM1H     H1       HDA3A    0.135000        1.0080           0   0.00000   0.00000
      1724 IM1H     87       IM1H     H2       HDA3A    0.135000        1.0080           0   0.00000   0.00000
      1725 IM1H     87       IM1H     H3       HDA3A    0.135000        1.0080           0   0.00000   0.00000
      1726 IM1H     87       IM1H     N1       ND2R5C   2.357200       13.6070           0   -0.803000   1.00000
      1727 IM1H     87       IM1H     DN1      DRUD    -2.199200        0.4000           0   0.00000   0.00000
      1728 IM1H     87       IM1H     C2       CD2R5D   2.447000       11.6110           0   -1.08300   1.10000
      1729 IM1H     87       IM1H     DC2      DRUD    -2.554000        0.4000           0   0.00000   0.00000
      1730 IM1H     87       IM1H     H4       HDR5D    0.195000        1.0080           0   0.00000   0.00000
      1731 IM1H     87       IM1H     C3       CD2R5D   2.507000       11.6110           0   -1.08300   1.10000
      1732 IM1H     87       IM1H     DC3      DRUD    -2.554000        0.4000           0   0.00000   0.00000
      1733 IM1H     87       IM1H     H5       HDR5D    0.192000        1.0080           0   0.00000   0.00000
      1734 IM1H     87       IM1H     C4       CD2R5E   2.724100       11.6110           0   -1.25300   1.20000
      1735 IM1H     87       IM1H     DC4      DRUD    -2.747100        0.4000           0   0.00000   0.00000
      1736 IM1H     87       IM1H     H6       HDR5E    0.203000        1.0080           0   0.00000   0.00000
      1737 IM1H     87       IM1H     N2       ND2R5C   2.042200       13.6070           0   -0.803000   1.00000
      1738 IM1H     87       IM1H     DN2      DRUD    -2.199200        0.4000           0   0.00000   0.00000
      1739 IM1H     87       IM1H     H7       HDP1A    0.363000        1.0080           0   0.00000   0.00000
      1740 IM1H     87       IM1H     LPN21    LPD      0.000000        0.0000           -1   0.00000   0.00000
      1741 IM1H     88       IM1H     C1       CD33F    2.485000       11.6110           0   -1.18100   1.10000
      1742 IM1H     88       IM1H     DC1      DRUD    -2.667000        0.4000           0   0.00000   0.00000
      1743 IM1H     88       IM1H     H1       HDA3A    0.135000        1.0080           0   0.00000   0.00000
      1744 IM1H     88       IM1H     H2       HDA3A    0.135000        1.0080           0   0.00000   0.00000
      1745 IM1H     88       IM1H     H3       HDA3A    0.135000        1.0080           0   0.00000   0.00000
      1746 IM1H     88       IM1H     N1       ND2R5C   2.357200       13.6070           0   -0.803000   1.00000
      1747 IM1H     88       IM1H     DN1      DRUD    -2.199200        0.4000           0   0.00000   0.00000
      1748 IM1H     88       IM1H     C2       CD2R5D   2.447000       11.6110           0   -1.08300   1.10000
      1749 IM1H     88       IM1H     DC2      DRUD    -2.554000        0.4000           0   0.00000   0.00000
      1750 IM1H     88       IM1H     H4       HDR5D    0.195000        1.0080           0   0.00000   0.00000
      1751 IM1H     88       IM1H     C3       CD2R5D   2.507000       11.6110           0   -1.08300   1.10000
      1752 IM1H     88       IM1H     DC3      DRUD    -2.554000        0.4000           0   0.00000   0.00000
      1753 IM1H     88       IM1H     H5       HDR5D    0.192000        1.0080           0   0.00000   0.00000
      1754 IM1H     88       IM1H     C4       CD2R5E   2.724100       11.6110           0   -1.25300   1.20000
      1755 IM1H     88       IM1H     DC4      DRUD    -2.747100        0.4000           0   0.00000   0.00000
      1756 IM1H     88       IM1H     H6       HDR5E    0.203000        1.0080           0   0.00000   0.00000
      1757 IM1H     88       IM1H     N2       ND2R5C   2.042200       13.6070           0   -0.803000   1.00000
      1758 IM1H     88       IM1H     DN2      DRUD    -2.199200        0.4000           0   0.00000   0.00000
      1759 IM1H     88       IM1H     H7       HDP1A    0.363000        1.0080           0   0.00000   0.00000
      1760 IM1H     88       IM1H     LPN21    LPD      0.000000        0.0000           -1   0.00000   0.00000
      1761 IM1H     89       IM1H     C1       CD33F    2.485000       11.6110           0   -1.18100   1.10000
      1762 IM1H     89       IM1H     DC1      DRUD    -2.667000        0.4000           0   0.00000   0.00000
      1763 IM1H     89       IM1H     H1       HDA3A    0.135000        1.0080           0   0.00000   0.00000
      1764 IM1H     89       IM1H     H2       HDA3A    0.135000        1.0080           0   0.00000   0.00000
      1765 IM1H     89       IM1H     H3       HDA3A    0.135000        1.0080           0   0.00000   0.00000
      1766 IM1H     89       IM1H     N1       ND2R5C   2.357200       13.6070           0   -0.803000   1.00000
      1767 IM1H     89       IM1H     DN1      DRUD    -2.199200        0.4000           0   0.00000   0.00000
      1768 IM1H     89       IM1H     C2       CD2R5D   2.447000       11.6110           0   -1.08300   1.10000
      1769 IM1H     89       IM1H     DC2      DRUD    -2.554000        0.4000           0   0.00000   0.00000
      1770 IM1H     89       IM1H     H4       HDR5D    0.195000        1.0080           0   0.00000   0.00000
      1771 IM1H     89       IM1H     C3       CD2R5D   2.507000       11.6110           0   -1.08300   1.10000
      1772 IM1H     89       IM1H     DC3      DRUD    -2.554000        0.4000           0   0.00000   0.00000
      1773 IM1H     89       IM1H     H5       HDR5D    0.192000        1.0080           0   0.00000   0.00000
      1774 IM1H     89       IM1H     C4       CD2R5E   2.724100       11.6110           0   -1.25300   1.20000
      1775 IM1H     89       IM1H     DC4      DRUD    -2.747100        0.4000           0   0.00000   0.00000
      1776 IM1H     89       IM1H     H6       HDR5E    0.203000        1.0080           0   0.00000   0.00000
      1777 IM1H     89       IM1H     N2       ND2R5C   2.042200       13.6070           0   -0.803000   1.00000
      1778 IM1H     89       IM1H     DN2      DRUD    -2.199200        0.4000           0   0.00000   0.00000
      1779 IM1H     89       IM1H     H7       HDP1A    0.363000        1.0080           0   0.00000   0.00000
      1780 IM1H     89       IM1H     LPN21    LPD      0.000000        0.0000           -1   0.00000   0.00000
      1781 IM1H     90       IM1H     C1       CD33F    2.485000       11.6110           0   -1.18100   1.10000
      1782 IM1H     90       IM1H     DC1      DRUD    -2.667000        0.4000           0   0.00000   0.00000
      1783 IM1H     90       IM1H     H1       HDA3A    0.135000        1.0080           0   0.00000   0.00000
      1784 IM1H     90       IM1H     H2       HDA3A    0.135000        1.0080           0   0.00000   0.00000
      1785 IM1H     90       IM1H     H3       HDA3A    0.135000        1.0080           0   0.00000   0.00000
      1786 IM1H     90       IM1H     N1       ND2R5C   2.357200       13.6070           0   -0.803000   1.00000
      1787 IM1H     90       IM1H     DN1      DRUD    -2.199200        0.4000           0   0.00000   0.00000
      1788 IM1H     90       IM1H     C2       CD2R5D   2.447000       11.6110           0   -1.08300   1.10000
      1789 IM1H     90       IM1H     DC2      DRUD    -2.554000        0.4000           0   0.00000   0.00000
      1790 IM1H     90       IM1H     H4       HDR5D    0.195000        1.0080           0   0.00000   0.00000
      1791 IM1H     90       IM1H     C3       CD2R5D   2.507000       11.6110           0   -1.08300   1.10000
      1792 IM1H     90       IM1H     DC3      DRUD    -2.554000        0.4000           0   0.00000   0.00000
      1793 IM1H     90       IM1H     H5       HDR5D    0.192000        1.0080           0   0.00000   0.00000
      1794 IM1H     90       IM1H     C4       CD2R5E   2.724100       11.6110           0   -1.25300   1.20000
      1795 IM1H     90       IM1H     DC4      DRUD    -2.747100        0.4000           0   0.00000   0.00000
      1796 IM1H     90       IM1H     H6       HDR5E    0.203000        1.0080           0   0.00000   0.00000
      1797 IM1H     90       IM1H     N2       ND2R5C   2.042200       13.6070           0   -0.803000   1.00000
      1798 IM1H     90       IM1H     DN2      DRUD    -2.199200        0.4000           0   0.00000   0.00000
      1799 IM1H     90       IM1H     H7       HDP1A    0.363000        1.0080           0   0.00000   0.00000
      1800 IM1H     90       IM1H     LPN21    LPD      0.000000        0.0000           -1   0.00000   0.00000
      1801 IM1H     91       IM1H     C1       CD33F    2.485000       11.6110           0   -1.18100   1.10000
      1802 IM1H     91       IM1H     DC1      DRUD    -2.667000        0.4000           0   0.00000   0.00000
      1803 IM1H     91       IM1H     H1       HDA3A    0.135000        1.0080           0   0.00000   0.00000
      1804 IM1H     91       IM1H     H2       HDA3A    0.135000        1.0080           0   0.00000   0.00000
      1805 IM1H     91       IM1H     H3       HDA3A    0.135000        1.0080           0   0.00000   0.00000
      1806 IM1H     91       IM1H     N1       ND2R5C   2.357200       13.6070           0   -0.803000   1.00000
      1807 IM1H     91       IM1H     DN1      DRUD    -2.199200        0.4000           0   0.00000   0.00000
      1808 IM1H     91       IM1H     C2       CD2R5D   2.447000       11.6110           0   -1.08300   1.10000
      1809 IM1H     91       IM1H     DC2      DRUD    -2.554000        0.4000           0   0.00000   0.00000
      1810 IM1H     91       IM1H     H4       HDR5D    0.195000        1.0080           0   0.00000   0.00000
      1811 IM1H     91       IM1H     C3       CD2R5D   2.507000       11.6110           0   -1.08300   1.10000
      1812 IM1H     91       IM1H     DC3      DRUD    -2.554000        0.4000           0   0.00000   0.00000
      1813 IM1H     91       IM1H     H5       HDR5D    0.192000        1.0080           0   0.00000   0.00000
      1814 IM1H     91       IM1H     C4       CD2R5E   2.724100       11.6110           0   -1.25300   1.20000
      1815 IM1H     91       IM1H     DC4      DRUD    -2.747100        0.4000           0   0.00000   0.00000
      1816 IM1H     91       IM1H     H6       HDR5E    0.203000        1.0080           0   0.00000   0.00000
      1817 IM1H     91       IM1H     N2       ND2R5C   2.042200       13.6070           0   -0.803000   1.00000
      1818 IM1H     91       IM1H     DN2      DRUD    -2.199200        0.4000           0   0.00000   0.00000
      1819 IM1H     91       IM1H     H7       HDP1A    0.363000        1.0080           0   0.00000   0.00000
      1820 IM1H     91       IM1H     LPN21    LPD      0.000000        0.0000           -1   0.00000   0.00000
      1821 IM1H     92       IM1H     C1       CD33F    2.485000       11.6110           0   -1.18100   1.10000
      1822 IM1H     92       IM1H     DC1      DRUD    -2.667000        0.4000           0   0.00000   0.00000
      1823 IM1H     92       IM1H     H1       HDA3A    0.135000        1.0080           0   0.00000   0.00000
      1824 IM1H     92       IM1H     H2       HDA3A    0.135000        1.0080           0   0.00000   0.00000
      1825 IM1H     92       IM1H     H3       HDA3A    0.135000        1.0080           0   0.00000   0.00000
      1826 IM1H     92       IM1H     N1       ND2R5C   2.357200       13.6070           0   -0.803000   1.00000
      1827 IM1H     92       IM1H     DN1      DRUD    -2.199200        0.4000           0   0.00000   0.00000
      1828 IM1H     92       IM1H     C2       CD2R5D   2.447000       11.6110           0   -1.08300   1.10000
      1829 IM1H     92       IM1H     DC2      DRUD    -2.554000        0.4000           0   0.00000   0.00000
      1830 IM1H     92       IM1H     H4       HDR5D    0.195000        1.0080           0   0.00000   0.00000
      1831 IM1H     92       IM1H     C3       CD2R5D   2.507000       11.6110           0   -1.08300   1.10000
      1832 IM1H     92       IM1H     DC3      DRUD    -2.554000        0.4000           0   0.00000   0.00000
      1833 IM1H     92       IM1H     H5       HDR5D    0.192000        1.0080           0   0.00000   0.00000
      1834 IM1H     92       IM1H     C4       CD2R5E   2.724100       11.6110           0   -1.25300   1.20000
      1835 IM1H     92       IM1H     DC4      DRUD    -2.747100        0.4000           0   0.00000   0.00000
      1836 IM1H     92       IM1H     H6       HDR5E    0.203000        1.0080           0   0.00000   0.00000
      1837 IM1H     92       IM1H     N2       ND2R5C   2.042200       13.6070           0   -0.803000   1.00000
      1838 IM1H     92       IM1H     DN2      DRUD    -2.199200        0.4000           0   0.00000   0.00000
      1839 IM1H     92       IM1H     H7       HDP1A    0.363000        1.0080           0   0.00000   0.00000
      1840 IM1H     92       IM1H     LPN21    LPD      0.000000        0.0000           -1   0.00000   0.00000
      1841 IM1H     93       IM1H     C1       CD33F    2.485000       11.6110           0   -1.18100   1.10000
      1842 IM1H     93       IM1H     DC1      DRUD    -2.667000        0.4000           0   0.00000   0.00000
      1843 IM1H     93       IM1H     H1       HDA3A    0.135000        1.0080           0   0.00000   0.00000
      1844 IM1H     93       IM1H     H2       HDA3A    0.135000        1.0080           0   0.00000   0.00000
      1845 IM1H     93       IM1H     H3       HDA3A    0.135000        1.0080           0   0.00000   0.00000
      1846 IM1H     93       IM1H     N1       ND2R5C   2.357200       13.6070           0   -0.803000   1.00000
      1847 IM1H     93       IM1H     DN1      DRUD    -2.199200        0.4000           0   0.00000   0.00000
      1848 IM1H     93       IM1H     C2       CD2R5D   2.447000       11.6110           0   -1.08300   1.10000
      1849 IM1H     93       IM1H     DC2      DRUD    -2.554000        0.4000           0   0.00000   0.00000
      1850 IM1H     93       IM1H     H4       HDR5D    0.195000        1.0080           0   0.00000   0.00000
      1851 IM1H     93       IM1H     C3       CD2R5D   2.507000       11.6110           0   -1.08300   1.10000
      1852 IM1H     93       IM1H     DC3      DRUD    -2.554000        0.4000           0   0.00000   0.00000
      1853 IM1H     93       IM1H     H5       HDR5D    0.192000        1.0080           0   0.00000   0.00000
      1854 IM1H     93       IM1H     C4       CD2R5E   2.724100       11.6110           0   -1.25300   1.20000
      1855 IM1H     93       IM1H     DC4      DRUD    -2.747100        0.4000           0   0.00000   0.00000
      1856 IM1H     93       IM1H     H6       HDR5E    0.203000        1.0080           0   0.00000   0.00000
      1857 IM1H     93       IM1H     N2       ND2R5C   2.042200       13.6070           0   -0.803000   1.00000
      1858 IM1H     93       IM1H     DN2      DRUD    -2.199200        0.4000           0   0.00000   0.00000
      1859 IM1H     93       IM1H     H7       HDP1A    0.363000        1.0080           0   0.00000   0.00000
      1860 IM1H     93       IM1H     LPN21    LPD      0.000000        0.0000           -1   0.00000   0.00000
      1861 IM1H     94       IM1H     C1       CD33F    2.485000       11.6110           0   -1.18100   1.10000
      1862 IM1H     94       IM1H     DC1      DRUD    -2.667000        0.4000           0   0.00000   0.00000
      1863 IM1H     94       IM1H     H1       HDA3A    0.135000        1.0080           0   0.00000   0.00000
      1864 IM1H     94       IM1H     H2       HDA3A    0.135000        1.0080           0   0.00000   0.00000
      1865 IM1H     94       IM1H     H3       HDA3A    0.135000        1.0080           0   0.00000   0.00000
      1866 IM1H     94       IM1H     N1       ND2R5C   2.357200       13.6070           0   -0.803000   1.00000
      1867 IM1H     94       IM1H     DN1      DRUD    -2.199200        0.4000           0   0.00000   0.00000
      1868 IM1H     94       IM1H     C2       CD2R5D   2.447000       11.6110           0   -1.08300   1.10000
      1869 IM1H     94       IM1H     DC2      DRUD    -2.554000        0.4000           0   0.00000   0.00000
      1870 IM1H     94       IM1H     H4       HDR5D    0.195000        1.0080           0   0.00000   0.00000
      1871 IM1H     94       IM1H     C3       CD2R5D   2.507000       11.6110           0   -1.08300   1.10000
      1872 IM1H     94       IM1H     DC3      DRUD    -2.554000        0.4000           0   0.00000   0.00000
      1873 IM1H     94       IM1H     H5       HDR5D    0.192000        1.0080           0   0.00000   0.00000
      1874 IM1H     94       IM1H     C4       CD2R5E   2.724100       11.6110           0   -1.25300   1.20000
      1875 IM1H     94       IM1H     DC4      DRUD    -2.747100        0.4000           0   0.00000   0.00000
      1876 IM1H     94       IM1H     H6       HDR5E    0.203000        1.0080           0   0.00000   0.00000
      1877 IM1H     94       IM1H     N2       ND2R5C   2.042200       13.6070           0   -0.803000   1.00000
      1878 IM1H     94       IM1H     DN2      DRUD    -2.199200        0.4000           0   0.00000   0.00000
      1879 IM1H     94       IM1H     H7       HDP1A    0.363000        1.0080           0   0.00000   0.00000
      1880 IM1H     94       IM1H     LPN21    LPD      0.000000        0.0000           -1   0.00000   0.00000
      1881 IM1H     95       IM1H     C1       CD33F    2.485000       11.6110           0   -1.18100   1.10000
      1882 IM1H     95       IM1H     DC1      DRUD    -2.667000        0.4000           0   0.00000   0.00000
      1883 IM1H     95       IM1H     H1       HDA3A    0.135000        1.0080           0   0.00000   0.00000
      1884 IM1H     95       IM1H     H2       HDA3A    0.135000        1.0080           0   0.00000   0.00000
      1885 IM1H     95       IM1H     H3       HDA3A    0.135000        1.0080           0   0.00000   0.00000
      1886 IM1H     95       IM1H     N1       ND2R5C   2.357200       13.6070           0   -0.803000   1.00000
      1887 IM1H     95       IM1H     DN1      DRUD    -2.199200        0.4000           0   0.00000   0.00000
      1888 IM1H     95       IM1H     C2       CD2R5D   2.447000       11.6110           0   -1.08300   1.10000
      1889 IM1H     95       IM1H     DC2      DRUD    -2.554000        0.4000           0   0.00000   0.00000
      1890 IM1H     95       IM1H     H4       HDR5D    0.195000        1.0080           0   0.00000   0.00000
      1891 IM1H     95       IM1H     C3       CD2R5D   2.507000       11.6110           0   -1.08300   1.10000
      1892 IM1H     95       IM1H     DC3      DRUD    -2.554000        0.4000           0   0.00000   0.00000
      1893 IM1H     95       IM1H     H5       HDR5D    0.192000        1.0080           0   0.00000   0.00000
      1894 IM1H     95       IM1H     C4       CD2R5E   2.724100       11.6110           0   -1.25300   1.20000
      1895 IM1H     95       IM1H     DC4      DRUD    -2.747100        0.4000           0   0.00000   0.00000
      1896 IM1H     95       IM1H     H6       HDR5E    0.203000        1.0080           0   0.00000   0.00000
      1897 IM1H     95       IM1H     N2       ND2R5C   2.042200       13.6070           0   -0.803000   1.00000
      1898 IM1H     95       IM1H     DN2      DRUD    -2.199200        0.4000           0   0.00000   0.00000
      1899 IM1H     95       IM1H     H7       HDP1A    0.363000        1.0080           0   0.00000   0.00000
      1900 IM1H     95       IM1H     LPN21    LPD      0.000000        0.0000           -1   0.00000   0.00000
      1901 IM1H     96       IM1H     C1       CD33F    2.485000       11.6110           0   -1.18100   1.10000
      1902 IM1H     96       IM1H     DC1      DRUD    -2.667000        0.4000           0   0.00000   0.00000
      1903 IM1H     96       IM1H     H1       HDA3A    0.135000        1.0080           0   0.00000   0.00000
      1904 IM1H     96       IM1H     H2       HDA3A    0.135000        1.0080           0   0.00000   0.00000
      1905 IM1H     96       IM1H     H3       HDA3A    0.135000        1.0080           0   0.00000   0.00000
      1906 IM1H     96       IM1H     N1       ND2R5C   2.357200       13.6070           0   -0.803000   1.00000
      1907 IM1H     96       IM1H     DN1      DRUD    -2.199200        0.4000           0   0.00000   0.00000
      1908 IM1H     96       IM1H     C2       CD2R5D   2.447000       11.6110           0   -1.08300   1.10000
      1909 IM1H     96       IM1H     DC2      DRUD    -2.554000        0.4000           0   0.00000   0.00000
      1910 IM1H     96       IM1H     H4       HDR5D    0.195000        1.0080           0   0.00000   0.00000
      1911 IM1H     96       IM1H     C3       CD2R5D   2.507000       11.6110           0   -1.08300   1.10000
      1912 IM1H     96       IM1H     DC3      DRUD    -2.554000        0.4000           0   0.00000   0.00000
      1913 IM1H     96       IM1H     H5       HDR5D    0.192000        1.0080           0   0.00000   0.00000
      1914 IM1H     96       IM1H     C4       CD2R5E   2.724100       11.6110           0   -1.25300   1.20000
      1915 IM1H     96       IM1H     DC4      DRUD    -2.747100        0.4000           0   0.00000   0.00000
      1916 IM1H     96       IM1H     H6       HDR5E    0.203000        1.0080           0   0.00000   0.00000
      1917 IM1H     96       IM1H     N2       ND2R5C   2.042200       13.6070           0   -0.803000   1.00000
      1918 IM1H     96       IM1H     DN2      DRUD    -2.199200        0.4000           0   0.00000   0.00000
      1919 IM1H     96       IM1H     H7       HDP1A    0.363000        1.0080           0   0.00000   0.00000
      1920 IM1H     96       IM1H     LPN21    LPD      0.000000        0.0000           -1   0.00000   0.00000
      1921 IM1H     97       IM1H     C1       CD33F    2.485000       11.6110           0   -1.18100   1.10000
      1922 IM1H     97       IM1H     DC1      DRUD    -2.667000        0.4000           0   0.00000   0.00000
      1923 IM1H     97       IM1H     H1       HDA3A    0.135000        1.0080           0   0.00000   0.00000
      1924 IM1H     97       IM1H     H2       HDA3A    0.135000        1.0080           0   0.00000   0.00000
      1925 IM1H     97       IM1H     H3       HDA3A    0.135000        1.0080           0   0.00000   0.00000
      1926 IM1H     97       IM1H     N1       ND2R5C   2.357200       13.6070           0   -0.803000   1.00000
      1927 IM1H     97       IM1H     DN1      DRUD    -2.199200        0.4000           0   0.00000   0.00000
      1928 IM1H     97       IM1H     C2       CD2R5D   2.447000       11.6110           0   -1.08300   1.10000
      1929 IM1H     97       IM1H     DC2      DRUD    -2.554000        0.4000           0   0.00000   0.00000
      1930 IM1H     97       IM1H     H4       HDR5D    0.195000        1.0080           0   0.00000   0.00000
      1931 IM1H     97       IM1H     C3       CD2R5D   2.507000       11.6110           0   -1.08300   1.10000
      1932 IM1H     97       IM1H     DC3      DRUD    -2.554000        0.4000           0   0.00000   0.00000
      1933 IM1H     97       IM1H     H5       HDR5D    0.192000        1.0080           0   0.00000   0.00000
      1934 IM1H     97       IM1H     C4       CD2R5E   2.724100       11.6110           0   -1.25300   1.20000
      1935 IM1H     97       IM1H     DC4      DRUD    -2.747100        0.4000           0   0.00000   0.00000
      1936 IM1H     97       IM1H     H6       HDR5E    0.203000        1.0080           0   0.00000   0.00000
      1937 IM1H     97       IM1H     N2       ND2R5C   2.042200       13.6070           0   -0.803000   1.00000
      1938 IM1H     97       IM1H     DN2      DRUD    -2.199200        0.4000           0   0.00000   0.00000
      1939 IM1H     97       IM1H     H7       HDP1A    0.363000        1.0080           0   0.00000   0.00000
      1940 IM1H     97       IM1H     LPN21    LPD      0.000000        0.0000           -1   0.00000   0.00000
      1941 IM1H     98       IM1H     C1       CD33F    2.485000       11.6110           0   -1.18100   1.10000
      1942 IM1H     98       IM1H     DC1      DRUD    -2.667000        0.4000           0   0.00000   0.00000
      1943 IM1H     98       IM1H     H1       HDA3A    0.135000        1.0080           0   0.00000   0.00000
      1944 IM1H     98       IM1H     H2       HDA3A    0.135000        1.0080           0   0.00000   0.00000
      1945 IM1H     98       IM1H     H3       HDA3A    0.135000        1.0080           0   0.00000   0.00000
      1946 IM1H     98       IM1H     N1       ND2R5C   2.357200       13.6070           0   -0.803000   1.00000
      1947 IM1H     98       IM1H     DN1      DRUD    -2.199200        0.4000           0   0.00000   0.00000
      1948 IM1H     98       IM1H     C2       CD2R5D   2.447000       11.6110           0   -1.08300   1.10000
      1949 IM1H     98       IM1H     DC2      DRUD    -2.554000        0.4000           0   0.00000   0.00000
      1950 IM1H     98       IM1H     H4       HDR5D    0.195000        1.0080           0   0.00000   0.00000
      1951 IM1H     98       IM1H     C3       CD2R5D   2.507000       11.6110           0   -1.08300   1.10000
      1952 IM1H     98       IM1H     DC3      DRUD    -2.554000        0.4000           0   0.00000   0.00000
      1953 IM1H     98       IM1H     H5       HDR5D    0.192000        1.0080           0   0.00000   0.00000
      1954 IM1H     98       IM1H     C4       CD2R5E   2.724100       11.6110           0   -1.25300   1.20000
      1955 IM1H     98       IM1H     DC4      DRUD    -2.747100        0.4000           0   0.00000   0.00000
      1956 IM1H     98       IM1H     H6       HDR5E    0.203000        1.0080           0   0.00000   0.00000
      1957 IM1H     98       IM1H     N2       ND2R5C   2.042200       13.6070           0   -0.803000   1.00000
      1958 IM1H     98       IM1H     DN2      DRUD    -2.199200        0.4000           0   0.00000   0.00000
      1959 IM1H     98       IM1H     H7       HDP1A    0.363000        1.0080           0   0.00000   0.00000
      1960 IM1H     98       IM1H     LPN21    LPD      0.000000        0.0000           -1   0.00000   0.00000
      1961 IM1H     99       IM1H     C1       CD33F    2.485000       11.6110           0   -1.18100   1.10000
      1962 IM1H     99       IM1H     DC1      DRUD    -2.667000        0.4000           0   0.00000   0.00000
      1963 IM1H     99       IM1H     H1       HDA3A    0.135000        1.0080           0   0.00000   0.00000
      1964 IM1H     99       IM1H     H2       HDA3A    0.135000        1.0080           0   0.00000   0.00000
      1965 IM1H     99       IM1H     H3       HDA3A    0.135000        1.0080           0   0.00000   0.00000
      1966 IM1H     99       IM1H     N1       ND2R5C   2.357200       13.6070           0   -0.803000   1.00000
      1967 IM1H     99       IM1H     DN1      DRUD    -2.199200        0.4000           0   0.00000   0.00000
      1968 IM1H     99       IM1H     C2       CD2R5D   2.447000       11.6110           0   -1.08300   1.10000
      1969 IM1H     99       IM1H     DC2      DRUD    -2.554000        0.4000           0   0.00000   0.00000
      1970 IM1H     99       IM1H     H4       HDR5D    0.195000        1.0080           0   0.00000   0.00000
      1971 IM1H     99       IM1H     C3       CD2R5D   2.507000       11.6110           0   -1.08300   1.10000
      1972 IM1H     99       IM1H     DC3      DRUD    -2.554000        0.4000           0   0.00000   0.00000
      1973 IM1H     99       IM1H     H5       HDR5D    0.192000        1.0080           0   0.00000   0.00000
      1974 IM1H     99       IM1H     C4       CD2R5E   2.724100       11.6110           0   -1.25300   1.20000
      1975 IM1H     99       IM1H     DC4      DRUD    -2.747100        0.4000           0   0.00000   0.00000
      1976 IM1H     99       IM1H     H6       HDR5E    0.203000        1.0080           0   0.00000   0.00000
      1977 IM1H     99       IM1H     N2       ND2R5C   2.042200       13.6070           0   -0.803000   1.00000
      1978 IM1H     99       IM1H     DN2      DRUD    -2.199200        0.4000           0   0.00000   0.00000
      1979 IM1H     99       IM1H     H7       HDP1A    0.363000        1.0080           0   0.00000   0.00000
      1980 IM1H     99       IM1H     LPN21    LPD      0.000000        0.0000           -1   0.00000   0.00000
      1981 IM1H     100      IM1H     C1       CD33F    2.485000       11.6110           0   -1.18100   1.10000
      1982 IM1H     100      IM1H     DC1      DRUD    -2.667000        0.4000           0   0.00000   0.00000
      1983 IM1H     100      IM1H     H1       HDA3A    0.135000        1.0080           0   0.00000   0.00000
      1984 IM1H     100      IM1H     H2       HDA3A    0.135000        1.0080           0   0.00000   0.00000
      1985 IM1H     100      IM1H     H3       HDA3A    0.135000        1.0080           0   0.00000   0.00000
      1986 IM1H     100      IM1H     N1       ND2R5C   2.357200       13.6070           0   -0.803000   1.00000
      1987 IM1H     100      IM1H     DN1      DRUD    -2.199200        0.4000           0   0.00000   0.00000
      1988 IM1H     100      IM1H     C2       CD2R5D   2.447000       11.6110           0   -1.08300   1.10000
      1989 IM1H     100      IM1H     DC2      DRUD    -2.554000        0.4000           0   0.00000   0.00000
      1990 IM1H     100      IM1H     H4       HDR5D    0.195000        1.0080           0   0.00000   0.00000
      1991 IM1H     100      IM1H     C3       CD2R5D   2.507000       11.6110           0   -1.08300   1.10000
      1992 IM1H     100      IM1H     DC3      DRUD    -2.554000        0.4000           0   0.00000   0.00000
      1993 IM1H     100      IM1H     H5       HDR5D    0.192000        1.0080           0   0.00000   0.00000
      1994 IM1H     100      IM1H     C4       CD2R5E   2.724100       11.6110           0   -1.25300   1.20000
      1995 IM1H     100      IM1H     DC4      DRUD    -2.747100        0.4000           0   0.00000   0.00000
      1996 IM1H     100      IM1H     H6       HDR5E    0.203000        1.0080           0   0.00000   0.00000
      1997 IM1H     100      IM1H     N2       ND2R5C   2.042200       13.6070           0   -0.803000   1.00000
      1998 IM1H     100      IM1H     DN2      DRUD    -2.199200        0.4000           0   0.00000   0.00000
      1999 IM1H     100      IM1H     H7       HDP1A    0.363000        1.0080           0   0.00000   0.00000
      2000 IM1H     100      IM1H     LPN21    LPD      0.000000        0.0000           -1   0.00000   0.00000
      2001 IM1H     101      IM1H     C1       CD33F    2.485000       11.6110           0   -1.18100   1.10000
      2002 IM1H     101      IM1H     DC1      DRUD    -2.667000        0.4000           0   0.00000   0.00000
      2003 IM1H     101      IM1H     H1       HDA3A    0.135000        1.0080           0   0.00000   0.00000
      2004 IM1H     101      IM1H     H2       HDA3A    0.135000        1.0080           0   0.00000   0.00000
      2005 IM1H     101      IM1H     H3       HDA3A    0.135000        1.0080           0   0.00000   0.00000
      2006 IM1H     101      IM1H     N1       ND2R5C   2.357200       13.6070           0   -0.803000   1.00000
      2007 IM1H     101      IM1H     DN1      DRUD    -2.199200        0.4000           0   0.00000   0.00000
      2008 IM1H     101      IM1H     C2       CD2R5D   2.447000       11.6110           0   -1.08300   1.10000
      2009 IM1H     101      IM1H     DC2      DRUD    -2.554000        0.4000           0   0.00000   0.00000
      2010 IM1H     101      IM1H     H4       HDR5D    0.195000        1.0080           0   0.00000   0.00000
      2011 IM1H     101      IM1H     C3       CD2R5D   2.507000       11.6110           0   -1.08300   1.10000
      2012 IM1H     101      IM1H     DC3      DRUD    -2.554000        0.4000           0   0.00000   0.00000
      2013 IM1H     101      IM1H     H5       HDR5D    0.192000        1.0080           0   0.00000   0.00000
      2014 IM1H     101      IM1H     C4       CD2R5E   2.724100       11.6110           0   -1.25300   1.20000
      2015 IM1H     101      IM1H     DC4      DRUD    -2.747100        0.4000           0   0.00000   0.00000
      2016 IM1H     101      IM1H     H6       HDR5E    0.203000        1.0080           0   0.00000   0.00000
      2017 IM1H     101      IM1H     N2       ND2R5C   2.042200       13.6070           0   -0.803000   1.00000
      2018 IM1H     101      IM1H     DN2      DRUD    -2.199200        0.4000           0   0.00000   0.00000
      2019 IM1H     101      IM1H     H7       HDP1A    0.363000        1.0080           0   0.00000   0.00000
      2020 IM1H     101      IM1H     LPN21    LPD      0.000000        0.0000           -1   0.00000   0.00000
      2021 IM1H     102      IM1H     C1       CD33F    2.485000       11.6110           0   -1.18100   1.10000
      2022 IM1H     102      IM1H     DC1      DRUD    -2.667000        0.4000           0   0.00000   0.00000
      2023 IM1H     102      IM1H     H1       HDA3A    0.135000        1.0080           0   0.00000   0.00000
      2024 IM1H     102      IM1H     H2       HDA3A    0.135000        1.0080           0   0.00000   0.00000
      2025 IM1H     102      IM1H     H3       HDA3A    0.135000        1.0080           0   0.00000   0.00000
      2026 IM1H     102      IM1H     N1       ND2R5C   2.357200       13.6070           0   -0.803000   1.00000
      2027 IM1H     102      IM1H     DN1      DRUD    -2.199200        0.4000           0   0.00000   0.00000
      2028 IM1H     102      IM1H     C2       CD2R5D   2.447000       11.6110           0   -1.08300   1.10000
      2029 IM1H     102      IM1H     DC2      DRUD    -2.554000        0.4000           0   0.00000   0.00000
      2030 IM1H     102      IM1H     H4       HDR5D    0.195000        1.0080           0   0.00000   0.00000
      2031 IM1H     102      IM1H     C3       CD2R5D   2.507000       11.6110           0   -1.08300   1.10000
      2032 IM1H     102      IM1H     DC3      DRUD    -2.554000        0.4000           0   0.00000   0.00000
      2033 IM1H     102      IM1H     H5       HDR5D    0.192000        1.0080           0   0.00000   0.00000
      2034 IM1H     102      IM1H     C4       CD2R5E   2.724100       11.6110           0   -1.25300   1.20000
      2035 IM1H     102      IM1H     DC4      DRUD    -2.747100        0.4000           0   0.00000   0.00000
      2036 IM1H     102      IM1H     H6       HDR5E    0.203000        1.0080           0   0.00000   0.00000
      2037 IM1H     102      IM1H     N2       ND2R5C   2.042200       13.6070           0   -0.803000   1.00000
      2038 IM1H     102      IM1H     DN2      DRUD    -2.199200        0.4000           0   0.00000   0.00000
      2039 IM1H     102      IM1H     H7       HDP1A    0.363000        1.0080           0   0.00000   0.00000
      2040 IM1H     102      IM1H     LPN21    LPD      0.000000        0.0000           -1   0.00000   0.00000
      2041 IM1H     103      IM1H     C1       CD33F    2.485000       11.6110           0   -1.18100   1.10000
      2042 IM1H     103      IM1H     DC1      DRUD    -2.667000        0.4000           0   0.00000   0.00000
      2043 IM1H     103      IM1H     H1       HDA3A    0.135000        1.0080           0   0.00000   0.00000
      2044 IM1H     103      IM1H     H2       HDA3A    0.135000        1.0080           0   0.00000   0.00000
      2045 IM1H     103      IM1H     H3       HDA3A    0.135000        1.0080           0   0.00000   0.00000
      2046 IM1H     103      IM1H     N1       ND2R5C   2.357200       13.6070           0   -0.803000   1.00000
      2047 IM1H     103      IM1H     DN1      DRUD    -2.199200        0.4000           0   0.00000   0.00000
      2048 IM1H     103      IM1H     C2       CD2R5D   2.447000       11.6110           0   -1.08300   1.10000
      2049 IM1H     103      IM1H     DC2      DRUD    -2.554000        0.4000           0   0.00000   0.00000
      2050 IM1H     103      IM1H     H4       HDR5D    0.195000        1.0080           0   0.00000   0.00000
      2051 IM1H     103      IM1H     C3       CD2R5D   2.507000       11.6110           0   -1.08300   1.10000
      2052 IM1H     103      IM1H     DC3      DRUD    -2.554000        0.4000           0   0.00000   0.00000
      2053 IM1H     103      IM1H     H5       HDR5D    0.192000        1.0080           0   0.00000   0.00000
      2054 IM1H     103      IM1H     C4       CD2R5E   2.724100       11.6110           0   -1.25300   1.20000
      2055 IM1H     103      IM1H     DC4      DRUD    -2.747100        0.4000           0   0.00000   0.00000
      2056 IM1H     103      IM1H     H6       HDR5E    0.203000        1.0080           0   0.00000   0.00000
      2057 IM1H     103      IM1H     N2       ND2R5C   2.042200       13.6070           0   -0.803000   1.00000
      2058 IM1H     103      IM1H     DN2      DRUD    -2.199200        0.4000           0   0.00000   0.00000
      2059 IM1H     103      IM1H     H7       HDP1A    0.363000        1.0080           0   0.00000   0.00000
      2060 IM1H     103      IM1H     LPN21    LPD      0.000000        0.0000           -1   0.00000   0.00000
      2061 IM1H     104      IM1H     C1       CD33F    2.485000       11.6110           0   -1.18100   1.10000
      2062 IM1H     104      IM1H     DC1      DRUD    -2.667000        0.4000           0   0.00000   0.00000
      2063 IM1H     104      IM1H     H1       HDA3A    0.135000        1.0080           0   0.00000   0.00000
      2064 IM1H     104      IM1H     H2       HDA3A    0.135000        1.0080           0   0.00000   0.00000
      2065 IM1H     104      IM1H     H3       HDA3A    0.135000        1.0080           0   0.00000   0.00000
      2066 IM1H     104      IM1H     N1       ND2R5C   2.357200       13.6070           0   -0.803000   1.00000
      2067 IM1H     104      IM1H     DN1      DRUD    -2.199200        0.4000           0   0.00000   0.00000
      2068 IM1H     104      IM1H     C2       CD2R5D   2.447000       11.6110           0   -1.08300   1.10000
      2069 IM1H     104      IM1H     DC2      DRUD    -2.554000        0.4000           0   0.00000   0.00000
      2070 IM1H     104      IM1H     H4       HDR5D    0.195000        1.0080           0   0.00000   0.00000
      2071 IM1H     104      IM1H     C3       CD2R5D   2.507000       11.6110           0   -1.08300   1.10000
      2072 IM1H     104      IM1H     DC3      DRUD    -2.554000        0.4000           0   0.00000   0.00000
      2073 IM1H     104      IM1H     H5       HDR5D    0.192000        1.0080           0   0.00000   0.00000
      2074 IM1H     104      IM1H     C4       CD2R5E   2.724100       11.6110           0   -1.25300   1.20000
      2075 IM1H     104      IM1H     DC4      DRUD    -2.747100        0.4000           0   0.00000   0.00000
      2076 IM1H     104      IM1H     H6       HDR5E    0.203000        1.0080           0   0.00000   0.00000
      2077 IM1H     104      IM1H     N2       ND2R5C   2.042200       13.6070           0   -0.803000   1.00000
      2078 IM1H     104      IM1H     DN2      DRUD    -2.199200        0.4000           0   0.00000   0.00000
      2079 IM1H     104      IM1H     H7       HDP1A    0.363000        1.0080           0   0.00000   0.00000
      2080 IM1H     104      IM1H     LPN21    LPD      0.000000        0.0000           -1   0.00000   0.00000
      2081 IM1H     105      IM1H     C1       CD33F    2.485000       11.6110           0   -1.18100   1.10000
      2082 IM1H     105      IM1H     DC1      DRUD    -2.667000        0.4000           0   0.00000   0.00000
      2083 IM1H     105      IM1H     H1       HDA3A    0.135000        1.0080           0   0.00000   0.00000
      2084 IM1H     105      IM1H     H2       HDA3A    0.135000        1.0080           0   0.00000   0.00000
      2085 IM1H     105      IM1H     H3       HDA3A    0.135000        1.0080           0   0.00000   0.00000
      2086 IM1H     105      IM1H     N1       ND2R5C   2.357200       13.6070           0   -0.803000   1.00000
      2087 IM1H     105      IM1H     DN1      DRUD    -2.199200        0.4000           0   0.00000   0.00000
      2088 IM1H     105      IM1H     C2       CD2R5D   2.447000       11.6110           0   -1.08300   1.10000
      2089 IM1H     105      IM1H     DC2      DRUD    -2.554000        0.4000           0   0.00000   0.00000
      2090 IM1H     105      IM1H     H4       HDR5D    0.195000        1.0080           0   0.00000   0.00000
      2091 IM1H     105      IM1H     C3       CD2R5D   2.507000       11.6110           0   -1.08300   1.10000
      2092 IM1H     105      IM1H     DC3      DRUD    -2.554000        0.4000           0   0.00000   0.00000
      2093 IM1H     105      IM1H     H5       HDR5D    0.192000        1.0080           0   0.00000   0.00000
      2094 IM1H     105      IM1H     C4       CD2R5E   2.724100       11.6110           0   -1.25300   1.20000
      2095 IM1H     105      IM1H     DC4      DRUD    -2.747100        0.4000           0   0.00000   0.00000
      2096 IM1H     105      IM1H     H6       HDR5E    0.203000        1.0080           0   0.00000   0.00000
      2097 IM1H     105      IM1H     N2       ND2R5C   2.042200       13.6070           0   -0.803000   1.00000
      2098 IM1H     105      IM1H     DN2      DRUD    -2.199200        0.4000           0   0.00000   0.00000
      2099 IM1H     105      IM1H     H7       HDP1A    0.363000        1.0080           0   0.00000   0.00000
      2100 IM1H     105      IM1H     LPN21    LPD      0.000000        0.0000           -1   0.00000   0.00000
      2101 IM1H     106      IM1H     C1       CD33F    2.485000       11.6110           0   -1.18100   1.10000
      2102 IM1H     106      IM1H     DC1      DRUD    -2.667000        0.4000           0   0.00000   0.00000
      2103 IM1H     106      IM1H     H1       HDA3A    0.135000        1.0080           0   0.00000   0.00000
      2104 IM1H     106      IM1H     H2       HDA3A    0.135000        1.0080           0   0.00000   0.00000
      2105 IM1H     106      IM1H     H3       HDA3A    0.135000        1.0080           0   0.00000   0.00000
      2106 IM1H     106      IM1H     N1       ND2R5C   2.357200       13.6070           0   -0.803000   1.00000
      2107 IM1H     106      IM1H     DN1      DRUD    -2.199200        0.4000           0   0.00000   0.00000
      2108 IM1H     106      IM1H     C2       CD2R5D   2.447000       11.6110           0   -1.08300   1.10000
      2109 IM1H     106      IM1H     DC2      DRUD    -2.554000        0.4000           0   0.00000   0.00000
      2110 IM1H     106      IM1H     H4       HDR5D    0.195000        1.0080           0   0.00000   0.00000
      2111 IM1H     106      IM1H     C3       CD2R5D   2.507000       11.6110           0   -1.08300   1.10000
      2112 IM1H     106      IM1H     DC3      DRUD    -2.554000        0.4000           0   0.00000   0.00000
      2113 IM1H     106      IM1H     H5       HDR5D    0.192000        1.0080           0   0.00000   0.00000
      2114 IM1H     106      IM1H     C4       CD2R5E   2.724100       11.6110           0   -1.25300   1.20000
      2115 IM1H     106      IM1H     DC4      DRUD    -2.747100        0.4000           0   0.00000   0.00000
      2116 IM1H     106      IM1H     H6       HDR5E    0.203000        1.0080           0   0.00000   0.00000
      2117 IM1H     106      IM1H     N2       ND2R5C   2.042200       13.6070           0   -0.803000   1.00000
      2118 IM1H     106      IM1H     DN2      DRUD    -2.199200        0.4000           0   0.00000   0.00000
      2119 IM1H     106      IM1H     H7       HDP1A    0.363000        1.0080           0   0.00000   0.00000
      2120 IM1H     106      IM1H     LPN21    LPD      0.000000        0.0000           -1   0.00000   0.00000
      2121 IM1H     107      IM1H     C1       CD33F    2.485000       11.6110           0   -1.18100   1.10000
      2122 IM1H     107      IM1H     DC1      DRUD    -2.667000        0.4000           0   0.00000   0.00000
      2123 IM1H     107      IM1H     H1       HDA3A    0.135000        1.0080           0   0.00000   0.00000
      2124 IM1H     107      IM1H     H2       HDA3A    0.135000        1.0080           0   0.00000   0.00000
      2125 IM1H     107      IM1H     H3       HDA3A    0.135000        1.0080           0   0.00000   0.00000
      2126 IM1H     107      IM1H     N1       ND2R5C   2.357200       13.6070           0   -0.803000   1.00000
      2127 IM1H     107      IM1H     DN1      DRUD    -2.199200        0.4000           0   0.00000   0.00000
      2128 IM1H     107      IM1H     C2       CD2R5D   2.447000       11.6110           0   -1.08300   1.10000
      2129 IM1H     107      IM1H     DC2      DRUD    -2.554000        0.4000           0   0.00000   0.00000
      2130 IM1H     107      IM1H     H4       HDR5D    0.195000        1.0080           0   0.00000   0.00000
      2131 IM1H     107      IM1H     C3       CD2R5D   2.507000       11.6110           0   -1.08300   1.10000
      2132 IM1H     107      IM1H     DC3      DRUD    -2.554000        0.4000           0   0.00000   0.00000
      2133 IM1H     107      IM1H     H5       HDR5D    0.192000        1.0080           0   0.00000   0.00000
      2134 IM1H     107      IM1H     C4       CD2R5E   2.724100       11.6110           0   -1.25300   1.20000
      2135 IM1H     107      IM1H     DC4      DRUD    -2.747100        0.4000           0   0.00000   0.00000
      2136 IM1H     107      IM1H     H6       HDR5E    0.203000        1.0080           0   0.00000   0.00000
      2137 IM1H     107      IM1H     N2       ND2R5C   2.042200       13.6070           0   -0.803000   1.00000
      2138 IM1H     107      IM1H     DN2      DRUD    -2.199200        0.4000           0   0.00000   0.00000
      2139 IM1H     107      IM1H     H7       HDP1A    0.363000        1.0080           0   0.00000   0.00000
      2140 IM1H     107      IM1H     LPN21    LPD      0.000000        0.0000           -1   0.00000   0.00000
      2141 IM1H     108      IM1H     C1       CD33F    2.485000       11.6110           0   -1.18100   1.10000
      2142 IM1H     108      IM1H     DC1      DRUD    -2.667000        0.4000           0   0.00000   0.00000
      2143 IM1H     108      IM1H     H1       HDA3A    0.135000        1.0080           0   0.00000   0.00000
      2144 IM1H     108      IM1H     H2       HDA3A    0.135000        1.0080           0   0.00000   0.00000
      2145 IM1H     108      IM1H     H3       HDA3A    0.135000        1.0080           0   0.00000   0.00000
      2146 IM1H     108      IM1H     N1       ND2R5C   2.357200       13.6070           0   -0.803000   1.00000
      2147 IM1H     108      IM1H     DN1      DRUD    -2.199200        0.4000           0   0.00000   0.00000
      2148 IM1H     108      IM1H     C2       CD2R5D   2.447000       11.6110           0   -1.08300   1.10000
      2149 IM1H     108      IM1H     DC2      DRUD    -2.554000        0.4000           0   0.00000   0.00000
      2150 IM1H     108      IM1H     H4       HDR5D    0.195000        1.0080           0   0.00000   0.00000
      2151 IM1H     108      IM1H     C3       CD2R5D   2.507000       11.6110           0   -1.08300   1.10000
      2152 IM1H     108      IM1H     DC3      DRUD    -2.554000        0.4000           0   0.00000   0.00000
      2153 IM1H     108      IM1H     H5       HDR5D    0.192000        1.0080           0   0.00000   0.00000
      2154 IM1H     108      IM1H     C4       CD2R5E   2.724100       11.6110           0   -1.25300   1.20000
      2155 IM1H     108      IM1H     DC4      DRUD    -2.747100        0.4000           0   0.00000   0.00000
      2156 IM1H     108      IM1H     H6       HDR5E    0.203000        1.0080           0   0.00000   0.00000
      2157 IM1H     108      IM1H     N2       ND2R5C   2.042200       13.6070           0   -0.803000   1.00000
      2158 IM1H     108      IM1H     DN2      DRUD    -2.199200        0.4000           0   0.00000   0.00000
      2159 IM1H     108      IM1H     H7       HDP1A    0.363000        1.0080           0   0.00000   0.00000
      2160 IM1H     108      IM1H     LPN21    LPD      0.000000        0.0000           -1   0.00000   0.00000
      2161 IM1H     109      IM1H     C1       CD33F    2.485000       11.6110           0   -1.18100   1.10000
      2162 IM1H     109      IM1H     DC1      DRUD    -2.667000        0.4000           0   0.00000   0.00000
      2163 IM1H     109      IM1H     H1       HDA3A    0.135000        1.0080           0   0.00000   0.00000
      2164 IM1H     109      IM1H     H2       HDA3A    0.135000        1.0080           0   0.00000   0.00000
      2165 IM1H     109      IM1H     H3       HDA3A    0.135000        1.0080           0   0.00000   0.00000
      2166 IM1H     109      IM1H     N1       ND2R5C   2.357200       13.6070           0   -0.803000   1.00000
      2167 IM1H     109      IM1H     DN1      DRUD    -2.199200        0.4000           0   0.00000   0.00000
      2168 IM1H     109      IM1H     C2       CD2R5D   2.447000       11.6110           0   -1.08300   1.10000
      2169 IM1H     109      IM1H     DC2      DRUD    -2.554000        0.4000           0   0.00000   0.00000
      2170 IM1H     109      IM1H     H4       HDR5D    0.195000        1.0080           0   0.00000   0.00000
      2171 IM1H     109      IM1H     C3       CD2R5D   2.507000       11.6110           0   -1.08300   1.10000
      2172 IM1H     109      IM1H     DC3      DRUD    -2.554000        0.4000           0   0.00000   0.00000
      2173 IM1H     109      IM1H     H5       HDR5D    0.192000        1.0080           0   0.00000   0.00000
      2174 IM1H     109      IM1H     C4       CD2R5E   2.724100       11.6110           0   -1.25300   1.20000
      2175 IM1H     109      IM1H     DC4      DRUD    -2.747100        0.4000           0   0.00000   0.00000
      2176 IM1H     109      IM1H     H6       HDR5E    0.203000        1.0080           0   0.00000   0.00000
      2177 IM1H     109      IM1H     N2       ND2R5C   2.042200       13.6070           0   -0.803000   1.00000
      2178 IM1H     109      IM1H     DN2      DRUD    -2.199200        0.4000           0   0.00000   0.00000
      2179 IM1H     109      IM1H     H7       HDP1A    0.363000        1.0080           0   0.00000   0.00000
      2180 IM1H     109      IM1H     LPN21    LPD      0.000000        0.0000           -1   0.00000   0.00000
      2181 IM1H     110      IM1H     C1       CD33F    2.485000       11.6110           0   -1.18100   1.10000
      2182 IM1H     110      IM1H     DC1      DRUD    -2.667000        0.4000           0   0.00000   0.00000
      2183 IM1H     110      IM1H     H1       HDA3A    0.135000        1.0080           0   0.00000   0.00000
      2184 IM1H     110      IM1H     H2       HDA3A    0.135000        1.0080           0   0.00000   0.00000
      2185 IM1H     110      IM1H     H3       HDA3A    0.135000        1.0080           0   0.00000   0.00000
      2186 IM1H     110      IM1H     N1       ND2R5C   2.357200       13.6070           0   -0.803000   1.00000
      2187 IM1H     110      IM1H     DN1      DRUD    -2.199200        0.4000           0   0.00000   0.00000
      2188 IM1H     110      IM1H     C2       CD2R5D   2.447000       11.6110           0   -1.08300   1.10000
      2189 IM1H     110      IM1H     DC2      DRUD    -2.554000        0.4000           0   0.00000   0.00000
      2190 IM1H     110      IM1H     H4       HDR5D    0.195000        1.0080           0   0.00000   0.00000
      2191 IM1H     110      IM1H     C3       CD2R5D   2.507000       11.6110           0   -1.08300   1.10000
      2192 IM1H     110      IM1H     DC3      DRUD    -2.554000        0.4000           0   0.00000   0.00000
      2193 IM1H     110      IM1H     H5       HDR5D    0.192000        1.0080           0   0.00000   0.00000
      2194 IM1H     110      IM1H     C4       CD2R5E   2.724100       11.6110           0   -1.25300   1.20000
      2195 IM1H     110      IM1H     DC4      DRUD    -2.747100        0.4000           0   0.00000   0.00000
      2196 IM1H     110      IM1H     H6       HDR5E    0.203000        1.0080           0   0.00000   0.00000
      2197 IM1H     110      IM1H     N2       ND2R5C   2.042200       13.6070           0   -0.803000   1.00000
      2198 IM1H     110      IM1H     DN2      DRUD    -2.199200        0.4000           0   0.00000   0.00000
      2199 IM1H     110      IM1H     H7       HDP1A    0.363000        1.0080           0   0.00000   0.00000
      2200 IM1H     110      IM1H     LPN21    LPD      0.000000        0.0000           -1   0.00000   0.00000
      2201 IM1H     111      IM1H     C1       CD33F    2.485000       11.6110           0   -1.18100   1.10000
      2202 IM1H     111      IM1H     DC1      DRUD    -2.667000        0.4000           0   0.00000   0.00000
      2203 IM1H     111      IM1H     H1       HDA3A    0.135000        1.0080           0   0.00000   0.00000
      2204 IM1H     111      IM1H     H2       HDA3A    0.135000        1.0080           0   0.00000   0.00000
      2205 IM1H     111      IM1H     H3       HDA3A    0.135000        1.0080           0   0.00000   0.00000
      2206 IM1H     111      IM1H     N1       ND2R5C   2.357200       13.6070           0   -0.803000   1.00000
      2207 IM1H     111      IM1H     DN1      DRUD    -2.199200        0.4000           0   0.00000   0.00000
      2208 IM1H     111      IM1H     C2       CD2R5D   2.447000       11.6110           0   -1.08300   1.10000
      2209 IM1H     111      IM1H     DC2      DRUD    -2.554000        0.4000           0   0.00000   0.00000
      2210 IM1H     111      IM1H     H4       HDR5D    0.195000        1.0080           0   0.00000   0.00000
      2211 IM1H     111      IM1H     C3       CD2R5D   2.507000       11.6110           0   -1.08300   1.10000
      2212 IM1H     111      IM1H     DC3      DRUD    -2.554000        0.4000           0   0.00000   0.00000
      2213 IM1H     111      IM1H     H5       HDR5D    0.192000        1.0080           0   0.00000   0.00000
      2214 IM1H     111      IM1H     C4       CD2R5E   2.724100       11.6110           0   -1.25300   1.20000
      2215 IM1H     111      IM1H     DC4      DRUD    -2.747100        0.4000           0   0.00000   0.00000
      2216 IM1H     111      IM1H     H6       HDR5E    0.203000        1.0080           0   0.00000   0.00000
      2217 IM1H     111      IM1H     N2       ND2R5C   2.042200       13.6070           0   -0.803000   1.00000
      2218 IM1H     111      IM1H     DN2      DRUD    -2.199200        0.4000           0   0.00000   0.00000
      2219 IM1H     111      IM1H     H7       HDP1A    0.363000        1.0080           0   0.00000   0.00000
      2220 IM1H     111      IM1H     LPN21    LPD      0.000000        0.0000           -1   0.00000   0.00000
      2221 IM1H     112      IM1H     C1       CD33F    2.485000       11.6110           0   -1.18100   1.10000
      2222 IM1H     112      IM1H     DC1      DRUD    -2.667000        0.4000           0   0.00000   0.00000
      2223 IM1H     112      IM1H     H1       HDA3A    0.135000        1.0080           0   0.00000   0.00000
      2224 IM1H     112      IM1H     H2       HDA3A    0.135000        1.0080           0   0.00000   0.00000
      2225 IM1H     112      IM1H     H3       HDA3A    0.135000        1.0080           0   0.00000   0.00000
      2226 IM1H     112      IM1H     N1       ND2R5C   2.357200       13.6070           0   -0.803000   1.00000
      2227 IM1H     112      IM1H     DN1      DRUD    -2.199200        0.4000           0   0.00000   0.00000
      2228 IM1H     112      IM1H     C2       CD2R5D   2.447000       11.6110           0   -1.08300   1.10000
      2229 IM1H     112      IM1H     DC2      DRUD    -2.554000        0.4000           0   0.00000   0.00000
      2230 IM1H     112      IM1H     H4       HDR5D    0.195000        1.0080           0   0.00000   0.00000
      2231 IM1H     112      IM1H     C3       CD2R5D   2.507000       11.6110           0   -1.08300   1.10000
      2232 IM1H     112      IM1H     DC3      DRUD    -2.554000        0.4000           0   0.00000   0.00000
      2233 IM1H     112      IM1H     H5       HDR5D    0.192000        1.0080           0   0.00000   0.00000
      2234 IM1H     112      IM1H     C4       CD2R5E   2.724100       11.6110           0   -1.25300   1.20000
      2235 IM1H     112      IM1H     DC4      DRUD    -2.747100        0.4000           0   0.00000   0.00000
      2236 IM1H     112      IM1H     H6       HDR5E    0.203000        1.0080           0   0.00000   0.00000
      2237 IM1H     112      IM1H     N2       ND2R5C   2.042200       13.6070           0   -0.803000   1.00000
      2238 IM1H     112      IM1H     DN2      DRUD    -2.199200        0.4000           0   0.00000   0.00000
      2239 IM1H     112      IM1H     H7       HDP1A    0.363000        1.0080           0   0.00000   0.00000
      2240 IM1H     112      IM1H     LPN21    LPD      0.000000        0.0000           -1   0.00000   0.00000
      2241 IM1H     113      IM1H     C1       CD33F    2.485000       11.6110           0   -1.18100   1.10000
      2242 IM1H     113      IM1H     DC1      DRUD    -2.667000        0.4000           0   0.00000   0.00000
      2243 IM1H     113      IM1H     H1       HDA3A    0.135000        1.0080           0   0.00000   0.00000
      2244 IM1H     113      IM1H     H2       HDA3A    0.135000        1.0080           0   0.00000   0.00000
      2245 IM1H     113      IM1H     H3       HDA3A    0.135000        1.0080           0   0.00000   0.00000
      2246 IM1H     113      IM1H     N1       ND2R5C   2.357200       13.6070           0   -0.803000   1.00000
      2247 IM1H     113      IM1H     DN1      DRUD    -2.199200        0.4000           0   0.00000   0.00000
      2248 IM1H     113      IM1H     C2       CD2R5D   2.447000       11.6110           0   -1.08300   1.10000
      2249 IM1H     113      IM1H     DC2      DRUD    -2.554000        0.4000           0   0.00000   0.00000
      2250 IM1H     113      IM1H     H4       HDR5D    0.195000        1.0080           0   0.00000   0.00000
      2251 IM1H     113      IM1H     C3       CD2R5D   2.507000       11.6110           0   -1.08300   1.10000
      2252 IM1H     113      IM1H     DC3      DRUD    -2.554000        0.4000           0   0.00000   0.00000
      2253 IM1H     113      IM1H     H5       HDR5D    0.192000        1.0080           0   0.00000   0.00000
      2254 IM1H     113      IM1H     C4       CD2R5E   2.724100       11.6110           0   -1.25300   1.20000
      2255 IM1H     113      IM1H     DC4      DRUD    -2.747100        0.4000           0   0.00000   0.00000
      2256 IM1H     113      IM1H     H6       HDR5E    0.203000        1.0080           0   0.00000   0.00000
      2257 IM1H     113      IM1H     N2       ND2R5C   2.042200       13.6070           0   -0.803000   1.00000
      2258 IM1H     113      IM1H     DN2      DRUD    -2.199200        0.4000           0   0.00000   0.00000
      2259 IM1H     113      IM1H     H7       HDP1A    0.363000        1.0080           0   0.00000   0.00000
      2260 IM1H     113      IM1H     LPN21    LPD      0.000000        0.0000           -1   0.00000   0.00000
      2261 IM1H     114      IM1H     C1       CD33F    2.485000       11.6110           0   -1.18100   1.10000
      2262 IM1H     114      IM1H     DC1      DRUD    -2.667000        0.4000           0   0.00000   0.00000
      2263 IM1H     114      IM1H     H1       HDA3A    0.135000        1.0080           0   0.00000   0.00000
      2264 IM1H     114      IM1H     H2       HDA3A    0.135000        1.0080           0   0.00000   0.00000
      2265 IM1H     114      IM1H     H3       HDA3A    0.135000        1.0080           0   0.00000   0.00000
      2266 IM1H     114      IM1H     N1       ND2R5C   2.357200       13.6070           0   -0.803000   1.00000
      2267 IM1H     114      IM1H     DN1      DRUD    -2.199200        0.4000           0   0.00000   0.00000
      2268 IM1H     114      IM1H     C2       CD2R5D   2.447000       11.6110           0   -1.08300   1.10000
      2269 IM1H     114      IM1H     DC2      DRUD    -2.554000        0.4000           0   0.00000   0.00000
      2270 IM1H     114      IM1H     H4       HDR5D    0.195000        1.0080           0   0.00000   0.00000
      2271 IM1H     114      IM1H     C3       CD2R5D   2.507000       11.6110           0   -1.08300   1.10000
      2272 IM1H     114      IM1H     DC3      DRUD    -2.554000        0.4000           0   0.00000   0.00000
      2273 IM1H     114      IM1H     H5       HDR5D    0.192000        1.0080           0   0.00000   0.00000
      2274 IM1H     114      IM1H     C4       CD2R5E   2.724100       11.6110           0   -1.25300   1.20000
      2275 IM1H     114      IM1H     DC4      DRUD    -2.747100        0.4000           0   0.00000   0.00000
      2276 IM1H     114      IM1H     H6       HDR5E    0.203000        1.0080           0   0.00000   0.00000
      2277 IM1H     114      IM1H     N2       ND2R5C   2.042200       13.6070           0   -0.803000   1.00000
      2278 IM1H     114      IM1H     DN2      DRUD    -2.199200        0.4000           0   0.00000   0.00000
      2279 IM1H     114      IM1H     H7       HDP1A    0.363000        1.0080           0   0.00000   0.00000
      2280 IM1H     114      IM1H     LPN21    LPD      0.000000        0.0000           -1   0.00000   0.00000
      2281 IM1H     115      IM1H     C1       CD33F    2.485000       11.6110           0   -1.18100   1.10000
      2282 IM1H     115      IM1H     DC1      DRUD    -2.667000        0.4000           0   0.00000   0.00000
      2283 IM1H     115      IM1H     H1       HDA3A    0.135000        1.0080           0   0.00000   0.00000
      2284 IM1H     115      IM1H     H2       HDA3A    0.135000        1.0080           0   0.00000   0.00000
      2285 IM1H     115      IM1H     H3       HDA3A    0.135000        1.0080           0   0.00000   0.00000
      2286 IM1H     115      IM1H     N1       ND2R5C   2.357200       13.6070           0   -0.803000   1.00000
      2287 IM1H     115      IM1H     DN1      DRUD    -2.199200        0.4000           0   0.00000   0.00000
      2288 IM1H     115      IM1H     C2       CD2R5D   2.447000       11.6110           0   -1.08300   1.10000
      2289 IM1H     115      IM1H     DC2      DRUD    -2.554000        0.4000           0   0.00000   0.00000
      2290 IM1H     115      IM1H     H4       HDR5D    0.195000        1.0080           0   0.00000   0.00000
      2291 IM1H     115      IM1H     C3       CD2R5D   2.507000       11.6110           0   -1.08300   1.10000
      2292 IM1H     115      IM1H     DC3      DRUD    -2.554000        0.4000           0   0.00000   0.00000
      2293 IM1H     115      IM1H     H5       HDR5D    0.192000        1.0080           0   0.00000   0.00000
      2294 IM1H     115      IM1H     C4       CD2R5E   2.724100       11.6110           0   -1.25300   1.20000
      2295 IM1H     115      IM1H     DC4      DRUD    -2.747100        0.4000           0   0.00000   0.00000
      2296 IM1H     115      IM1H     H6       HDR5E    0.203000        1.0080           0   0.00000   0.00000
      2297 IM1H     115      IM1H     N2       ND2R5C   2.042200       13.6070           0   -0.803000   1.00000
      2298 IM1H     115      IM1H     DN2      DRUD    -2.199200        0.4000           0   0.00000   0.00000
      2299 IM1H     115      IM1H     H7       HDP1A    0.363000        1.0080           0   0.00000   0.00000
      2300 IM1H     115      IM1H     LPN21    LPD      0.000000        0.0000           -1   0.00000   0.00000
      2301 IM1H     116      IM1H     C1       CD33F    2.485000       11.6110           0   -1.18100   1.10000
      2302 IM1H     116      IM1H     DC1      DRUD    -2.667000        0.4000           0   0.00000   0.00000
      2303 IM1H     116      IM1H     H1       HDA3A    0.135000        1.0080           0   0.00000   0.00000
      2304 IM1H     116      IM1H     H2       HDA3A    0.135000        1.0080           0   0.00000   0.00000
      2305 IM1H     116      IM1H     H3       HDA3A    0.135000        1.0080           0   0.00000   0.00000
      2306 IM1H     116      IM1H     N1       ND2R5C   2.357200       13.6070           0   -0.803000   1.00000
      2307 IM1H     116      IM1H     DN1      DRUD    -2.199200        0.4000           0   0.00000   0.00000
      2308 IM1H     116      IM1H     C2       CD2R5D   2.447000       11.6110           0   -1.08300   1.10000
      2309 IM1H     116      IM1H     DC2      DRUD    -2.554000        0.4000           0   0.00000   0.00000
      2310 IM1H     116      IM1H     H4       HDR5D    0.195000        1.0080           0   0.00000   0.00000
      2311 IM1H     116      IM1H     C3       CD2R5D   2.507000       11.6110           0   -1.08300   1.10000
      2312 IM1H     116      IM1H     DC3      DRUD    -2.554000        0.4000           0   0.00000   0.00000
      2313 IM1H     116      IM1H     H5       HDR5D    0.192000        1.0080           0   0.00000   0.00000
      2314 IM1H     116      IM1H     C4       CD2R5E   2.724100       11.6110           0   -1.25300   1.20000
      2315 IM1H     116      IM1H     DC4      DRUD    -2.747100        0.4000           0   0.00000   0.00000
      2316 IM1H     116      IM1H     H6       HDR5E    0.203000        1.0080           0   0.00000   0.00000
      2317 IM1H     116      IM1H     N2       ND2R5C   2.042200       13.6070           0   -0.803000   1.00000
      2318 IM1H     116      IM1H     DN2      DRUD    -2.199200        0.4000           0   0.00000   0.00000
      2319 IM1H     116      IM1H     H7       HDP1A    0.363000        1.0080           0   0.00000   0.00000
      2320 IM1H     116      IM1H     LPN21    LPD      0.000000        0.0000           -1   0.00000   0.00000
      2321 IM1H     117      IM1H     C1       CD33F    2.485000       11.6110           0   -1.18100   1.10000
      2322 IM1H     117      IM1H     DC1      DRUD    -2.667000        0.4000           0   0.00000   0.00000
      2323 IM1H     117      IM1H     H1       HDA3A    0.135000        1.0080           0   0.00000   0.00000
      2324 IM1H     117      IM1H     H2       HDA3A    0.135000        1.0080           0   0.00000   0.00000
      2325 IM1H     117      IM1H     H3       HDA3A    0.135000        1.0080           0   0.00000   0.00000
      2326 IM1H     117      IM1H     N1       ND2R5C   2.357200       13.6070           0   -0.803000   1.00000
      2327 IM1H     117      IM1H     DN1      DRUD    -2.199200        0.4000           0   0.00000   0.00000
      2328 IM1H     117      IM1H     C2       CD2R5D   2.447000       11.6110           0   -1.08300   1.10000
      2329 IM1H     117      IM1H     DC2      DRUD    -2.554000        0.4000           0   0.00000   0.00000
      2330 IM1H     117      IM1H     H4       HDR5D    0.195000        1.0080           0   0.00000   0.00000
      2331 IM1H     117      IM1H     C3       CD2R5D   2.507000       11.6110           0   -1.08300   1.10000
      2332 IM1H     117      IM1H     DC3      DRUD    -2.554000        0.4000           0   0.00000   0.00000
      2333 IM1H     117      IM1H     H5       HDR5D    0.192000        1.0080           0   0.00000   0.00000
      2334 IM1H     117      IM1H     C4       CD2R5E   2.724100       11.6110           0   -1.25300   1.20000
      2335 IM1H     117      IM1H     DC4      DRUD    -2.747100        0.4000           0   0.00000   0.00000
      2336 IM1H     117      IM1H     H6       HDR5E    0.203000        1.0080           0   0.00000   0.00000
      2337 IM1H     117      IM1H     N2       ND2R5C   2.042200       13.6070           0   -0.803000   1.00000
      2338 IM1H     117      IM1H     DN2      DRUD    -2.199200        0.4000           0   0.00000   0.00000
      2339 IM1H     117      IM1H     H7       HDP1A    0.363000        1.0080           0   0.00000   0.00000
      2340 IM1H     117      IM1H     LPN21    LPD      0.000000        0.0000           -1   0.00000   0.00000
      2341 IM1H     118      IM1H     C1       CD33F    2.485000       11.6110           0   -1.18100   1.10000
      2342 IM1H     118      IM1H     DC1      DRUD    -2.667000        0.4000           0   0.00000   0.00000
      2343 IM1H     118      IM1H     H1       HDA3A    0.135000        1.0080           0   0.00000   0.00000
      2344 IM1H     118      IM1H     H2       HDA3A    0.135000        1.0080           0   0.00000   0.00000
      2345 IM1H     118      IM1H     H3       HDA3A    0.135000        1.0080           0   0.00000   0.00000
      2346 IM1H     118      IM1H     N1       ND2R5C   2.357200       13.6070           0   -0.803000   1.00000
      2347 IM1H     118      IM1H     DN1      DRUD    -2.199200        0.4000           0   0.00000   0.00000
      2348 IM1H     118      IM1H     C2       CD2R5D   2.447000       11.6110           0   -1.08300   1.10000
      2349 IM1H     118      IM1H     DC2      DRUD    -2.554000        0.4000           0   0.00000   0.00000
      2350 IM1H     118      IM1H     H4       HDR5D    0.195000        1.0080           0   0.00000   0.00000
      2351 IM1H     118      IM1H     C3       CD2R5D   2.507000       11.6110           0   -1.08300   1.10000
      2352 IM1H     118      IM1H     DC3      DRUD    -2.554000        0.4000           0   0.00000   0.00000
      2353 IM1H     118      IM1H     H5       HDR5D    0.192000        1.0080           0   0.00000   0.00000
      2354 IM1H     118      IM1H     C4       CD2R5E   2.724100       11.6110           0   -1.25300   1.20000
      2355 IM1H     118      IM1H     DC4      DRUD    -2.747100        0.4000           0   0.00000   0.00000
      2356 IM1H     118      IM1H     H6       HDR5E    0.203000        1.0080           0   0.00000   0.00000
      2357 IM1H     118      IM1H     N2       ND2R5C   2.042200       13.6070           0   -0.803000   1.00000
      2358 IM1H     118      IM1H     DN2      DRUD    -2.199200        0.4000           0   0.00000   0.00000
      2359 IM1H     118      IM1H     H7       HDP1A    0.363000        1.0080           0   0.00000   0.00000
      2360 IM1H     118      IM1H     LPN21    LPD      0.000000        0.0000           -1   0.00000   0.00000
      2361 IM1H     119      IM1H     C1       CD33F    2.485000       11.6110           0   -1.18100   1.10000
      2362 IM1H     119      IM1H     DC1      DRUD    -2.667000        0.4000           0   0.00000   0.00000
      2363 IM1H     119      IM1H     H1       HDA3A    0.135000        1.0080           0   0.00000   0.00000
      2364 IM1H     119      IM1H     H2       HDA3A    0.135000        1.0080           0   0.00000   0.00000
      2365 IM1H     119      IM1H     H3       HDA3A    0.135000        1.0080           0   0.00000   0.00000
      2366 IM1H     119      IM1H     N1       ND2R5C   2.357200       13.6070           0   -0.803000   1.00000
      2367 IM1H     119      IM1H     DN1      DRUD    -2.199200        0.4000           0   0.00000   0.00000
      2368 IM1H     119      IM1H     C2       CD2R5D   2.447000       11.6110           0   -1.08300   1.10000
      2369 IM1H     119      IM1H     DC2      DRUD    -2.554000        0.4000           0   0.00000   0.00000
      2370 IM1H     119      IM1H     H4       HDR5D    0.195000        1.0080           0   0.00000   0.00000
      2371 IM1H     119      IM1H     C3       CD2R5D   2.507000       11.6110           0   -1.08300   1.10000
      2372 IM1H     119      IM1H     DC3      DRUD    -2.554000        0.4000           0   0.00000   0.00000
      2373 IM1H     119      IM1H     H5       HDR5D    0.192000        1.0080           0   0.00000   0.00000
      2374 IM1H     119      IM1H     C4       CD2R5E   2.724100       11.6110           0   -1.25300   1.20000
      2375 IM1H     119      IM1H     DC4      DRUD    -2.747100        0.4000           0   0.00000   0.00000
      2376 IM1H     119      IM1H     H6       HDR5E    0.203000        1.0080           0   0.00000   0.00000
      2377 IM1H     119      IM1H     N2       ND2R5C   2.042200       13.6070           0   -0.803000   1.00000
      2378 IM1H     119      IM1H     DN2      DRUD    -2.199200        0.4000           0   0.00000   0.00000
      2379 IM1H     119      IM1H     H7       HDP1A    0.363000        1.0080           0   0.00000   0.00000
      2380 IM1H     119      IM1H     LPN21    LPD      0.000000        0.0000           -1   0.00000   0.00000
      2381 IM1H     120      IM1H     C1       CD33F    2.485000       11.6110           0   -1.18100   1.10000
      2382 IM1H     120      IM1H     DC1      DRUD    -2.667000        0.4000           0   0.00000   0.00000
      2383 IM1H     120      IM1H     H1       HDA3A    0.135000        1.0080           0   0.00000   0.00000
      2384 IM1H     120      IM1H     H2       HDA3A    0.135000        1.0080           0   0.00000   0.00000
      2385 IM1H     120      IM1H     H3       HDA3A    0.135000        1.0080           0   0.00000   0.00000
      2386 IM1H     120      IM1H     N1       ND2R5C   2.357200       13.6070           0   -0.803000   1.00000
      2387 IM1H     120      IM1H     DN1      DRUD    -2.199200        0.4000           0   0.00000   0.00000
      2388 IM1H     120      IM1H     C2       CD2R5D   2.447000       11.6110           0   -1.08300   1.10000
      2389 IM1H     120      IM1H     DC2      DRUD    -2.554000        0.4000           0   0.00000   0.00000
      2390 IM1H     120      IM1H     H4       HDR5D    0.195000        1.0080           0   0.00000   0.00000
      2391 IM1H     120      IM1H     C3       CD2R5D   2.507000       11.6110           0   -1.08300   1.10000
      2392 IM1H     120      IM1H     DC3      DRUD    -2.554000        0.4000           0   0.00000   0.00000
      2393 IM1H     120      IM1H     H5       HDR5D    0.192000        1.0080           0   0.00000   0.00000
      2394 IM1H     120      IM1H     C4       CD2R5E   2.724100       11.6110           0   -1.25300   1.20000
      2395 IM1H     120      IM1H     DC4      DRUD    -2.747100        0.4000           0   0.00000   0.00000
      2396 IM1H     120      IM1H     H6       HDR5E    0.203000        1.0080           0   0.00000   0.00000
      2397 IM1H     120      IM1H     N2       ND2R5C   2.042200       13.6070           0   -0.803000   1.00000
      2398 IM1H     120      IM1H     DN2      DRUD    -2.199200        0.4000           0   0.00000   0.00000
      2399 IM1H     120      IM1H     H7       HDP1A    0.363000        1.0080           0   0.00000   0.00000
      2400 IM1H     120      IM1H     LPN21    LPD      0.000000        0.0000           -1   0.00000   0.00000
      2401 IM1H     121      IM1H     C1       CD33F    2.485000       11.6110           0   -1.18100   1.10000
      2402 IM1H     121      IM1H     DC1      DRUD    -2.667000        0.4000           0   0.00000   0.00000
      2403 IM1H     121      IM1H     H1       HDA3A    0.135000        1.0080           0   0.00000   0.00000
      2404 IM1H     121      IM1H     H2       HDA3A    0.135000        1.0080           0   0.00000   0.00000
      2405 IM1H     121      IM1H     H3       HDA3A    0.135000        1.0080           0   0.00000   0.00000
      2406 IM1H     121      IM1H     N1       ND2R5C   2.357200       13.6070           0   -0.803000   1.00000
      2407 IM1H     121      IM1H     DN1      DRUD    -2.199200        0.4000           0   0.00000   0.00000
      2408 IM1H     121      IM1H     C2       CD2R5D   2.447000       11.6110           0   -1.08300   1.10000
      2409 IM1H     121      IM1H     DC2      DRUD    -2.554000        0.4000           0   0.00000   0.00000
      2410 IM1H     121      IM1H     H4       HDR5D    0.195000        1.0080           0   0.00000   0.00000
      2411 IM1H     121      IM1H     C3       CD2R5D   2.507000       11.6110           0   -1.08300   1.10000
      2412 IM1H     121      IM1H     DC3      DRUD    -2.554000        0.4000           0   0.00000   0.00000
      2413 IM1H     121      IM1H     H5       HDR5D    0.192000        1.0080           0   0.00000   0.00000
      2414 IM1H     121      IM1H     C4       CD2R5E   2.724100       11.6110           0   -1.25300   1.20000
      2415 IM1H     121      IM1H     DC4      DRUD    -2.747100        0.4000           0   0.00000   0.00000
      2416 IM1H     121      IM1H     H6       HDR5E    0.203000        1.0080           0   0.00000   0.00000
      2417 IM1H     121      IM1H     N2       ND2R5C   2.042200       13.6070           0   -0.803000   1.00000
      2418 IM1H     121      IM1H     DN2      DRUD    -2.199200        0.4000           0   0.00000   0.00000
      2419 IM1H     121      IM1H     H7       HDP1A    0.363000        1.0080           0   0.00000   0.00000
      2420 IM1H     121      IM1H     LPN21    LPD      0.000000        0.0000           -1   0.00000   0.00000
      2421 IM1H     122      IM1H     C1       CD33F    2.485000       11.6110           0   -1.18100   1.10000
      2422 IM1H     122      IM1H     DC1      DRUD    -2.667000        0.4000           0   0.00000   0.00000
      2423 IM1H     122      IM1H     H1       HDA3A    0.135000        1.0080           0   0.00000   0.00000
      2424 IM1H     122      IM1H     H2       HDA3A    0.135000        1.0080           0   0.00000   0.00000
      2425 IM1H     122      IM1H     H3       HDA3A    0.135000        1.0080           0   0.00000   0.00000
      2426 IM1H     122      IM1H     N1       ND2R5C   2.357200       13.6070           0   -0.803000   1.00000
      2427 IM1H     122      IM1H     DN1      DRUD    -2.199200        0.4000           0   0.00000   0.00000
      2428 IM1H     122      IM1H     C2       CD2R5D   2.447000       11.6110           0   -1.08300   1.10000
      2429 IM1H     122      IM1H     DC2      DRUD    -2.554000        0.4000           0   0.00000   0.00000
      2430 IM1H     122      IM1H     H4       HDR5D    0.195000        1.0080           0   0.00000   0.00000
      2431 IM1H     122      IM1H     C3       CD2R5D   2.507000       11.6110           0   -1.08300   1.10000
      2432 IM1H     122      IM1H     DC3      DRUD    -2.554000        0.4000           0   0.00000   0.00000
      2433 IM1H     122      IM1H     H5       HDR5D    0.192000        1.0080           0   0.00000   0.00000
      2434 IM1H     122      IM1H     C4       CD2R5E   2.724100       11.6110           0   -1.25300   1.20000
      2435 IM1H     122      IM1H     DC4      DRUD    -2.747100        0.4000           0   0.00000   0.00000
      2436 IM1H     122      IM1H     H6       HDR5E    0.203000        1.0080           0   0.00000   0.00000
      2437 IM1H     122      IM1H     N2       ND2R5C   2.042200       13.6070           0   -0.803000   1.00000
      2438 IM1H     122      IM1H     DN2      DRUD    -2.199200        0.4000           0   0.00000   0.00000
      2439 IM1H     122      IM1H     H7       HDP1A    0.363000        1.0080           0   0.00000   0.00000
      2440 IM1H     122      IM1H     LPN21    LPD      0.000000        0.0000           -1   0.00000   0.00000
      2441 IM1H     123      IM1H     C1       CD33F    2.485000       11.6110           0   -1.18100   1.10000
      2442 IM1H     123      IM1H     DC1      DRUD    -2.667000        0.4000           0   0.00000   0.00000
      2443 IM1H     123      IM1H     H1       HDA3A    0.135000        1.0080           0   0.00000   0.00000
      2444 IM1H     123      IM1H     H2       HDA3A    0.135000        1.0080           0   0.00000   0.00000
      2445 IM1H     123      IM1H     H3       HDA3A    0.135000        1.0080           0   0.00000   0.00000
      2446 IM1H     123      IM1H     N1       ND2R5C   2.357200       13.6070           0   -0.803000   1.00000
      2447 IM1H     123      IM1H     DN1      DRUD    -2.199200        0.4000           0   0.00000   0.00000
      2448 IM1H     123      IM1H     C2       CD2R5D   2.447000       11.6110           0   -1.08300   1.10000
      2449 IM1H     123      IM1H     DC2      DRUD    -2.554000        0.4000           0   0.00000   0.00000
      2450 IM1H     123      IM1H     H4       HDR5D    0.195000        1.0080           0   0.00000   0.00000
      2451 IM1H     123      IM1H     C3       CD2R5D   2.507000       11.6110           0   -1.08300   1.10000
      2452 IM1H     123      IM1H     DC3      DRUD    -2.554000        0.4000           0   0.00000   0.00000
      2453 IM1H     123      IM1H     H5       HDR5D    0.192000        1.0080           0   0.00000   0.00000
      2454 IM1H     123      IM1H     C4       CD2R5E   2.724100       11.6110           0   -1.25300   1.20000
      2455 IM1H     123      IM1H     DC4      DRUD    -2.747100        0.4000           0   0.00000   0.00000
      2456 IM1H     123      IM1H     H6       HDR5E    0.203000        1.0080           0   0.00000   0.00000
      2457 IM1H     123      IM1H     N2       ND2R5C   2.042200       13.6070           0   -0.803000   1.00000
      2458 IM1H     123      IM1H     DN2      DRUD    -2.199200        0.4000           0   0.00000   0.00000
      2459 IM1H     123      IM1H     H7       HDP1A    0.363000        1.0080           0   0.00000   0.00000
      2460 IM1H     123      IM1H     LPN21    LPD      0.000000        0.0000           -1   0.00000   0.00000
      2461 IM1H     124      IM1H     C1       CD33F    2.485000       11.6110           0   -1.18100   1.10000
      2462 IM1H     124      IM1H     DC1      DRUD    -2.667000        0.4000           0   0.00000   0.00000
      2463 IM1H     124      IM1H     H1       HDA3A    0.135000        1.0080           0   0.00000   0.00000
      2464 IM1H     124      IM1H     H2       HDA3A    0.135000        1.0080           0   0.00000   0.00000
      2465 IM1H     124      IM1H     H3       HDA3A    0.135000        1.0080           0   0.00000   0.00000
      2466 IM1H     124      IM1H     N1       ND2R5C   2.357200       13.6070           0   -0.803000   1.00000
      2467 IM1H     124      IM1H     DN1      DRUD    -2.199200        0.4000           0   0.00000   0.00000
      2468 IM1H     124      IM1H     C2       CD2R5D   2.447000       11.6110           0   -1.08300   1.10000
      2469 IM1H     124      IM1H     DC2      DRUD    -2.554000        0.4000           0   0.00000   0.00000
      2470 IM1H     124      IM1H     H4       HDR5D    0.195000        1.0080           0   0.00000   0.00000
      2471 IM1H     124      IM1H     C3       CD2R5D   2.507000       11.6110           0   -1.08300   1.10000
      2472 IM1H     124      IM1H     DC3      DRUD    -2.554000        0.4000           0   0.00000   0.00000
      2473 IM1H     124      IM1H     H5       HDR5D    0.192000        1.0080           0   0.00000   0.00000
      2474 IM1H     124      IM1H     C4       CD2R5E   2.724100       11.6110           0   -1.25300   1.20000
      2475 IM1H     124      IM1H     DC4      DRUD    -2.747100        0.4000           0   0.00000   0.00000
      2476 IM1H     124      IM1H     H6       HDR5E    0.203000        1.0080           0   0.00000   0.00000
      2477 IM1H     124      IM1H     N2       ND2R5C   2.042200       13.6070           0   -0.803000   1.00000
      2478 IM1H     124      IM1H     DN2      DRUD    -2.199200        0.4000           0   0.00000   0.00000
      2479 IM1H     124      IM1H     H7       HDP1A    0.363000        1.0080           0   0.00000   0.00000
      2480 IM1H     124      IM1H     LPN21    LPD      0.000000        0.0000           -1   0.00000   0.00000
      2481 IM1H     125      IM1H     C1       CD33F    2.485000       11.6110           0   -1.18100   1.10000
      2482 IM1H     125      IM1H     DC1      DRUD    -2.667000        0.4000           0   0.00000   0.00000
      2483 IM1H     125      IM1H     H1       HDA3A    0.135000        1.0080           0   0.00000   0.00000
      2484 IM1H     125      IM1H     H2       HDA3A    0.135000        1.0080           0   0.00000   0.00000
      2485 IM1H     125      IM1H     H3       HDA3A    0.135000        1.0080           0   0.00000   0.00000
      2486 IM1H     125      IM1H     N1       ND2R5C   2.357200       13.6070           0   -0.803000   1.00000
      2487 IM1H     125      IM1H     DN1      DRUD    -2.199200        0.4000           0   0.00000   0.00000
      2488 IM1H     125      IM1H     C2       CD2R5D   2.447000       11.6110           0   -1.08300   1.10000
      2489 IM1H     125      IM1H     DC2      DRUD    -2.554000        0.4000           0   0.00000   0.00000
      2490 IM1H     125      IM1H     H4       HDR5D    0.195000        1.0080           0   0.00000   0.00000
      2491 IM1H     125      IM1H     C3       CD2R5D   2.507000       11.6110           0   -1.08300   1.10000
      2492 IM1H     125      IM1H     DC3      DRUD    -2.554000        0.4000           0   0.00000   0.00000
      2493 IM1H     125      IM1H     H5       HDR5D    0.192000        1.0080           0   0.00000   0.00000
      2494 IM1H     125      IM1H     C4       CD2R5E   2.724100       11.6110           0   -1.25300   1.20000
      2495 IM1H     125      IM1H     DC4      DRUD    -2.747100        0.4000           0   0.00000   0.00000
      2496 IM1H     125      IM1H     H6       HDR5E    0.203000        1.0080           0   0.00000   0.00000
      2497 IM1H     125      IM1H     N2       ND2R5C   2.042200       13.6070           0   -0.803000   1.00000
      2498 IM1H     125      IM1H     DN2      DRUD    -2.199200        0.4000           0   0.00000   0.00000
      2499 IM1H     125      IM1H     H7       HDP1A    0.363000        1.0080           0   0.00000   0.00000
      2500 IM1H     125      IM1H     LPN21    LPD      0.000000        0.0000           -1   0.00000   0.00000
      2501 IM1H     126      IM1H     C1       CD33F    2.485000       11.6110           0   -1.18100   1.10000
      2502 IM1H     126      IM1H     DC1      DRUD    -2.667000        0.4000           0   0.00000   0.00000
      2503 IM1H     126      IM1H     H1       HDA3A    0.135000        1.0080           0   0.00000   0.00000
      2504 IM1H     126      IM1H     H2       HDA3A    0.135000        1.0080           0   0.00000   0.00000
      2505 IM1H     126      IM1H     H3       HDA3A    0.135000        1.0080           0   0.00000   0.00000
      2506 IM1H     126      IM1H     N1       ND2R5C   2.357200       13.6070           0   -0.803000   1.00000
      2507 IM1H     126      IM1H     DN1      DRUD    -2.199200        0.4000           0   0.00000   0.00000
      2508 IM1H     126      IM1H     C2       CD2R5D   2.447000       11.6110           0   -1.08300   1.10000
      2509 IM1H     126      IM1H     DC2      DRUD    -2.554000        0.4000           0   0.00000   0.00000
      2510 IM1H     126      IM1H     H4       HDR5D    0.195000        1.0080           0   0.00000   0.00000
      2511 IM1H     126      IM1H     C3       CD2R5D   2.507000       11.6110           0   -1.08300   1.10000
      2512 IM1H     126      IM1H     DC3      DRUD    -2.554000        0.4000           0   0.00000   0.00000
      2513 IM1H     126      IM1H     H5       HDR5D    0.192000        1.0080           0   0.00000   0.00000
      2514 IM1H     126      IM1H     C4       CD2R5E   2.724100       11.6110           0   -1.25300   1.20000
      2515 IM1H     126      IM1H     DC4      DRUD    -2.747100        0.4000           0   0.00000   0.00000
      2516 IM1H     126      IM1H     H6       HDR5E    0.203000        1.0080           0   0.00000   0.00000
      2517 IM1H     126      IM1H     N2       ND2R5C   2.042200       13.6070           0   -0.803000   1.00000
      2518 IM1H     126      IM1H     DN2      DRUD    -2.199200        0.4000           0   0.00000   0.00000
      2519 IM1H     126      IM1H     H7       HDP1A    0.363000        1.0080           0   0.00000   0.00000
      2520 IM1H     126      IM1H     LPN21    LPD      0.000000        0.0000           -1   0.00000   0.00000
      2521 IM1H     127      IM1H     C1       CD33F    2.485000       11.6110           0   -1.18100   1.10000
      2522 IM1H     127      IM1H     DC1      DRUD    -2.667000        0.4000           0   0.00000   0.00000
      2523 IM1H     127      IM1H     H1       HDA3A    0.135000        1.0080           0   0.00000   0.00000
      2524 IM1H     127      IM1H     H2       HDA3A    0.135000        1.0080           0   0.00000   0.00000
      2525 IM1H     127      IM1H     H3       HDA3A    0.135000        1.0080           0   0.00000   0.00000
      2526 IM1H     127      IM1H     N1       ND2R5C   2.357200       13.6070           0   -0.803000   1.00000
      2527 IM1H     127      IM1H     DN1      DRUD    -2.199200        0.4000           0   0.00000   0.00000
      2528 IM1H     127      IM1H     C2       CD2R5D   2.447000       11.6110           0   -1.08300   1.10000
      2529 IM1H     127      IM1H     DC2      DRUD    -2.554000        0.4000           0   0.00000   0.00000
      2530 IM1H     127      IM1H     H4       HDR5D    0.195000        1.0080           0   0.00000   0.00000
      2531 IM1H     127      IM1H     C3       CD2R5D   2.507000       11.6110           0   -1.08300   1.10000
      2532 IM1H     127      IM1H     DC3      DRUD    -2.554000        0.4000           0   0.00000   0.00000
      2533 IM1H     127      IM1H     H5       HDR5D    0.192000        1.0080           0   0.00000   0.00000
      2534 IM1H     127      IM1H     C4       CD2R5E   2.724100       11.6110           0   -1.25300   1.20000
      2535 IM1H     127      IM1H     DC4      DRUD    -2.747100        0.4000           0   0.00000   0.00000
      2536 IM1H     127      IM1H     H6       HDR5E    0.203000        1.0080           0   0.00000   0.00000
      2537 IM1H     127      IM1H     N2       ND2R5C   2.042200       13.6070           0   -0.803000   1.00000
      2538 IM1H     127      IM1H     DN2      DRUD    -2.199200        0.4000           0   0.00000   0.00000
      2539 IM1H     127      IM1H     H7       HDP1A    0.363000        1.0080           0   0.00000   0.00000
      2540 IM1H     127      IM1H     LPN21    LPD      0.000000        0.0000           -1   0.00000   0.00000
      2541 IM1H     128      IM1H     C1       CD33F    2.485000       11.6110           0   -1.18100   1.10000
      2542 IM1H     128      IM1H     DC1      DRUD    -2.667000        0.4000           0   0.00000   0.00000
      2543 IM1H     128      IM1H     H1       HDA3A    0.135000        1.0080           0   0.00000   0.00000
      2544 IM1H     128      IM1H     H2       HDA3A    0.135000        1.0080           0   0.00000   0.00000
      2545 IM1H     128      IM1H     H3       HDA3A    0.135000        1.0080           0   0.00000   0.00000
      2546 IM1H     128      IM1H     N1       ND2R5C   2.357200       13.6070           0   -0.803000   1.00000
      2547 IM1H     128      IM1H     DN1      DRUD    -2.199200        0.4000           0   0.00000   0.00000
      2548 IM1H     128      IM1H     C2       CD2R5D   2.447000       11.6110           0   -1.08300   1.10000
      2549 IM1H     128      IM1H     DC2      DRUD    -2.554000        0.4000           0   0.00000   0.00000
      2550 IM1H     128      IM1H     H4       HDR5D    0.195000        1.0080           0   0.00000   0.00000
      2551 IM1H     128      IM1H     C3       CD2R5D   2.507000       11.6110           0   -1.08300   1.10000
      2552 IM1H     128      IM1H     DC3      DRUD    -2.554000        0.4000           0   0.00000   0.00000
      2553 IM1H     128      IM1H     H5       HDR5D    0.192000        1.0080           0   0.00000   0.00000
      2554 IM1H     128      IM1H     C4       CD2R5E   2.724100       11.6110           0   -1.25300   1.20000
      2555 IM1H     128      IM1H     DC4      DRUD    -2.747100        0.4000           0   0.00000   0.00000
      2556 IM1H     128      IM1H     H6       HDR5E    0.203000        1.0080           0   0.00000   0.00000
      2557 IM1H     128      IM1H     N2       ND2R5C   2.042200       13.6070           0   -0.803000   1.00000
      2558 IM1H     128      IM1H     DN2      DRUD    -2.199200        0.4000           0   0.00000   0.00000
      2559 IM1H     128      IM1H     H7       HDP1A    0.363000        1.0080           0   0.00000   0.00000
      2560 IM1H     128      IM1H     LPN21    LPD      0.000000        0.0000           -1   0.00000   0.00000
      2561 IM1H     129      IM1H     C1       CD33F    2.485000       11.6110           0   -1.18100   1.10000
      2562 IM1H     129      IM1H     DC1      DRUD    -2.667000        0.4000           0   0.00000   0.00000
      2563 IM1H     129      IM1H     H1       HDA3A    0.135000        1.0080           0   0.00000   0.00000
      2564 IM1H     129      IM1H     H2       HDA3A    0.135000        1.0080           0   0.00000   0.00000
      2565 IM1H     129      IM1H     H3       HDA3A    0.135000        1.0080           0   0.00000   0.00000
      2566 IM1H     129      IM1H     N1       ND2R5C   2.357200       13.6070           0   -0.803000   1.00000
      2567 IM1H     129      IM1H     DN1      DRUD    -2.199200        0.4000           0   0.00000   0.00000
      2568 IM1H     129      IM1H     C2       CD2R5D   2.447000       11.6110           0   -1.08300   1.10000
      2569 IM1H     129      IM1H     DC2      DRUD    -2.554000        0.4000           0   0.00000   0.00000
      2570 IM1H     129      IM1H     H4       HDR5D    0.195000        1.0080           0   0.00000   0.00000
      2571 IM1H     129      IM1H     C3       CD2R5D   2.507000       11.6110           0   -1.08300   1.10000
      2572 IM1H     129      IM1H     DC3      DRUD    -2.554000        0.4000           0   0.00000   0.00000
      2573 IM1H     129      IM1H     H5       HDR5D    0.192000        1.0080           0   0.00000   0.00000
      2574 IM1H     129      IM1H     C4       CD2R5E   2.724100       11.6110           0   -1.25300   1.20000
      2575 IM1H     129      IM1H     DC4      DRUD    -2.747100        0.4000           0   0.00000   0.00000
      2576 IM1H     129      IM1H     H6       HDR5E    0.203000        1.0080           0   0.00000   0.00000
      2577 IM1H     129      IM1H     N2       ND2R5C   2.042200       13.6070           0   -0.803000   1.00000
      2578 IM1H     129      IM1H     DN2      DRUD    -2.199200        0.4000           0   0.00000   0.00000
      2579 IM1H     129      IM1H     H7       HDP1A    0.363000        1.0080           0   0.00000   0.00000
      2580 IM1H     129      IM1H     LPN21    LPD      0.000000        0.0000           -1   0.00000   0.00000
      2581 IM1H     130      IM1H     C1       CD33F    2.485000       11.6110           0   -1.18100   1.10000
      2582 IM1H     130      IM1H     DC1      DRUD    -2.667000        0.4000           0   0.00000   0.00000
      2583 IM1H     130      IM1H     H1       HDA3A    0.135000        1.0080           0   0.00000   0.00000
      2584 IM1H     130      IM1H     H2       HDA3A    0.135000        1.0080           0   0.00000   0.00000
      2585 IM1H     130      IM1H     H3       HDA3A    0.135000        1.0080           0   0.00000   0.00000
      2586 IM1H     130      IM1H     N1       ND2R5C   2.357200       13.6070           0   -0.803000   1.00000
      2587 IM1H     130      IM1H     DN1      DRUD    -2.199200        0.4000           0   0.00000   0.00000
      2588 IM1H     130      IM1H     C2       CD2R5D   2.447000       11.6110           0   -1.08300   1.10000
      2589 IM1H     130      IM1H     DC2      DRUD    -2.554000        0.4000           0   0.00000   0.00000
      2590 IM1H     130      IM1H     H4       HDR5D    0.195000        1.0080           0   0.00000   0.00000
      2591 IM1H     130      IM1H     C3       CD2R5D   2.507000       11.6110           0   -1.08300   1.10000
      2592 IM1H     130      IM1H     DC3      DRUD    -2.554000        0.4000           0   0.00000   0.00000
      2593 IM1H     130      IM1H     H5       HDR5D    0.192000        1.0080           0   0.00000   0.00000
      2594 IM1H     130      IM1H     C4       CD2R5E   2.724100       11.6110           0   -1.25300   1.20000
      2595 IM1H     130      IM1H     DC4      DRUD    -2.747100        0.4000           0   0.00000   0.00000
      2596 IM1H     130      IM1H     H6       HDR5E    0.203000        1.0080           0   0.00000   0.00000
      2597 IM1H     130      IM1H     N2       ND2R5C   2.042200       13.6070           0   -0.803000   1.00000
      2598 IM1H     130      IM1H     DN2      DRUD    -2.199200        0.4000           0   0.00000   0.00000
      2599 IM1H     130      IM1H     H7       HDP1A    0.363000        1.0080           0   0.00000   0.00000
      2600 IM1H     130      IM1H     LPN21    LPD      0.000000        0.0000           -1   0.00000   0.00000
      2601 IM1H     131      IM1H     C1       CD33F    2.485000       11.6110           0   -1.18100   1.10000
      2602 IM1H     131      IM1H     DC1      DRUD    -2.667000        0.4000           0   0.00000   0.00000
      2603 IM1H     131      IM1H     H1       HDA3A    0.135000        1.0080           0   0.00000   0.00000
      2604 IM1H     131      IM1H     H2       HDA3A    0.135000        1.0080           0   0.00000   0.00000
      2605 IM1H     131      IM1H     H3       HDA3A    0.135000        1.0080           0   0.00000   0.00000
      2606 IM1H     131      IM1H     N1       ND2R5C   2.357200       13.6070           0   -0.803000   1.00000
      2607 IM1H     131      IM1H     DN1      DRUD    -2.199200        0.4000           0   0.00000   0.00000
      2608 IM1H     131      IM1H     C2       CD2R5D   2.447000       11.6110           0   -1.08300   1.10000
      2609 IM1H     131      IM1H     DC2      DRUD    -2.554000        0.4000           0   0.00000   0.00000
      2610 IM1H     131      IM1H     H4       HDR5D    0.195000        1.0080           0   0.00000   0.00000
      2611 IM1H     131      IM1H     C3       CD2R5D   2.507000       11.6110           0   -1.08300   1.10000
      2612 IM1H     131      IM1H     DC3      DRUD    -2.554000        0.4000           0   0.00000   0.00000
      2613 IM1H     131      IM1H     H5       HDR5D    0.192000        1.0080           0   0.00000   0.00000
      2614 IM1H     131      IM1H     C4       CD2R5E   2.724100       11.6110           0   -1.25300   1.20000
      2615 IM1H     131      IM1H     DC4      DRUD    -2.747100        0.4000           0   0.00000   0.00000
      2616 IM1H     131      IM1H     H6       HDR5E    0.203000        1.0080           0   0.00000   0.00000
      2617 IM1H     131      IM1H     N2       ND2R5C   2.042200       13.6070           0   -0.803000   1.00000
      2618 IM1H     131      IM1H     DN2      DRUD    -2.199200        0.4000           0   0.00000   0.00000
      2619 IM1H     131      IM1H     H7       HDP1A    0.363000        1.0080           0   0.00000   0.00000
      2620 IM1H     131      IM1H     LPN21    LPD      0.000000        0.0000           -1   0.00000   0.00000
      2621 IM1H     132      IM1H     C1       CD33F    2.485000       11.6110           0   -1.18100   1.10000
      2622 IM1H     132      IM1H     DC1      DRUD    -2.667000        0.4000           0   0.00000   0.00000
      2623 IM1H     132      IM1H     H1       HDA3A    0.135000        1.0080           0   0.00000   0.00000
      2624 IM1H     132      IM1H     H2       HDA3A    0.135000        1.0080           0   0.00000   0.00000
      2625 IM1H     132      IM1H     H3       HDA3A    0.135000        1.0080           0   0.00000   0.00000
      2626 IM1H     132      IM1H     N1       ND2R5C   2.357200       13.6070           0   -0.803000   1.00000
      2627 IM1H     132      IM1H     DN1      DRUD    -2.199200        0.4000           0   0.00000   0.00000
      2628 IM1H     132      IM1H     C2       CD2R5D   2.447000       11.6110           0   -1.08300   1.10000
      2629 IM1H     132      IM1H     DC2      DRUD    -2.554000        0.4000           0   0.00000   0.00000
      2630 IM1H     132      IM1H     H4       HDR5D    0.195000        1.0080           0   0.00000   0.00000
      2631 IM1H     132      IM1H     C3       CD2R5D   2.507000       11.6110           0   -1.08300   1.10000
      2632 IM1H     132      IM1H     DC3      DRUD    -2.554000        0.4000           0   0.00000   0.00000
      2633 IM1H     132      IM1H     H5       HDR5D    0.192000        1.0080           0   0.00000   0.00000
      2634 IM1H     132      IM1H     C4       CD2R5E   2.724100       11.6110           0   -1.25300   1.20000
      2635 IM1H     132      IM1H     DC4      DRUD    -2.747100        0.4000           0   0.00000   0.00000
      2636 IM1H     132      IM1H     H6       HDR5E    0.203000        1.0080           0   0.00000   0.00000
      2637 IM1H     132      IM1H     N2       ND2R5C   2.042200       13.6070           0   -0.803000   1.00000
      2638 IM1H     132      IM1H     DN2      DRUD    -2.199200        0.4000           0   0.00000   0.00000
      2639 IM1H     132      IM1H     H7       HDP1A    0.363000        1.0080           0   0.00000   0.00000
      2640 IM1H     132      IM1H     LPN21    LPD      0.000000        0.0000           -1   0.00000   0.00000
      2641 IM1H     133      IM1H     C1       CD33F    2.485000       11.6110           0   -1.18100   1.10000
      2642 IM1H     133      IM1H     DC1      DRUD    -2.667000        0.4000           0   0.00000   0.00000
      2643 IM1H     133      IM1H     H1       HDA3A    0.135000        1.0080           0   0.00000   0.00000
      2644 IM1H     133      IM1H     H2       HDA3A    0.135000        1.0080           0   0.00000   0.00000
      2645 IM1H     133      IM1H     H3       HDA3A    0.135000        1.0080           0   0.00000   0.00000
      2646 IM1H     133      IM1H     N1       ND2R5C   2.357200       13.6070           0   -0.803000   1.00000
      2647 IM1H     133      IM1H     DN1      DRUD    -2.199200        0.4000           0   0.00000   0.00000
      2648 IM1H     133      IM1H     C2       CD2R5D   2.447000       11.6110           0   -1.08300   1.10000
      2649 IM1H     133      IM1H     DC2      DRUD    -2.554000        0.4000           0   0.00000   0.00000
      2650 IM1H     133      IM1H     H4       HDR5D    0.195000        1.0080           0   0.00000   0.00000
      2651 IM1H     133      IM1H     C3       CD2R5D   2.507000       11.6110           0   -1.08300   1.10000
      2652 IM1H     133      IM1H     DC3      DRUD    -2.554000        0.4000           0   0.00000   0.00000
      2653 IM1H     133      IM1H     H5       HDR5D    0.192000        1.0080           0   0.00000   0.00000
      2654 IM1H     133      IM1H     C4       CD2R5E   2.724100       11.6110           0   -1.25300   1.20000
      2655 IM1H     133      IM1H     DC4      DRUD    -2.747100        0.4000           0   0.00000   0.00000
      2656 IM1H     133      IM1H     H6       HDR5E    0.203000        1.0080           0   0.00000   0.00000
      2657 IM1H     133      IM1H     N2       ND2R5C   2.042200       13.6070           0   -0.803000   1.00000
      2658 IM1H     133      IM1H     DN2      DRUD    -2.199200        0.4000           0   0.00000   0.00000
      2659 IM1H     133      IM1H     H7       HDP1A    0.363000        1.0080           0   0.00000   0.00000
      2660 IM1H     133      IM1H     LPN21    LPD      0.000000        0.0000           -1   0.00000   0.00000
      2661 IM1H     134      IM1H     C1       CD33F    2.485000       11.6110           0   -1.18100   1.10000
      2662 IM1H     134      IM1H     DC1      DRUD    -2.667000        0.4000           0   0.00000   0.00000
      2663 IM1H     134      IM1H     H1       HDA3A    0.135000        1.0080           0   0.00000   0.00000
      2664 IM1H     134      IM1H     H2       HDA3A    0.135000        1.0080           0   0.00000   0.00000
      2665 IM1H     134      IM1H     H3       HDA3A    0.135000        1.0080           0   0.00000   0.00000
      2666 IM1H     134      IM1H     N1       ND2R5C   2.357200       13.6070           0   -0.803000   1.00000
      2667 IM1H     134      IM1H     DN1      DRUD    -2.199200        0.4000           0   0.00000   0.00000
      2668 IM1H     134      IM1H     C2       CD2R5D   2.447000       11.6110           0   -1.08300   1.10000
      2669 IM1H     134      IM1H     DC2      DRUD    -2.554000        0.4000           0   0.00000   0.00000
      2670 IM1H     134      IM1H     H4       HDR5D    0.195000        1.0080           0   0.00000   0.00000
      2671 IM1H     134      IM1H     C3       CD2R5D   2.507000       11.6110           0   -1.08300   1.10000
      2672 IM1H     134      IM1H     DC3      DRUD    -2.554000        0.4000           0   0.00000   0.00000
      2673 IM1H     134      IM1H     H5       HDR5D    0.192000        1.0080           0   0.00000   0.00000
      2674 IM1H     134      IM1H     C4       CD2R5E   2.724100       11.6110           0   -1.25300   1.20000
      2675 IM1H     134      IM1H     DC4      DRUD    -2.747100        0.4000           0   0.00000   0.00000
      2676 IM1H     134      IM1H     H6       HDR5E    0.203000        1.0080           0   0.00000   0.00000
      2677 IM1H     134      IM1H     N2       ND2R5C   2.042200       13.6070           0   -0.803000   1.00000
      2678 IM1H     134      IM1H     DN2      DRUD    -2.199200        0.4000           0   0.00000   0.00000
      2679 IM1H     134      IM1H     H7       HDP1A    0.363000        1.0080           0   0.00000   0.00000
      2680 IM1H     134      IM1H     LPN21    LPD      0.000000        0.0000           -1   0.00000   0.00000
      2681 IM1H     135      IM1H     C1       CD33F    2.485000       11.6110           0   -1.18100   1.10000
      2682 IM1H     135      IM1H     DC1      DRUD    -2.667000        0.4000           0   0.00000   0.00000
      2683 IM1H     135      IM1H     H1       HDA3A    0.135000        1.0080           0   0.00000   0.00000
      2684 IM1H     135      IM1H     H2       HDA3A    0.135000        1.0080           0   0.00000   0.00000
      2685 IM1H     135      IM1H     H3       HDA3A    0.135000        1.0080           0   0.00000   0.00000
      2686 IM1H     135      IM1H     N1       ND2R5C   2.357200       13.6070           0   -0.803000   1.00000
      2687 IM1H     135      IM1H     DN1      DRUD    -2.199200        0.4000           0   0.00000   0.00000
      2688 IM1H     135      IM1H     C2       CD2R5D   2.447000       11.6110           0   -1.08300   1.10000
      2689 IM1H     135      IM1H     DC2      DRUD    -2.554000        0.4000           0   0.00000   0.00000
      2690 IM1H     135      IM1H     H4       HDR5D    0.195000        1.0080           0   0.00000   0.00000
      2691 IM1H     135      IM1H     C3       CD2R5D   2.507000       11.6110           0   -1.08300   1.10000
      2692 IM1H     135      IM1H     DC3      DRUD    -2.554000        0.4000           0   0.00000   0.00000
      2693 IM1H     135      IM1H     H5       HDR5D    0.192000        1.0080           0   0.00000   0.00000
      2694 IM1H     135      IM1H     C4       CD2R5E   2.724100       11.6110           0   -1.25300   1.20000
      2695 IM1H     135      IM1H     DC4      DRUD    -2.747100        0.4000           0   0.00000   0.00000
      2696 IM1H     135      IM1H     H6       HDR5E    0.203000        1.0080           0   0.00000   0.00000
      2697 IM1H     135      IM1H     N2       ND2R5C   2.042200       13.6070           0   -0.803000   1.00000
      2698 IM1H     135      IM1H     DN2      DRUD    -2.199200        0.4000           0   0.00000   0.00000
      2699 IM1H     135      IM1H     H7       HDP1A    0.363000        1.0080           0   0.00000   0.00000
      2700 IM1H     135      IM1H     LPN21    LPD      0.000000        0.0000           -1   0.00000   0.00000
      2701 IM1H     136      IM1H     C1       CD33F    2.485000       11.6110           0   -1.18100   1.10000
      2702 IM1H     136      IM1H     DC1      DRUD    -2.667000        0.4000           0   0.00000   0.00000
      2703 IM1H     136      IM1H     H1       HDA3A    0.135000        1.0080           0   0.00000   0.00000
      2704 IM1H     136      IM1H     H2       HDA3A    0.135000        1.0080           0   0.00000   0.00000
      2705 IM1H     136      IM1H     H3       HDA3A    0.135000        1.0080           0   0.00000   0.00000
      2706 IM1H     136      IM1H     N1       ND2R5C   2.357200       13.6070           0   -0.803000   1.00000
      2707 IM1H     136      IM1H     DN1      DRUD    -2.199200        0.4000           0   0.00000   0.00000
      2708 IM1H     136      IM1H     C2       CD2R5D   2.447000       11.6110           0   -1.08300   1.10000
      2709 IM1H     136      IM1H     DC2      DRUD    -2.554000        0.4000           0   0.00000   0.00000
      2710 IM1H     136      IM1H     H4       HDR5D    0.195000        1.0080           0   0.00000   0.00000
      2711 IM1H     136      IM1H     C3       CD2R5D   2.507000       11.6110           0   -1.08300   1.10000
      2712 IM1H     136      IM1H     DC3      DRUD    -2.554000        0.4000           0   0.00000   0.00000
      2713 IM1H     136      IM1H     H5       HDR5D    0.192000        1.0080           0   0.00000   0.00000
      2714 IM1H     136      IM1H     C4       CD2R5E   2.724100       11.6110           0   -1.25300   1.20000
      2715 IM1H     136      IM1H     DC4      DRUD    -2.747100        0.4000           0   0.00000   0.00000
      2716 IM1H     136      IM1H     H6       HDR5E    0.203000        1.0080           0   0.00000   0.00000
      2717 IM1H     136      IM1H     N2       ND2R5C   2.042200       13.6070           0   -0.803000   1.00000
      2718 IM1H     136      IM1H     DN2      DRUD    -2.199200        0.4000           0   0.00000   0.00000
      2719 IM1H     136      IM1H     H7       HDP1A    0.363000        1.0080           0   0.00000   0.00000
      2720 IM1H     136      IM1H     LPN21    LPD      0.000000        0.0000           -1   0.00000   0.00000
      2721 IM1H     137      IM1H     C1       CD33F    2.485000       11.6110           0   -1.18100   1.10000
      2722 IM1H     137      IM1H     DC1      DRUD    -2.667000        0.4000           0   0.00000   0.00000
      2723 IM1H     137      IM1H     H1       HDA3A    0.135000        1.0080           0   0.00000   0.00000
      2724 IM1H     137      IM1H     H2       HDA3A    0.135000        1.0080           0   0.00000   0.00000
      2725 IM1H     137      IM1H     H3       HDA3A    0.135000        1.0080           0   0.00000   0.00000
      2726 IM1H     137      IM1H     N1       ND2R5C   2.357200       13.6070           0   -0.803000   1.00000
      2727 IM1H     137      IM1H     DN1      DRUD    -2.199200        0.4000           0   0.00000   0.00000
      2728 IM1H     137      IM1H     C2       CD2R5D   2.447000       11.6110           0   -1.08300   1.10000
      2729 IM1H     137      IM1H     DC2      DRUD    -2.554000        0.4000           0   0.00000   0.00000
      2730 IM1H     137      IM1H     H4       HDR5D    0.195000        1.0080           0   0.00000   0.00000
      2731 IM1H     137      IM1H     C3       CD2R5D   2.507000       11.6110           0   -1.08300   1.10000
      2732 IM1H     137      IM1H     DC3      DRUD    -2.554000        0.4000           0   0.00000   0.00000
      2733 IM1H     137      IM1H     H5       HDR5D    0.192000        1.0080           0   0.00000   0.00000
      2734 IM1H     137      IM1H     C4       CD2R5E   2.724100       11.6110           0   -1.25300   1.20000
      2735 IM1H     137      IM1H     DC4      DRUD    -2.747100        0.4000           0   0.00000   0.00000
      2736 IM1H     137      IM1H     H6       HDR5E    0.203000        1.0080           0   0.00000   0.00000
      2737 IM1H     137      IM1H     N2       ND2R5C   2.042200       13.6070           0   -0.803000   1.00000
      2738 IM1H     137      IM1H     DN2      DRUD    -2.199200        0.4000           0   0.00000   0.00000
      2739 IM1H     137      IM1H     H7       HDP1A    0.363000        1.0080           0   0.00000   0.00000
      2740 IM1H     137      IM1H     LPN21    LPD      0.000000        0.0000           -1   0.00000   0.00000
      2741 IM1H     138      IM1H     C1       CD33F    2.485000       11.6110           0   -1.18100   1.10000
      2742 IM1H     138      IM1H     DC1      DRUD    -2.667000        0.4000           0   0.00000   0.00000
      2743 IM1H     138      IM1H     H1       HDA3A    0.135000        1.0080           0   0.00000   0.00000
      2744 IM1H     138      IM1H     H2       HDA3A    0.135000        1.0080           0   0.00000   0.00000
      2745 IM1H     138      IM1H     H3       HDA3A    0.135000        1.0080           0   0.00000   0.00000
      2746 IM1H     138      IM1H     N1       ND2R5C   2.357200       13.6070           0   -0.803000   1.00000
      2747 IM1H     138      IM1H     DN1      DRUD    -2.199200        0.4000           0   0.00000   0.00000
      2748 IM1H     138      IM1H     C2       CD2R5D   2.447000       11.6110           0   -1.08300   1.10000
      2749 IM1H     138      IM1H     DC2      DRUD    -2.554000        0.4000           0   0.00000   0.00000
      2750 IM1H     138      IM1H     H4       HDR5D    0.195000        1.0080           0   0.00000   0.00000
      2751 IM1H     138      IM1H     C3       CD2R5D   2.507000       11.6110           0   -1.08300   1.10000
      2752 IM1H     138      IM1H     DC3      DRUD    -2.554000        0.4000           0   0.00000   0.00000
      2753 IM1H     138      IM1H     H5       HDR5D    0.192000        1.0080           0   0.00000   0.00000
      2754 IM1H     138      IM1H     C4       CD2R5E   2.724100       11.6110           0   -1.25300   1.20000
      2755 IM1H     138      IM1H     DC4      DRUD    -2.747100        0.4000           0   0.00000   0.00000
      2756 IM1H     138      IM1H     H6       HDR5E    0.203000        1.0080           0   0.00000   0.00000
      2757 IM1H     138      IM1H     N2       ND2R5C   2.042200       13.6070           0   -0.803000   1.00000
      2758 IM1H     138      IM1H     DN2      DRUD    -2.199200        0.4000           0   0.00000   0.00000
      2759 IM1H     138      IM1H     H7       HDP1A    0.363000        1.0080           0   0.00000   0.00000
      2760 IM1H     138      IM1H     LPN21    LPD      0.000000        0.0000           -1   0.00000   0.00000
      2761 IM1H     139      IM1H     C1       CD33F    2.485000       11.6110           0   -1.18100   1.10000
      2762 IM1H     139      IM1H     DC1      DRUD    -2.667000        0.4000           0   0.00000   0.00000
      2763 IM1H     139      IM1H     H1       HDA3A    0.135000        1.0080           0   0.00000   0.00000
      2764 IM1H     139      IM1H     H2       HDA3A    0.135000        1.0080           0   0.00000   0.00000
      2765 IM1H     139      IM1H     H3       HDA3A    0.135000        1.0080           0   0.00000   0.00000
      2766 IM1H     139      IM1H     N1       ND2R5C   2.357200       13.6070           0   -0.803000   1.00000
      2767 IM1H     139      IM1H     DN1      DRUD    -2.199200        0.4000           0   0.00000   0.00000
      2768 IM1H     139      IM1H     C2       CD2R5D   2.447000       11.6110           0   -1.08300   1.10000
      2769 IM1H     139      IM1H     DC2      DRUD    -2.554000        0.4000           0   0.00000   0.00000
      2770 IM1H     139      IM1H     H4       HDR5D    0.195000        1.0080           0   0.00000   0.00000
      2771 IM1H     139      IM1H     C3       CD2R5D   2.507000       11.6110           0   -1.08300   1.10000
      2772 IM1H     139      IM1H     DC3      DRUD    -2.554000        0.4000           0   0.00000   0.00000
      2773 IM1H     139      IM1H     H5       HDR5D    0.192000        1.0080           0   0.00000   0.00000
      2774 IM1H     139      IM1H     C4       CD2R5E   2.724100       11.6110           0   -1.25300   1.20000
      2775 IM1H     139      IM1H     DC4      DRUD    -2.747100        0.4000           0   0.00000   0.00000
      2776 IM1H     139      IM1H     H6       HDR5E    0.203000        1.0080           0   0.00000   0.00000
      2777 IM1H     139      IM1H     N2       ND2R5C   2.042200       13.6070           0   -0.803000   1.00000
      2778 IM1H     139      IM1H     DN2      DRUD    -2.199200        0.4000           0   0.00000   0.00000
      2779 IM1H     139      IM1H     H7       HDP1A    0.363000        1.0080           0   0.00000   0.00000
      2780 IM1H     139      IM1H     LPN21    LPD      0.000000        0.0000           -1   0.00000   0.00000
      2781 IM1H     140      IM1H     C1       CD33F    2.485000       11.6110           0   -1.18100   1.10000
      2782 IM1H     140      IM1H     DC1      DRUD    -2.667000        0.4000           0   0.00000   0.00000
      2783 IM1H     140      IM1H     H1       HDA3A    0.135000        1.0080           0   0.00000   0.00000
      2784 IM1H     140      IM1H     H2       HDA3A    0.135000        1.0080           0   0.00000   0.00000
      2785 IM1H     140      IM1H     H3       HDA3A    0.135000        1.0080           0   0.00000   0.00000
      2786 IM1H     140      IM1H     N1       ND2R5C   2.357200       13.6070           0   -0.803000   1.00000
      2787 IM1H     140      IM1H     DN1      DRUD    -2.199200        0.4000           0   0.00000   0.00000
      2788 IM1H     140      IM1H     C2       CD2R5D   2.447000       11.6110           0   -1.08300   1.10000
      2789 IM1H     140      IM1H     DC2      DRUD    -2.554000        0.4000           0   0.00000   0.00000
      2790 IM1H     140      IM1H     H4       HDR5D    0.195000        1.0080           0   0.00000   0.00000
      2791 IM1H     140      IM1H     C3       CD2R5D   2.507000       11.6110           0   -1.08300   1.10000
      2792 IM1H     140      IM1H     DC3      DRUD    -2.554000        0.4000           0   0.00000   0.00000
      2793 IM1H     140      IM1H     H5       HDR5D    0.192000        1.0080           0   0.00000   0.00000
      2794 IM1H     140      IM1H     C4       CD2R5E   2.724100       11.6110           0   -1.25300   1.20000
      2795 IM1H     140      IM1H     DC4      DRUD    -2.747100        0.4000           0   0.00000   0.00000
      2796 IM1H     140      IM1H     H6       HDR5E    0.203000        1.0080           0   0.00000   0.00000
      2797 IM1H     140      IM1H     N2       ND2R5C   2.042200       13.6070           0   -0.803000   1.00000
      2798 IM1H     140      IM1H     DN2      DRUD    -2.199200        0.4000           0   0.00000   0.00000
      2799 IM1H     140      IM1H     H7       HDP1A    0.363000        1.0080           0   0.00000   0.00000
      2800 IM1H     140      IM1H     LPN21    LPD      0.000000        0.0000           -1   0.00000   0.00000
      2801 IM1H     141      IM1H     C1       CD33F    2.485000       11.6110           0   -1.18100   1.10000
      2802 IM1H     141      IM1H     DC1      DRUD    -2.667000        0.4000           0   0.00000   0.00000
      2803 IM1H     141      IM1H     H1       HDA3A    0.135000        1.0080           0   0.00000   0.00000
      2804 IM1H     141      IM1H     H2       HDA3A    0.135000        1.0080           0   0.00000   0.00000
      2805 IM1H     141      IM1H     H3       HDA3A    0.135000        1.0080           0   0.00000   0.00000
      2806 IM1H     141      IM1H     N1       ND2R5C   2.357200       13.6070           0   -0.803000   1.00000
      2807 IM1H     141      IM1H     DN1      DRUD    -2.199200        0.4000           0   0.00000   0.00000
      2808 IM1H     141      IM1H     C2       CD2R5D   2.447000       11.6110           0   -1.08300   1.10000
      2809 IM1H     141      IM1H     DC2      DRUD    -2.554000        0.4000           0   0.00000   0.00000
      2810 IM1H     141      IM1H     H4       HDR5D    0.195000        1.0080           0   0.00000   0.00000
      2811 IM1H     141      IM1H     C3       CD2R5D   2.507000       11.6110           0   -1.08300   1.10000
      2812 IM1H     141      IM1H     DC3      DRUD    -2.554000        0.4000           0   0.00000   0.00000
      2813 IM1H     141      IM1H     H5       HDR5D    0.192000        1.0080           0   0.00000   0.00000
      2814 IM1H     141      IM1H     C4       CD2R5E   2.724100       11.6110           0   -1.25300   1.20000
      2815 IM1H     141      IM1H     DC4      DRUD    -2.747100        0.4000           0   0.00000   0.00000
      2816 IM1H     141      IM1H     H6       HDR5E    0.203000        1.0080           0   0.00000   0.00000
      2817 IM1H     141      IM1H     N2       ND2R5C   2.042200       13.6070           0   -0.803000   1.00000
      2818 IM1H     141      IM1H     DN2      DRUD    -2.199200        0.4000           0   0.00000   0.00000
      2819 IM1H     141      IM1H     H7       HDP1A    0.363000        1.0080           0   0.00000   0.00000
      2820 IM1H     141      IM1H     LPN21    LPD      0.000000        0.0000           -1   0.00000   0.00000
      2821 IM1H     142      IM1H     C1       CD33F    2.485000       11.6110           0   -1.18100   1.10000
      2822 IM1H     142      IM1H     DC1      DRUD    -2.667000        0.4000           0   0.00000   0.00000
      2823 IM1H     142      IM1H     H1       HDA3A    0.135000        1.0080           0   0.00000   0.00000
      2824 IM1H     142      IM1H     H2       HDA3A    0.135000        1.0080           0   0.00000   0.00000
      2825 IM1H     142      IM1H     H3       HDA3A    0.135000        1.0080           0   0.00000   0.00000
      2826 IM1H     142      IM1H     N1       ND2R5C   2.357200       13.6070           0   -0.803000   1.00000
      2827 IM1H     142      IM1H     DN1      DRUD    -2.199200        0.4000           0   0.00000   0.00000
      2828 IM1H     142      IM1H     C2       CD2R5D   2.447000       11.6110           0   -1.08300   1.10000
      2829 IM1H     142      IM1H     DC2      DRUD    -2.554000        0.4000           0   0.00000   0.00000
      2830 IM1H     142      IM1H     H4       HDR5D    0.195000        1.0080           0   0.00000   0.00000
      2831 IM1H     142      IM1H     C3       CD2R5D   2.507000       11.6110           0   -1.08300   1.10000
      2832 IM1H     142      IM1H     DC3      DRUD    -2.554000        0.4000           0   0.00000   0.00000
      2833 IM1H     142      IM1H     H5       HDR5D    0.192000        1.0080           0   0.00000   0.00000
      2834 IM1H     142      IM1H     C4       CD2R5E   2.724100       11.6110           0   -1.25300   1.20000
      2835 IM1H     142      IM1H     DC4      DRUD    -2.747100        0.4000           0   0.00000   0.00000
      2836 IM1H     142      IM1H     H6       HDR5E    0.203000        1.0080           0   0.00000   0.00000
      2837 IM1H     142      IM1H     N2       ND2R5C   2.042200       13.6070           0   -0.803000   1.00000
      2838 IM1H     142      IM1H     DN2      DRUD    -2.199200        0.4000           0   0.00000   0.00000
      2839 IM1H     142      IM1H     H7       HDP1A    0.363000        1.0080           0   0.00000   0.00000
      2840 IM1H     142      IM1H     LPN21    LPD      0.000000        0.0000           -1   0.00000   0.00000
      2841 IM1H     143      IM1H     C1       CD33F    2.485000       11.6110           0   -1.18100   1.10000
      2842 IM1H     143      IM1H     DC1      DRUD    -2.667000        0.4000           0   0.00000   0.00000
      2843 IM1H     143      IM1H     H1       HDA3A    0.135000        1.0080           0   0.00000   0.00000
      2844 IM1H     143      IM1H     H2       HDA3A    0.135000        1.0080           0   0.00000   0.00000
      2845 IM1H     143      IM1H     H3       HDA3A    0.135000        1.0080           0   0.00000   0.00000
      2846 IM1H     143      IM1H     N1       ND2R5C   2.357200       13.6070           0   -0.803000   1.00000
      2847 IM1H     143      IM1H     DN1      DRUD    -2.199200        0.4000           0   0.00000   0.00000
      2848 IM1H     143      IM1H     C2       CD2R5D   2.447000       11.6110           0   -1.08300   1.10000
      2849 IM1H     143      IM1H     DC2      DRUD    -2.554000        0.4000           0   0.00000   0.00000
      2850 IM1H     143      IM1H     H4       HDR5D    0.195000        1.0080           0   0.00000   0.00000
      2851 IM1H     143      IM1H     C3       CD2R5D   2.507000       11.6110           0   -1.08300   1.10000
      2852 IM1H     143      IM1H     DC3      DRUD    -2.554000        0.4000           0   0.00000   0.00000
      2853 IM1H     143      IM1H     H5       HDR5D    0.192000        1.0080           0   0.00000   0.00000
      2854 IM1H     143      IM1H     C4       CD2R5E   2.724100       11.6110           0   -1.25300   1.20000
      2855 IM1H     143      IM1H     DC4      DRUD    -2.747100        0.4000           0   0.00000   0.00000
      2856 IM1H     143      IM1H     H6       HDR5E    0.203000        1.0080           0   0.00000   0.00000
      2857 IM1H     143      IM1H     N2       ND2R5C   2.042200       13.6070           0   -0.803000   1.00000
      2858 IM1H     143      IM1H     DN2      DRUD    -2.199200        0.4000           0   0.00000   0.00000
      2859 IM1H     143      IM1H     H7       HDP1A    0.363000        1.0080           0   0.00000   0.00000
      2860 IM1H     143      IM1H     LPN21    LPD      0.000000        0.0000           -1   0.00000   0.00000
      2861 IM1H     144      IM1H     C1       CD33F    2.485000       11.6110           0   -1.18100   1.10000
      2862 IM1H     144      IM1H     DC1      DRUD    -2.667000        0.4000           0   0.00000   0.00000
      2863 IM1H     144      IM1H     H1       HDA3A    0.135000        1.0080           0   0.00000   0.00000
      2864 IM1H     144      IM1H     H2       HDA3A    0.135000        1.0080           0   0.00000   0.00000
      2865 IM1H     144      IM1H     H3       HDA3A    0.135000        1.0080           0   0.00000   0.00000
      2866 IM1H     144      IM1H     N1       ND2R5C   2.357200       13.6070           0   -0.803000   1.00000
      2867 IM1H     144      IM1H     DN1      DRUD    -2.199200        0.4000           0   0.00000   0.00000
      2868 IM1H     144      IM1H     C2       CD2R5D   2.447000       11.6110           0   -1.08300   1.10000
      2869 IM1H     144      IM1H     DC2      DRUD    -2.554000        0.4000           0   0.00000   0.00000
      2870 IM1H     144      IM1H     H4       HDR5D    0.195000        1.0080           0   0.00000   0.00000
      2871 IM1H     144      IM1H     C3       CD2R5D   2.507000       11.6110           0   -1.08300   1.10000
      2872 IM1H     144      IM1H     DC3      DRUD    -2.554000        0.4000           0   0.00000   0.00000
      2873 IM1H     144      IM1H     H5       HDR5D    0.192000        1.0080           0   0.00000   0.00000
      2874 IM1H     144      IM1H     C4       CD2R5E   2.724100       11.6110           0   -1.25300   1.20000
      2875 IM1H     144      IM1H     DC4      DRUD    -2.747100        0.4000           0   0.00000   0.00000
      2876 IM1H     144      IM1H     H6       HDR5E    0.203000        1.0080           0   0.00000   0.00000
      2877 IM1H     144      IM1H     N2       ND2R5C   2.042200       13.6070           0   -0.803000   1.00000
      2878 IM1H     144      IM1H     DN2      DRUD    -2.199200        0.4000           0   0.00000   0.00000
      2879 IM1H     144      IM1H     H7       HDP1A    0.363000        1.0080           0   0.00000   0.00000
      2880 IM1H     144      IM1H     LPN21    LPD      0.000000        0.0000           -1   0.00000   0.00000
      2881 IM1H     145      IM1H     C1       CD33F    2.485000       11.6110           0   -1.18100   1.10000
      2882 IM1H     145      IM1H     DC1      DRUD    -2.667000        0.4000           0   0.00000   0.00000
      2883 IM1H     145      IM1H     H1       HDA3A    0.135000        1.0080           0   0.00000   0.00000
      2884 IM1H     145      IM1H     H2       HDA3A    0.135000        1.0080           0   0.00000   0.00000
      2885 IM1H     145      IM1H     H3       HDA3A    0.135000        1.0080           0   0.00000   0.00000
      2886 IM1H     145      IM1H     N1       ND2R5C   2.357200       13.6070           0   -0.803000   1.00000
      2887 IM1H     145      IM1H     DN1      DRUD    -2.199200        0.4000           0   0.00000   0.00000
      2888 IM1H     145      IM1H     C2       CD2R5D   2.447000       11.6110           0   -1.08300   1.10000
      2889 IM1H     145      IM1H     DC2      DRUD    -2.554000        0.4000           0   0.00000   0.00000
      2890 IM1H     145      IM1H     H4       HDR5D    0.195000        1.0080           0   0.00000   0.00000
      2891 IM1H     145      IM1H     C3       CD2R5D   2.507000       11.6110           0   -1.08300   1.10000
      2892 IM1H     145      IM1H     DC3      DRUD    -2.554000        0.4000           0   0.00000   0.00000
      2893 IM1H     145      IM1H     H5       HDR5D    0.192000        1.0080           0   0.00000   0.00000
      2894 IM1H     145      IM1H     C4       CD2R5E   2.724100       11.6110           0   -1.25300   1.20000
      2895 IM1H     145      IM1H     DC4      DRUD    -2.747100        0.4000           0   0.00000   0.00000
      2896 IM1H     145      IM1H     H6       HDR5E    0.203000        1.0080           0   0.00000   0.00000
      2897 IM1H     145      IM1H     N2       ND2R5C   2.042200       13.6070           0   -0.803000   1.00000
      2898 IM1H     145      IM1H     DN2      DRUD    -2.199200        0.4000           0   0.00000   0.00000
      2899 IM1H     145      IM1H     H7       HDP1A    0.363000        1.0080           0   0.00000   0.00000
      2900 IM1H     145      IM1H     LPN21    LPD      0.000000        0.0000           -1   0.00000   0.00000
      2901 IM1H     146      IM1H     C1       CD33F    2.485000       11.6110           0   -1.18100   1.10000
      2902 IM1H     146      IM1H     DC1      DRUD    -2.667000        0.4000           0   0.00000   0.00000
      2903 IM1H     146      IM1H     H1       HDA3A    0.135000        1.0080           0   0.00000   0.00000
      2904 IM1H     146      IM1H     H2       HDA3A    0.135000        1.0080           0   0.00000   0.00000
      2905 IM1H     146      IM1H     H3       HDA3A    0.135000        1.0080           0   0.00000   0.00000
      2906 IM1H     146      IM1H     N1       ND2R5C   2.357200       13.6070           0   -0.803000   1.00000
      2907 IM1H     146      IM1H     DN1      DRUD    -2.199200        0.4000           0   0.00000   0.00000
      2908 IM1H     146      IM1H     C2       CD2R5D   2.447000       11.6110           0   -1.08300   1.10000
      2909 IM1H     146      IM1H     DC2      DRUD    -2.554000        0.4000           0   0.00000   0.00000
      2910 IM1H     146      IM1H     H4       HDR5D    0.195000        1.0080           0   0.00000   0.00000
      2911 IM1H     146      IM1H     C3       CD2R5D   2.507000       11.6110           0   -1.08300   1.10000
      2912 IM1H     146      IM1H     DC3      DRUD    -2.554000        0.4000           0   0.00000   0.00000
      2913 IM1H     146      IM1H     H5       HDR5D    0.192000        1.0080           0   0.00000   0.00000
      2914 IM1H     146      IM1H     C4       CD2R5E   2.724100       11.6110           0   -1.25300   1.20000
      2915 IM1H     146      IM1H     DC4      DRUD    -2.747100        0.4000           0   0.00000   0.00000
      2916 IM1H     146      IM1H     H6       HDR5E    0.203000        1.0080           0   0.00000   0.00000
      2917 IM1H     146      IM1H     N2       ND2R5C   2.042200       13.6070           0   -0.803000   1.00000
      2918 IM1H     146      IM1H     DN2      DRUD    -2.199200        0.4000           0   0.00000   0.00000
      2919 IM1H     146      IM1H     H7       HDP1A    0.363000        1.0080           0   0.00000   0.00000
      2920 IM1H     146      IM1H     LPN21    LPD      0.000000        0.0000           -1   0.00000   0.00000
      2921 IM1H     147      IM1H     C1       CD33F    2.485000       11.6110           0   -1.18100   1.10000
      2922 IM1H     147      IM1H     DC1      DRUD    -2.667000        0.4000           0   0.00000   0.00000
      2923 IM1H     147      IM1H     H1       HDA3A    0.135000        1.0080           0   0.00000   0.00000
      2924 IM1H     147      IM1H     H2       HDA3A    0.135000        1.0080           0   0.00000   0.00000
      2925 IM1H     147      IM1H     H3       HDA3A    0.135000        1.0080           0   0.00000   0.00000
      2926 IM1H     147      IM1H     N1       ND2R5C   2.357200       13.6070           0   -0.803000   1.00000
      2927 IM1H     147      IM1H     DN1      DRUD    -2.199200        0.4000           0   0.00000   0.00000
      2928 IM1H     147      IM1H     C2       CD2R5D   2.447000       11.6110           0   -1.08300   1.10000
      2929 IM1H     147      IM1H     DC2      DRUD    -2.554000        0.4000           0   0.00000   0.00000
      2930 IM1H     147      IM1H     H4       HDR5D    0.195000        1.0080           0   0.00000   0.00000
      2931 IM1H     147      IM1H     C3       CD2R5D   2.507000       11.6110           0   -1.08300   1.10000
      2932 IM1H     147      IM1H     DC3      DRUD    -2.554000        0.4000           0   0.00000   0.00000
      2933 IM1H     147      IM1H     H5       HDR5D    0.192000        1.0080           0   0.00000   0.00000
      2934 IM1H     147      IM1H     C4       CD2R5E   2.724100       11.6110           0   -1.25300   1.20000
      2935 IM1H     147      IM1H     DC4      DRUD    -2.747100        0.4000           0   0.00000   0.00000
      2936 IM1H     147      IM1H     H6       HDR5E    0.203000        1.0080           0   0.00000   0.00000
      2937 IM1H     147      IM1H     N2       ND2R5C   2.042200       13.6070           0   -0.803000   1.00000
      2938 IM1H     147      IM1H     DN2      DRUD    -2.199200        0.4000           0   0.00000   0.00000
      2939 IM1H     147      IM1H     H7       HDP1A    0.363000        1.0080           0   0.00000   0.00000
      2940 IM1H     147      IM1H     LPN21    LPD      0.000000        0.0000           -1   0.00000   0.00000
      2941 IM1H     148      IM1H     C1       CD33F    2.485000       11.6110           0   -1.18100   1.10000
      2942 IM1H     148      IM1H     DC1      DRUD    -2.667000        0.4000           0   0.00000   0.00000
      2943 IM1H     148      IM1H     H1       HDA3A    0.135000        1.0080           0   0.00000   0.00000
      2944 IM1H     148      IM1H     H2       HDA3A    0.135000        1.0080           0   0.00000   0.00000
      2945 IM1H     148      IM1H     H3       HDA3A    0.135000        1.0080           0   0.00000   0.00000
      2946 IM1H     148      IM1H     N1       ND2R5C   2.357200       13.6070           0   -0.803000   1.00000
      2947 IM1H     148      IM1H     DN1      DRUD    -2.199200        0.4000           0   0.00000   0.00000
      2948 IM1H     148      IM1H     C2       CD2R5D   2.447000       11.6110           0   -1.08300   1.10000
      2949 IM1H     148      IM1H     DC2      DRUD    -2.554000        0.4000           0   0.00000   0.00000
      2950 IM1H     148      IM1H     H4       HDR5D    0.195000        1.0080           0   0.00000   0.00000
      2951 IM1H     148      IM1H     C3       CD2R5D   2.507000       11.6110           0   -1.08300   1.10000
      2952 IM1H     148      IM1H     DC3      DRUD    -2.554000        0.4000           0   0.00000   0.00000
      2953 IM1H     148      IM1H     H5       HDR5D    0.192000        1.0080           0   0.00000   0.00000
      2954 IM1H     148      IM1H     C4       CD2R5E   2.724100       11.6110           0   -1.25300   1.20000
      2955 IM1H     148      IM1H     DC4      DRUD    -2.747100        0.4000           0   0.00000   0.00000
      2956 IM1H     148      IM1H     H6       HDR5E    0.203000        1.0080           0   0.00000   0.00000
      2957 IM1H     148      IM1H     N2       ND2R5C   2.042200       13.6070           0   -0.803000   1.00000
      2958 IM1H     148      IM1H     DN2      DRUD    -2.199200        0.4000           0   0.00000   0.00000
      2959 IM1H     148      IM1H     H7       HDP1A    0.363000        1.0080           0   0.00000   0.00000
      2960 IM1H     148      IM1H     LPN21    LPD      0.000000        0.0000           -1   0.00000   0.00000
      2961 IM1H     149      IM1H     C1       CD33F    2.485000       11.6110           0   -1.18100   1.10000
      2962 IM1H     149      IM1H     DC1      DRUD    -2.667000        0.4000           0   0.00000   0.00000
      2963 IM1H     149      IM1H     H1       HDA3A    0.135000        1.0080           0   0.00000   0.00000
      2964 IM1H     149      IM1H     H2       HDA3A    0.135000        1.0080           0   0.00000   0.00000
      2965 IM1H     149      IM1H     H3       HDA3A    0.135000        1.0080           0   0.00000   0.00000
      2966 IM1H     149      IM1H     N1       ND2R5C   2.357200       13.6070           0   -0.803000   1.00000
      2967 IM1H     149      IM1H     DN1      DRUD    -2.199200        0.4000           0   0.00000   0.00000
      2968 IM1H     149      IM1H     C2       CD2R5D   2.447000       11.6110           0   -1.08300   1.10000
      2969 IM1H     149      IM1H     DC2      DRUD    -2.554000        0.4000           0   0.00000   0.00000
      2970 IM1H     149      IM1H     H4       HDR5D    0.195000        1.0080           0   0.00000   0.00000
      2971 IM1H     149      IM1H     C3       CD2R5D   2.507000       11.6110           0   -1.08300   1.10000
      2972 IM1H     149      IM1H     DC3      DRUD    -2.554000        0.4000           0   0.00000   0.00000
      2973 IM1H     149      IM1H     H5       HDR5D    0.192000        1.0080           0   0.00000   0.00000
      2974 IM1H     149      IM1H     C4       CD2R5E   2.724100       11.6110           0   -1.25300   1.20000
      2975 IM1H     149      IM1H     DC4      DRUD    -2.747100        0.4000           0   0.00000   0.00000
      2976 IM1H     149      IM1H     H6       HDR5E    0.203000        1.0080           0   0.00000   0.00000
      2977 IM1H     149      IM1H     N2       ND2R5C   2.042200       13.6070           0   -0.803000   1.00000
      2978 IM1H     149      IM1H     DN2      DRUD    -2.199200        0.4000           0   0.00000   0.00000
      2979 IM1H     149      IM1H     H7       HDP1A    0.363000        1.0080           0   0.00000   0.00000
      2980 IM1H     149      IM1H     LPN21    LPD      0.000000        0.0000           -1   0.00000   0.00000
      2981 IM1H     150      IM1H     C1       CD33F    2.485000       11.6110           0   -1.18100   1.10000
      2982 IM1H     150      IM1H     DC1      DRUD    -2.667000        0.4000           0   0.00000   0.00000
      2983 IM1H     150      IM1H     H1       HDA3A    0.135000        1.0080           0   0.00000   0.00000
      2984 IM1H     150      IM1H     H2       HDA3A    0.135000        1.0080           0   0.00000   0.00000
      2985 IM1H     150      IM1H     H3       HDA3A    0.135000        1.0080           0   0.00000   0.00000
      2986 IM1H     150      IM1H     N1       ND2R5C   2.357200       13.6070           0   -0.803000   1.00000
      2987 IM1H     150      IM1H     DN1      DRUD    -2.199200        0.4000           0   0.00000   0.00000
      2988 IM1H     150      IM1H     C2       CD2R5D   2.447000       11.6110           0   -1.08300   1.10000
      2989 IM1H     150      IM1H     DC2      DRUD    -2.554000        0.4000           0   0.00000   0.00000
      2990 IM1H     150      IM1H     H4       HDR5D    0.195000        1.0080           0   0.00000   0.00000
      2991 IM1H     150      IM1H     C3       CD2R5D   2.507000       11.6110           0   -1.08300   1.10000
      2992 IM1H     150      IM1H     DC3      DRUD    -2.554000        0.4000           0   0.00000   0.00000
      2993 IM1H     150      IM1H     H5       HDR5D    0.192000        1.0080           0   0.00000   0.00000
      2994 IM1H     150      IM1H     C4       CD2R5E   2.724100       11.6110           0   -1.25300   1.20000
      2995 IM1H     150      IM1H     DC4      DRUD    -2.747100        0.4000           0   0.00000   0.00000
      2996 IM1H     150      IM1H     H6       HDR5E    0.203000        1.0080           0   0.00000   0.00000
      2997 IM1H     150      IM1H     N2       ND2R5C   2.042200       13.6070           0   -0.803000   1.00000
      2998 IM1H     150      IM1H     DN2      DRUD    -2.199200        0.4000           0   0.00000   0.00000
      2999 IM1H     150      IM1H     H7       HDP1A    0.363000        1.0080           0   0.00000   0.00000
      3000 IM1H     150      IM1H     LPN21    LPD      0.000000        0.0000           -1   0.00000   0.00000
      3001 IM1H     151      IM1H     C1       CD33F    2.485000       11.6110           0   -1.18100   1.10000
      3002 IM1H     151      IM1H     DC1      DRUD    -2.667000        0.4000           0   0.00000   0.00000
      3003 IM1H     151      IM1H     H1       HDA3A    0.135000        1.0080           0   0.00000   0.00000
      3004 IM1H     151      IM1H     H2       HDA3A    0.135000        1.0080           0   0.00000   0.00000
      3005 IM1H     151      IM1H     H3       HDA3A    0.135000        1.0080           0   0.00000   0.00000
      3006 IM1H     151      IM1H     N1       ND2R5C   2.357200       13.6070           0   -0.803000   1.00000
      3007 IM1H     151      IM1H     DN1      DRUD    -2.199200        0.4000           0   0.00000   0.00000
      3008 IM1H     151      IM1H     C2       CD2R5D   2.447000       11.6110           0   -1.08300   1.10000
      3009 IM1H     151      IM1H     DC2      DRUD    -2.554000        0.4000           0   0.00000   0.00000
      3010 IM1H     151      IM1H     H4       HDR5D    0.195000        1.0080           0   0.00000   0.00000
      3011 IM1H     151      IM1H     C3       CD2R5D   2.507000       11.6110           0   -1.08300   1.10000
      3012 IM1H     151      IM1H     DC3      DRUD    -2.554000        0.4000           0   0.00000   0.00000
      3013 IM1H     151      IM1H     H5       HDR5D    0.192000        1.0080           0   0.00000   0.00000
      3014 IM1H     151      IM1H     C4       CD2R5E   2.724100       11.6110           0   -1.25300   1.20000
      3015 IM1H     151      IM1H     DC4      DRUD    -2.747100        0.4000           0   0.00000   0.00000
      3016 IM1H     151      IM1H     H6       HDR5E    0.203000        1.0080           0   0.00000   0.00000
      3017 IM1H     151      IM1H     N2       ND2R5C   2.042200       13.6070           0   -0.803000   1.00000
      3018 IM1H     151      IM1H     DN2      DRUD    -2.199200        0.4000           0   0.00000   0.00000
      3019 IM1H     151      IM1H     H7       HDP1A    0.363000        1.0080           0   0.00000   0.00000
      3020 IM1H     151      IM1H     LPN21    LPD      0.000000        0.0000           -1   0.00000   0.00000
      3021 IM1H     152      IM1H     C1       CD33F    2.485000       11.6110           0   -1.18100   1.10000
      3022 IM1H     152      IM1H     DC1      DRUD    -2.667000        0.4000           0   0.00000   0.00000
      3023 IM1H     152      IM1H     H1       HDA3A    0.135000        1.0080           0   0.00000   0.00000
      3024 IM1H     152      IM1H     H2       HDA3A    0.135000        1.0080           0   0.00000   0.00000
      3025 IM1H     152      IM1H     H3       HDA3A    0.135000        1.0080           0   0.00000   0.00000
      3026 IM1H     152      IM1H     N1       ND2R5C   2.357200       13.6070           0   -0.803000   1.00000
      3027 IM1H     152      IM1H     DN1      DRUD    -2.199200        0.4000           0   0.00000   0.00000
      3028 IM1H     152      IM1H     C2       CD2R5D   2.447000       11.6110           0   -1.08300   1.10000
      3029 IM1H     152      IM1H     DC2      DRUD    -2.554000        0.4000           0   0.00000   0.00000
      3030 IM1H     152      IM1H     H4       HDR5D    0.195000        1.0080           0   0.00000   0.00000
      3031 IM1H     152      IM1H     C3       CD2R5D   2.507000       11.6110           0   -1.08300   1.10000
      3032 IM1H     152      IM1H     DC3      DRUD    -2.554000        0.4000           0   0.00000   0.00000
      3033 IM1H     152      IM1H     H5       HDR5D    0.192000        1.0080           0   0.00000   0.00000
      3034 IM1H     152      IM1H     C4       CD2R5E   2.724100       11.6110           0   -1.25300   1.20000
      3035 IM1H     152      IM1H     DC4      DRUD    -2.747100        0.4000           0   0.00000   0.00000
      3036 IM1H     152      IM1H     H6       HDR5E    0.203000        1.0080           0   0.00000   0.00000
      3037 IM1H     152      IM1H     N2       ND2R5C   2.042200       13.6070           0   -0.803000   1.00000
      3038 IM1H     152      IM1H     DN2      DRUD    -2.199200        0.4000           0   0.00000   0.00000
      3039 IM1H     152      IM1H     H7       HDP1A    0.363000        1.0080           0   0.00000   0.00000
      3040 IM1H     152      IM1H     LPN21    LPD      0.000000        0.0000           -1   0.00000   0.00000
      3041 IM1H     153      IM1H     C1       CD33F    2.485000       11.6110           0   -1.18100   1.10000
      3042 IM1H     153      IM1H     DC1      DRUD    -2.667000        0.4000           0   0.00000   0.00000
      3043 IM1H     153      IM1H     H1       HDA3A    0.135000        1.0080           0   0.00000   0.00000
      3044 IM1H     153      IM1H     H2       HDA3A    0.135000        1.0080           0   0.00000   0.00000
      3045 IM1H     153      IM1H     H3       HDA3A    0.135000        1.0080           0   0.00000   0.00000
      3046 IM1H     153      IM1H     N1       ND2R5C   2.357200       13.6070           0   -0.803000   1.00000
      3047 IM1H     153      IM1H     DN1      DRUD    -2.199200        0.4000           0   0.00000   0.00000
      3048 IM1H     153      IM1H     C2       CD2R5D   2.447000       11.6110           0   -1.08300   1.10000
      3049 IM1H     153      IM1H     DC2      DRUD    -2.554000        0.4000           0   0.00000   0.00000
      3050 IM1H     153      IM1H     H4       HDR5D    0.195000        1.0080           0   0.00000   0.00000
      3051 IM1H     153      IM1H     C3       CD2R5D   2.507000       11.6110           0   -1.08300   1.10000
      3052 IM1H     153      IM1H     DC3      DRUD    -2.554000        0.4000           0   0.00000   0.00000
      3053 IM1H     153      IM1H     H5       HDR5D    0.192000        1.0080           0   0.00000   0.00000
      3054 IM1H     153      IM1H     C4       CD2R5E   2.724100       11.6110           0   -1.25300   1.20000
      3055 IM1H     153      IM1H     DC4      DRUD    -2.747100        0.4000           0   0.00000   0.00000
      3056 IM1H     153      IM1H     H6       HDR5E    0.203000        1.0080           0   0.00000   0.00000
      3057 IM1H     153      IM1H     N2       ND2R5C   2.042200       13.6070           0   -0.803000   1.00000
      3058 IM1H     153      IM1H     DN2      DRUD    -2.199200        0.4000           0   0.00000   0.00000
      3059 IM1H     153      IM1H     H7       HDP1A    0.363000        1.0080           0   0.00000   0.00000
      3060 IM1H     153      IM1H     LPN21    LPD      0.000000        0.0000           -1   0.00000   0.00000
      3061 IM1H     154      IM1H     C1       CD33F    2.485000       11.6110           0   -1.18100   1.10000
      3062 IM1H     154      IM1H     DC1      DRUD    -2.667000        0.4000           0   0.00000   0.00000
      3063 IM1H     154      IM1H     H1       HDA3A    0.135000        1.0080           0   0.00000   0.00000
      3064 IM1H     154      IM1H     H2       HDA3A    0.135000        1.0080           0   0.00000   0.00000
      3065 IM1H     154      IM1H     H3       HDA3A    0.135000        1.0080           0   0.00000   0.00000
      3066 IM1H     154      IM1H     N1       ND2R5C   2.357200       13.6070           0   -0.803000   1.00000
      3067 IM1H     154      IM1H     DN1      DRUD    -2.199200        0.4000           0   0.00000   0.00000
      3068 IM1H     154      IM1H     C2       CD2R5D   2.447000       11.6110           0   -1.08300   1.10000
      3069 IM1H     154      IM1H     DC2      DRUD    -2.554000        0.4000           0   0.00000   0.00000
      3070 IM1H     154      IM1H     H4       HDR5D    0.195000        1.0080           0   0.00000   0.00000
      3071 IM1H     154      IM1H     C3       CD2R5D   2.507000       11.6110           0   -1.08300   1.10000
      3072 IM1H     154      IM1H     DC3      DRUD    -2.554000        0.4000           0   0.00000   0.00000
      3073 IM1H     154      IM1H     H5       HDR5D    0.192000        1.0080           0   0.00000   0.00000
      3074 IM1H     154      IM1H     C4       CD2R5E   2.724100       11.6110           0   -1.25300   1.20000
      3075 IM1H     154      IM1H     DC4      DRUD    -2.747100        0.4000           0   0.00000   0.00000
      3076 IM1H     154      IM1H     H6       HDR5E    0.203000        1.0080           0   0.00000   0.00000
      3077 IM1H     154      IM1H     N2       ND2R5C   2.042200       13.6070           0   -0.803000   1.00000
      3078 IM1H     154      IM1H     DN2      DRUD    -2.199200        0.4000           0   0.00000   0.00000
      3079 IM1H     154      IM1H     H7       HDP1A    0.363000        1.0080           0   0.00000   0.00000
      3080 IM1H     154      IM1H     LPN21    LPD      0.000000        0.0000           -1   0.00000   0.00000
      3081 IM1H     155      IM1H     C1       CD33F    2.485000       11.6110           0   -1.18100   1.10000
      3082 IM1H     155      IM1H     DC1      DRUD    -2.667000        0.4000           0   0.00000   0.00000
      3083 IM1H     155      IM1H     H1       HDA3A    0.135000        1.0080           0   0.00000   0.00000
      3084 IM1H     155      IM1H     H2       HDA3A    0.135000        1.0080           0   0.00000   0.00000
      3085 IM1H     155      IM1H     H3       HDA3A    0.135000        1.0080           0   0.00000   0.00000
      3086 IM1H     155      IM1H     N1       ND2R5C   2.357200       13.6070           0   -0.803000   1.00000
      3087 IM1H     155      IM1H     DN1      DRUD    -2.199200        0.4000           0   0.00000   0.00000
      3088 IM1H     155      IM1H     C2       CD2R5D   2.447000       11.6110           0   -1.08300   1.10000
      3089 IM1H     155      IM1H     DC2      DRUD    -2.554000        0.4000           0   0.00000   0.00000
      3090 IM1H     155      IM1H     H4       HDR5D    0.195000        1.0080           0   0.00000   0.00000
      3091 IM1H     155      IM1H     C3       CD2R5D   2.507000       11.6110           0   -1.08300   1.10000
      3092 IM1H     155      IM1H     DC3      DRUD    -2.554000        0.4000           0   0.00000   0.00000
      3093 IM1H     155      IM1H     H5       HDR5D    0.192000        1.0080           0   0.00000   0.00000
      3094 IM1H     155      IM1H     C4       CD2R5E   2.724100       11.6110           0   -1.25300   1.20000
      3095 IM1H     155      IM1H     DC4      DRUD    -2.747100        0.4000           0   0.00000   0.00000
      3096 IM1H     155      IM1H     H6       HDR5E    0.203000        1.0080           0   0.00000   0.00000
      3097 IM1H     155      IM1H     N2       ND2R5C   2.042200       13.6070           0   -0.803000   1.00000
      3098 IM1H     155      IM1H     DN2      DRUD    -2.199200        0.4000           0   0.00000   0.00000
      3099 IM1H     155      IM1H     H7       HDP1A    0.363000        1.0080           0   0.00000   0.00000
      3100 IM1H     155      IM1H     LPN21    LPD      0.000000        0.0000           -1   0.00000   0.00000
      3101 IM1H     156      IM1H     C1       CD33F    2.485000       11.6110           0   -1.18100   1.10000
      3102 IM1H     156      IM1H     DC1      DRUD    -2.667000        0.4000           0   0.00000   0.00000
      3103 IM1H     156      IM1H     H1       HDA3A    0.135000        1.0080           0   0.00000   0.00000
      3104 IM1H     156      IM1H     H2       HDA3A    0.135000        1.0080           0   0.00000   0.00000
      3105 IM1H     156      IM1H     H3       HDA3A    0.135000        1.0080           0   0.00000   0.00000
      3106 IM1H     156      IM1H     N1       ND2R5C   2.357200       13.6070           0   -0.803000   1.00000
      3107 IM1H     156      IM1H     DN1      DRUD    -2.199200        0.4000           0   0.00000   0.00000
      3108 IM1H     156      IM1H     C2       CD2R5D   2.447000       11.6110           0   -1.08300   1.10000
      3109 IM1H     156      IM1H     DC2      DRUD    -2.554000        0.4000           0   0.00000   0.00000
      3110 IM1H     156      IM1H     H4       HDR5D    0.195000        1.0080           0   0.00000   0.00000
      3111 IM1H     156      IM1H     C3       CD2R5D   2.507000       11.6110           0   -1.08300   1.10000
      3112 IM1H     156      IM1H     DC3      DRUD    -2.554000        0.4000           0   0.00000   0.00000
      3113 IM1H     156      IM1H     H5       HDR5D    0.192000        1.0080           0   0.00000   0.00000
      3114 IM1H     156      IM1H     C4       CD2R5E   2.724100       11.6110           0   -1.25300   1.20000
      3115 IM1H     156      IM1H     DC4      DRUD    -2.747100        0.4000           0   0.00000   0.00000
      3116 IM1H     156      IM1H     H6       HDR5E    0.203000        1.0080           0   0.00000   0.00000
      3117 IM1H     156      IM1H     N2       ND2R5C   2.042200       13.6070           0   -0.803000   1.00000
      3118 IM1H     156      IM1H     DN2      DRUD    -2.199200        0.4000           0   0.00000   0.00000
      3119 IM1H     156      IM1H     H7       HDP1A    0.363000        1.0080           0   0.00000   0.00000
      3120 IM1H     156      IM1H     LPN21    LPD      0.000000        0.0000           -1   0.00000   0.00000
      3121 IM1H     157      IM1H     C1       CD33F    2.485000       11.6110           0   -1.18100   1.10000
      3122 IM1H     157      IM1H     DC1      DRUD    -2.667000        0.4000           0   0.00000   0.00000
      3123 IM1H     157      IM1H     H1       HDA3A    0.135000        1.0080           0   0.00000   0.00000
      3124 IM1H     157      IM1H     H2       HDA3A    0.135000        1.0080           0   0.00000   0.00000
      3125 IM1H     157      IM1H     H3       HDA3A    0.135000        1.0080           0   0.00000   0.00000
      3126 IM1H     157      IM1H     N1       ND2R5C   2.357200       13.6070           0   -0.803000   1.00000
      3127 IM1H     157      IM1H     DN1      DRUD    -2.199200        0.4000           0   0.00000   0.00000
      3128 IM1H     157      IM1H     C2       CD2R5D   2.447000       11.6110           0   -1.08300   1.10000
      3129 IM1H     157      IM1H     DC2      DRUD    -2.554000        0.4000           0   0.00000   0.00000
      3130 IM1H     157      IM1H     H4       HDR5D    0.195000        1.0080           0   0.00000   0.00000
      3131 IM1H     157      IM1H     C3       CD2R5D   2.507000       11.6110           0   -1.08300   1.10000
      3132 IM1H     157      IM1H     DC3      DRUD    -2.554000        0.4000           0   0.00000   0.00000
      3133 IM1H     157      IM1H     H5       HDR5D    0.192000        1.0080           0   0.00000   0.00000
      3134 IM1H     157      IM1H     C4       CD2R5E   2.724100       11.6110           0   -1.25300   1.20000
      3135 IM1H     157      IM1H     DC4      DRUD    -2.747100        0.4000           0   0.00000   0.00000
      3136 IM1H     157      IM1H     H6       HDR5E    0.203000        1.0080           0   0.00000   0.00000
      3137 IM1H     157      IM1H     N2       ND2R5C   2.042200       13.6070           0   -0.803000   1.00000
      3138 IM1H     157      IM1H     DN2      DRUD    -2.199200        0.4000           0   0.00000   0.00000
      3139 IM1H     157      IM1H     H7       HDP1A    0.363000        1.0080           0   0.00000   0.00000
      3140 IM1H     157      IM1H     LPN21    LPD      0.000000        0.0000           -1   0.00000   0.00000
      3141 OAC      1        OAC      C1       CD2O2A   3.181700       11.6110           0   -1.01600   0.899000
      3142 OAC      1        OAC      DC1      DRUD    -2.473700        0.4000           0   0.00000   0.00000
      3143 OAC      1        OAC      C2       CD33A    2.987900       11.6110           0   -1.68100   1.41400
      3144 OAC      1        OAC      DC2      DRUD    -3.181900        0.4000           0   0.00000   0.00000
      3145 OAC      1        OAC      H1       HDA3A    0.004000        1.0080           0   0.00000   0.00000
      3146 OAC      1        OAC      H2       HDA3A    0.004000        1.0080           0   0.00000   0.00000
      3147 OAC      1        OAC      H3       HDA3A    0.004000        1.0080           0   0.00000   0.00000
      3148 OAC      1        OAC      O1       OD2C2A   2.054800       15.5994           0   -0.699000   2.39900
      3149 OAC      1        OAC      DO1      DRUD    -2.051800        0.4000           0   0.00000   0.00000
      3150 OAC      1        OAC      O2       OD2C2A   2.054800       15.5994           0   -0.699000   2.39900
      3151 OAC      1        OAC      DO2      DRUD    -2.051800        0.4000           0   0.00000   0.00000
      3152 OAC      1        OAC      H        HDP1A    0.000000        1.0080           0   0.00000   0.00000
      3153 OAC      1        OAC      LPO11    LPD     -0.383000        0.0000           -1   0.00000   0.00000
      3154 OAC      1        OAC      LPO12    LPD     -0.383000        0.0000           -1   0.00000   0.00000
      3155 OAC      1        OAC      LPO21    LPD     -0.383000        0.0000           -1   0.00000   0.00000
      3156 OAC      1        OAC      LPO22    LPD     -0.383000        0.0000           -1   0.00000   0.00000
      3157 OAC      2        OAC      C1       CD2O2A   3.181700       11.6110           0   -1.01600   0.899000
      3158 OAC      2        OAC      DC1      DRUD    -2.473700        0.4000           0   0.00000   0.00000
      3159 OAC      2        OAC      C2       CD33A    2.987900       11.6110           0   -1.68100   1.41400
      3160 OAC      2        OAC      DC2      DRUD    -3.181900        0.4000           0   0.00000   0.00000
      3161 OAC      2        OAC      H1       HDA3A    0.004000        1.0080           0   0.00000   0.00000
      3162 OAC      2        OAC      H2       HDA3A    0.004000        1.0080           0   0.00000   0.00000
      3163 OAC      2        OAC      H3       HDA3A    0.004000        1.0080           0   0.00000   0.00000
      3164 OAC      2        OAC      O1       OD2C2A   2.054800       15.5994           0   -0.699000   2.39900
      3165 OAC      2        OAC      DO1      DRUD    -2.051800        0.4000           0   0.00000   0.00000
      3166 OAC      2        OAC      O2       OD2C2A   2.054800       15.5994           0   -0.699000   2.39900
      3167 OAC      2        OAC      DO2      DRUD    -2.051800        0.4000           0   0.00000   0.00000
      3168 OAC      2        OAC      H        HDP1A    0.000000        1.0080           0   0.00000   0.00000
      3169 OAC      2        OAC      LPO11    LPD     -0.383000        0.0000           -1   0.00000   0.00000
      3170 OAC      2        OAC      LPO12    LPD     -0.383000        0.0000           -1   0.00000   0.00000
      3171 OAC      2        OAC      LPO21    LPD     -0.383000        0.0000           -1   0.00000   0.00000
      3172 OAC      2        OAC      LPO22    LPD     -0.383000        0.0000           -1   0.00000   0.00000
      3173 OAC      3        OAC      C1       CD2O2A   3.181700       11.6110           0   -1.01600   0.899000
      3174 OAC      3        OAC      DC1      DRUD    -2.473700        0.4000           0   0.00000   0.00000
      3175 OAC      3        OAC      C2       CD33A    2.987900       11.6110           0   -1.68100   1.41400
      3176 OAC      3        OAC      DC2      DRUD    -3.181900        0.4000           0   0.00000   0.00000
      3177 OAC      3        OAC      H1       HDA3A    0.004000        1.0080           0   0.00000   0.00000
      3178 OAC      3        OAC      H2       HDA3A    0.004000        1.0080           0   0.00000   0.00000
      3179 OAC      3        OAC      H3       HDA3A    0.004000        1.0080           0   0.00000   0.00000
      3180 OAC      3        OAC      O1       OD2C2A   2.054800       15.5994           0   -0.699000   2.39900
      3181 OAC      3        OAC      DO1      DRUD    -2.051800        0.4000           0   0.00000   0.00000
      3182 OAC      3        OAC      O2       OD2C2A   2.054800       15.5994           0   -0.699000   2.39900
      3183 OAC      3        OAC      DO2      DRUD    -2.051800        0.4000           0   0.00000   0.00000
      3184 OAC      3        OAC      H        HDP1A    0.000000        1.0080           0   0.00000   0.00000
      3185 OAC      3        OAC      LPO11    LPD     -0.383000        0.0000           -1   0.00000   0.00000
      3186 OAC      3        OAC      LPO12    LPD     -0.383000        0.0000           -1   0.00000   0.00000
      3187 OAC      3        OAC      LPO21    LPD     -0.383000        0.0000           -1   0.00000   0.00000
      3188 OAC      3        OAC      LPO22    LPD     -0.383000        0.0000           -1   0.00000   0.00000
      3189 OAC      4        OAC      C1       CD2O2A   3.181700       11.6110           0   -1.01600   0.899000
      3190 OAC      4        OAC      DC1      DRUD    -2.473700        0.4000           0   0.00000   0.00000
      3191 OAC      4        OAC      C2       CD33A    2.987900       11.6110           0   -1.68100   1.41400
      3192 OAC      4        OAC      DC2      DRUD    -3.181900        0.4000           0   0.00000   0.00000
      3193 OAC      4        OAC      H1       HDA3A    0.004000        1.0080           0   0.00000   0.00000
      3194 OAC      4        OAC      H2       HDA3A    0.004000        1.0080           0   0.00000   0.00000
      3195 OAC      4        OAC      H3       HDA3A    0.004000        1.0080           0   0.00000   0.00000
      3196 OAC      4        OAC      O1       OD2C2A   2.054800       15.5994           0   -0.699000   2.39900
      3197 OAC      4        OAC      DO1      DRUD    -2.051800        0.4000           0   0.00000   0.00000
      3198 OAC      4        OAC      O2       OD2C2A   2.054800       15.5994           0   -0.699000   2.39900
      3199 OAC      4        OAC      DO2      DRUD    -2.051800        0.4000           0   0.00000   0.00000
      3200 OAC      4        OAC      H        HDP1A    0.000000        1.0080           0   0.00000   0.00000
      3201 OAC      4        OAC      LPO11    LPD     -0.383000        0.0000           -1   0.00000   0.00000
      3202 OAC      4        OAC      LPO12    LPD     -0.383000        0.0000           -1   0.00000   0.00000
      3203 OAC      4        OAC      LPO21    LPD     -0.383000        0.0000           -1   0.00000   0.00000
      3204 OAC      4        OAC      LPO22    LPD     -0.383000        0.0000           -1   0.00000   0.00000
      3205 OAC      5        OAC      C1       CD2O2A   3.181700       11.6110           0   -1.01600   0.899000
      3206 OAC      5        OAC      DC1      DRUD    -2.473700        0.4000           0   0.00000   0.00000
      3207 OAC      5        OAC      C2       CD33A    2.987900       11.6110           0   -1.68100   1.41400
      3208 OAC      5        OAC      DC2      DRUD    -3.181900        0.4000           0   0.00000   0.00000
      3209 OAC      5        OAC      H1       HDA3A    0.004000        1.0080           0   0.00000   0.00000
      3210 OAC      5        OAC      H2       HDA3A    0.004000        1.0080           0   0.00000   0.00000
      3211 OAC      5        OAC      H3       HDA3A    0.004000        1.0080           0   0.00000   0.00000
      3212 OAC      5        OAC      O1       OD2C2A   2.054800       15.5994           0   -0.699000   2.39900
      3213 OAC      5        OAC      DO1      DRUD    -2.051800        0.4000           0   0.00000   0.00000
      3214 OAC      5        OAC      O2       OD2C2A   2.054800       15.5994           0   -0.699000   2.39900
      3215 OAC      5        OAC      DO2      DRUD    -2.051800        0.4000           0   0.00000   0.00000
      3216 OAC      5        OAC      H        HDP1A    0.000000        1.0080           0   0.00000   0.00000
      3217 OAC      5        OAC      LPO11    LPD     -0.383000        0.0000           -1   0.00000   0.00000
      3218 OAC      5        OAC      LPO12    LPD     -0.383000        0.0000           -1   0.00000   0.00000
      3219 OAC      5        OAC      LPO21    LPD     -0.383000        0.0000           -1   0.00000   0.00000
      3220 OAC      5        OAC      LPO22    LPD     -0.383000        0.0000           -1   0.00000   0.00000
      3221 OAC      6        OAC      C1       CD2O2A   3.181700       11.6110           0   -1.01600   0.899000
      3222 OAC      6        OAC      DC1      DRUD    -2.473700        0.4000           0   0.00000   0.00000
      3223 OAC      6        OAC      C2       CD33A    2.987900       11.6110           0   -1.68100   1.41400
      3224 OAC      6        OAC      DC2      DRUD    -3.181900        0.4000           0   0.00000   0.00000
      3225 OAC      6        OAC      H1       HDA3A    0.004000        1.0080           0   0.00000   0.00000
      3226 OAC      6        OAC      H2       HDA3A    0.004000        1.0080           0   0.00000   0.00000
      3227 OAC      6        OAC      H3       HDA3A    0.004000        1.0080           0   0.00000   0.00000
      3228 OAC      6        OAC      O1       OD2C2A   2.054800       15.5994           0   -0.699000   2.39900
      3229 OAC      6        OAC      DO1      DRUD    -2.051800        0.4000           0   0.00000   0.00000
      3230 OAC      6        OAC      O2       OD2C2A   2.054800       15.5994           0   -0.699000   2.39900
      3231 OAC      6        OAC      DO2      DRUD    -2.051800        0.4000           0   0.00000   0.00000
      3232 OAC      6        OAC      H        HDP1A    0.000000        1.0080           0   0.00000   0.00000
      3233 OAC      6        OAC      LPO11    LPD     -0.383000        0.0000           -1   0.00000   0.00000
      3234 OAC      6        OAC      LPO12    LPD     -0.383000        0.0000           -1   0.00000   0.00000
      3235 OAC      6        OAC      LPO21    LPD     -0.383000        0.0000           -1   0.00000   0.00000
      3236 OAC      6        OAC      LPO22    LPD     -0.383000        0.0000           -1   0.00000   0.00000
      3237 OAC      7        OAC      C1       CD2O2A   3.181700       11.6110           0   -1.01600   0.899000
      3238 OAC      7        OAC      DC1      DRUD    -2.473700        0.4000           0   0.00000   0.00000
      3239 OAC      7        OAC      C2       CD33A    2.987900       11.6110           0   -1.68100   1.41400
      3240 OAC      7        OAC      DC2      DRUD    -3.181900        0.4000           0   0.00000   0.00000
      3241 OAC      7        OAC      H1       HDA3A    0.004000        1.0080           0   0.00000   0.00000
      3242 OAC      7        OAC      H2       HDA3A    0.004000        1.0080           0   0.00000   0.00000
      3243 OAC      7        OAC      H3       HDA3A    0.004000        1.0080           0   0.00000   0.00000
      3244 OAC      7        OAC      O1       OD2C2A   2.054800       15.5994           0   -0.699000   2.39900
      3245 OAC      7        OAC      DO1      DRUD    -2.051800        0.4000           0   0.00000   0.00000
      3246 OAC      7        OAC      O2       OD2C2A   2.054800       15.5994           0   -0.699000   2.39900
      3247 OAC      7        OAC      DO2      DRUD    -2.051800        0.4000           0   0.00000   0.00000
      3248 OAC      7        OAC      H        HDP1A    0.000000        1.0080           0   0.00000   0.00000
      3249 OAC      7        OAC      LPO11    LPD     -0.383000        0.0000           -1   0.00000   0.00000
      3250 OAC      7        OAC      LPO12    LPD     -0.383000        0.0000           -1   0.00000   0.00000
      3251 OAC      7        OAC      LPO21    LPD     -0.383000        0.0000           -1   0.00000   0.00000
      3252 OAC      7        OAC      LPO22    LPD     -0.383000        0.0000           -1   0.00000   0.00000
      3253 OAC      8        OAC      C1       CD2O2A   3.181700       11.6110           0   -1.01600   0.899000
      3254 OAC      8        OAC      DC1      DRUD    -2.473700        0.4000           0   0.00000   0.00000
      3255 OAC      8        OAC      C2       CD33A    2.987900       11.6110           0   -1.68100   1.41400
      3256 OAC      8        OAC      DC2      DRUD    -3.181900        0.4000           0   0.00000   0.00000
      3257 OAC      8        OAC      H1       HDA3A    0.004000        1.0080           0   0.00000   0.00000
      3258 OAC      8        OAC      H2       HDA3A    0.004000        1.0080           0   0.00000   0.00000
      3259 OAC      8        OAC      H3       HDA3A    0.004000        1.0080           0   0.00000   0.00000
      3260 OAC      8        OAC      O1       OD2C2A   2.054800       15.5994           0   -0.699000   2.39900
      3261 OAC      8        OAC      DO1      DRUD    -2.051800        0.4000           0   0.00000   0.00000
      3262 OAC      8        OAC      O2       OD2C2A   2.054800       15.5994           0   -0.699000   2.39900
      3263 OAC      8        OAC      DO2      DRUD    -2.051800        0.4000           0   0.00000   0.00000
      3264 OAC      8        OAC      H        HDP1A    0.000000        1.0080           0   0.00000   0.00000
      3265 OAC      8        OAC      LPO11    LPD     -0.383000        0.0000           -1   0.00000   0.00000
      3266 OAC      8        OAC      LPO12    LPD     -0.383000        0.0000           -1   0.00000   0.00000
      3267 OAC      8        OAC      LPO21    LPD     -0.383000        0.0000           -1   0.00000   0.00000
      3268 OAC      8        OAC      LPO22    LPD     -0.383000        0.0000           -1   0.00000   0.00000
      3269 OAC      9        OAC      C1       CD2O2A   3.181700       11.6110           0   -1.01600   0.899000
      3270 OAC      9        OAC      DC1      DRUD    -2.473700        0.4000           0   0.00000   0.00000
      3271 OAC      9        OAC      C2       CD33A    2.987900       11.6110           0   -1.68100   1.41400
      3272 OAC      9        OAC      DC2      DRUD    -3.181900        0.4000           0   0.00000   0.00000
      3273 OAC      9        OAC      H1       HDA3A    0.004000        1.0080           0   0.00000   0.00000
      3274 OAC      9        OAC      H2       HDA3A    0.004000        1.0080           0   0.00000   0.00000
      3275 OAC      9        OAC      H3       HDA3A    0.004000        1.0080           0   0.00000   0.00000
      3276 OAC      9        OAC      O1       OD2C2A   2.054800       15.5994           0   -0.699000   2.39900
      3277 OAC      9        OAC      DO1      DRUD    -2.051800        0.4000           0   0.00000   0.00000
      3278 OAC      9        OAC      O2       OD2C2A   2.054800       15.5994           0   -0.699000   2.39900
      3279 OAC      9        OAC      DO2      DRUD    -2.051800        0.4000           0   0.00000   0.00000
      3280 OAC      9        OAC      H        HDP1A    0.000000        1.0080           0   0.00000   0.00000
      3281 OAC      9        OAC      LPO11    LPD     -0.383000        0.0000           -1   0.00000   0.00000
      3282 OAC      9        OAC      LPO12    LPD     -0.383000        0.0000           -1   0.00000   0.00000
      3283 OAC      9        OAC      LPO21    LPD     -0.383000        0.0000           -1   0.00000   0.00000
      3284 OAC      9        OAC      LPO22    LPD     -0.383000        0.0000           -1   0.00000   0.00000
      3285 OAC      10       OAC      C1       CD2O2A   3.181700       11.6110           0   -1.01600   0.899000
      3286 OAC      10       OAC      DC1      DRUD    -2.473700        0.4000           0   0.00000   0.00000
      3287 OAC      10       OAC      C2       CD33A    2.987900       11.6110           0   -1.68100   1.41400
      3288 OAC      10       OAC      DC2      DRUD    -3.181900        0.4000           0   0.00000   0.00000
      3289 OAC      10       OAC      H1       HDA3A    0.004000        1.0080           0   0.00000   0.00000
      3290 OAC      10       OAC      H2       HDA3A    0.004000        1.0080           0   0.00000   0.00000
      3291 OAC      10       OAC      H3       HDA3A    0.004000        1.0080           0   0.00000   0.00000
      3292 OAC      10       OAC      O1       OD2C2A   2.054800       15.5994           0   -0.699000   2.39900
      3293 OAC      10       OAC      DO1      DRUD    -2.051800        0.4000           0   0.00000   0.00000
      3294 OAC      10       OAC      O2       OD2C2A   2.054800       15.5994           0   -0.699000   2.39900
      3295 OAC      10       OAC      DO2      DRUD    -2.051800        0.4000           0   0.00000   0.00000
      3296 OAC      10       OAC      H        HDP1A    0.000000        1.0080           0   0.00000   0.00000
      3297 OAC      10       OAC      LPO11    LPD     -0.383000        0.0000           -1   0.00000   0.00000
      3298 OAC      10       OAC      LPO12    LPD     -0.383000        0.0000           -1   0.00000   0.00000
      3299 OAC      10       OAC      LPO21    LPD     -0.383000        0.0000           -1   0.00000   0.00000
      3300 OAC      10       OAC      LPO22    LPD     -0.383000        0.0000           -1   0.00000   0.00000
      3301 OAC      11       OAC      C1       CD2O2A   3.181700       11.6110           0   -1.01600   0.899000
      3302 OAC      11       OAC      DC1      DRUD    -2.473700        0.4000           0   0.00000   0.00000
      3303 OAC      11       OAC      C2       CD33A    2.987900       11.6110           0   -1.68100   1.41400
      3304 OAC      11       OAC      DC2      DRUD    -3.181900        0.4000           0   0.00000   0.00000
      3305 OAC      11       OAC      H1       HDA3A    0.004000        1.0080           0   0.00000   0.00000
      3306 OAC      11       OAC      H2       HDA3A    0.004000        1.0080           0   0.00000   0.00000
      3307 OAC      11       OAC      H3       HDA3A    0.004000        1.0080           0   0.00000   0.00000
      3308 OAC      11       OAC      O1       OD2C2A   2.054800       15.5994           0   -0.699000   2.39900
      3309 OAC      11       OAC      DO1      DRUD    -2.051800        0.4000           0   0.00000   0.00000
      3310 OAC      11       OAC      O2       OD2C2A   2.054800       15.5994           0   -0.699000   2.39900
      3311 OAC      11       OAC      DO2      DRUD    -2.051800        0.4000           0   0.00000   0.00000
      3312 OAC      11       OAC      H        HDP1A    0.000000        1.0080           0   0.00000   0.00000
      3313 OAC      11       OAC      LPO11    LPD     -0.383000        0.0000           -1   0.00000   0.00000
      3314 OAC      11       OAC      LPO12    LPD     -0.383000        0.0000           -1   0.00000   0.00000
      3315 OAC      11       OAC      LPO21    LPD     -0.383000        0.0000           -1   0.00000   0.00000
      3316 OAC      11       OAC      LPO22    LPD     -0.383000        0.0000           -1   0.00000   0.00000
      3317 OAC      12       OAC      C1       CD2O2A   3.181700       11.6110           0   -1.01600   0.899000
      3318 OAC      12       OAC      DC1      DRUD    -2.473700        0.4000           0   0.00000   0.00000
      3319 OAC      12       OAC      C2       CD33A    2.987900       11.6110           0   -1.68100   1.41400
      3320 OAC      12       OAC      DC2      DRUD    -3.181900        0.4000           0   0.00000   0.00000
      3321 OAC      12       OAC      H1       HDA3A    0.004000        1.0080           0   0.00000   0.00000
      3322 OAC      12       OAC      H2       HDA3A    0.004000        1.0080           0   0.00000   0.00000
      3323 OAC      12       OAC      H3       HDA3A    0.004000        1.0080           0   0.00000   0.00000
      3324 OAC      12       OAC      O1       OD2C2A   2.054800       15.5994           0   -0.699000   2.39900
      3325 OAC      12       OAC      DO1      DRUD    -2.051800        0.4000           0   0.00000   0.00000
      3326 OAC      12       OAC      O2       OD2C2A   2.054800       15.5994           0   -0.699000   2.39900
      3327 OAC      12       OAC      DO2      DRUD    -2.051800        0.4000           0   0.00000   0.00000
      3328 OAC      12       OAC      H        HDP1A    0.000000        1.0080           0   0.00000   0.00000
      3329 OAC      12       OAC      LPO11    LPD     -0.383000        0.0000           -1   0.00000   0.00000
      3330 OAC      12       OAC      LPO12    LPD     -0.383000        0.0000           -1   0.00000   0.00000
      3331 OAC      12       OAC      LPO21    LPD     -0.383000        0.0000           -1   0.00000   0.00000
      3332 OAC      12       OAC      LPO22    LPD     -0.383000        0.0000           -1   0.00000   0.00000
      3333 OAC      13       OAC      C1       CD2O2A   3.181700       11.6110           0   -1.01600   0.899000
      3334 OAC      13       OAC      DC1      DRUD    -2.473700        0.4000           0   0.00000   0.00000
      3335 OAC      13       OAC      C2       CD33A    2.987900       11.6110           0   -1.68100   1.41400
      3336 OAC      13       OAC      DC2      DRUD    -3.181900        0.4000           0   0.00000   0.00000
      3337 OAC      13       OAC      H1       HDA3A    0.004000        1.0080           0   0.00000   0.00000
      3338 OAC      13       OAC      H2       HDA3A    0.004000        1.0080           0   0.00000   0.00000
      3339 OAC      13       OAC      H3       HDA3A    0.004000        1.0080           0   0.00000   0.00000
      3340 OAC      13       OAC      O1       OD2C2A   2.054800       15.5994           0   -0.699000   2.39900
      3341 OAC      13       OAC      DO1      DRUD    -2.051800        0.4000           0   0.00000   0.00000
      3342 OAC      13       OAC      O2       OD2C2A   2.054800       15.5994           0   -0.699000   2.39900
      3343 OAC      13       OAC      DO2      DRUD    -2.051800        0.4000           0   0.00000   0.00000
      3344 OAC      13       OAC      H        HDP1A    0.000000        1.0080           0   0.00000   0.00000
      3345 OAC      13       OAC      LPO11    LPD     -0.383000        0.0000           -1   0.00000   0.00000
      3346 OAC      13       OAC      LPO12    LPD     -0.383000        0.0000           -1   0.00000   0.00000
      3347 OAC      13       OAC      LPO21    LPD     -0.383000        0.0000           -1   0.00000   0.00000
      3348 OAC      13       OAC      LPO22    LPD     -0.383000        0.0000           -1   0.00000   0.00000
      3349 OAC      14       OAC      C1       CD2O2A   3.181700       11.6110           0   -1.01600   0.899000
      3350 OAC      14       OAC      DC1      DRUD    -2.473700        0.4000           0   0.00000   0.00000
      3351 OAC      14       OAC      C2       CD33A    2.987900       11.6110           0   -1.68100   1.41400
      3352 OAC      14       OAC      DC2      DRUD    -3.181900        0.4000           0   0.00000   0.00000
      3353 OAC      14       OAC      H1       HDA3A    0.004000        1.0080           0   0.00000   0.00000
      3354 OAC      14       OAC      H2       HDA3A    0.004000        1.0080           0   0.00000   0.00000
      3355 OAC      14       OAC      H3       HDA3A    0.004000        1.0080           0   0.00000   0.00000
      3356 OAC      14       OAC      O1       OD2C2A   2.054800       15.5994           0   -0.699000   2.39900
      3357 OAC      14       OAC      DO1      DRUD    -2.051800        0.4000           0   0.00000   0.00000
      3358 OAC      14       OAC      O2       OD2C2A   2.054800       15.5994           0   -0.699000   2.39900
      3359 OAC      14       OAC      DO2      DRUD    -2.051800        0.4000           0   0.00000   0.00000
      3360 OAC      14       OAC      H        HDP1A    0.000000        1.0080           0   0.00000   0.00000
      3361 OAC      14       OAC      LPO11    LPD     -0.383000        0.0000           -1   0.00000   0.00000
      3362 OAC      14       OAC      LPO12    LPD     -0.383000        0.0000           -1   0.00000   0.00000
      3363 OAC      14       OAC      LPO21    LPD     -0.383000        0.0000           -1   0.00000   0.00000
      3364 OAC      14       OAC      LPO22    LPD     -0.383000        0.0000           -1   0.00000   0.00000
      3365 OAC      15       OAC      C1       CD2O2A   3.181700       11.6110           0   -1.01600   0.899000
      3366 OAC      15       OAC      DC1      DRUD    -2.473700        0.4000           0   0.00000   0.00000
      3367 OAC      15       OAC      C2       CD33A    2.987900       11.6110           0   -1.68100   1.41400
      3368 OAC      15       OAC      DC2      DRUD    -3.181900        0.4000           0   0.00000   0.00000
      3369 OAC      15       OAC      H1       HDA3A    0.004000        1.0080           0   0.00000   0.00000
      3370 OAC      15       OAC      H2       HDA3A    0.004000        1.0080           0   0.00000   0.00000
      3371 OAC      15       OAC      H3       HDA3A    0.004000        1.0080           0   0.00000   0.00000
      3372 OAC      15       OAC      O1       OD2C2A   2.054800       15.5994           0   -0.699000   2.39900
      3373 OAC      15       OAC      DO1      DRUD    -2.051800        0.4000           0   0.00000   0.00000
      3374 OAC      15       OAC      O2       OD2C2A   2.054800       15.5994           0   -0.699000   2.39900
      3375 OAC      15       OAC      DO2      DRUD    -2.051800        0.4000           0   0.00000   0.00000
      3376 OAC      15       OAC      H        HDP1A    0.000000        1.0080           0   0.00000   0.00000
      3377 OAC      15       OAC      LPO11    LPD     -0.383000        0.0000           -1   0.00000   0.00000
      3378 OAC      15       OAC      LPO12    LPD     -0.383000        0.0000           -1   0.00000   0.00000
      3379 OAC      15       OAC      LPO21    LPD     -0.383000        0.0000           -1   0.00000   0.00000
      3380 OAC      15       OAC      LPO22    LPD     -0.383000        0.0000           -1   0.00000   0.00000
      3381 OAC      16       OAC      C1       CD2O2A   3.181700       11.6110           0   -1.01600   0.899000
      3382 OAC      16       OAC      DC1      DRUD    -2.473700        0.4000           0   0.00000   0.00000
      3383 OAC      16       OAC      C2       CD33A    2.987900       11.6110           0   -1.68100   1.41400
      3384 OAC      16       OAC      DC2      DRUD    -3.181900        0.4000           0   0.00000   0.00000
      3385 OAC      16       OAC      H1       HDA3A    0.004000        1.0080           0   0.00000   0.00000
      3386 OAC      16       OAC      H2       HDA3A    0.004000        1.0080           0   0.00000   0.00000
      3387 OAC      16       OAC      H3       HDA3A    0.004000        1.0080           0   0.00000   0.00000
      3388 OAC      16       OAC      O1       OD2C2A   2.054800       15.5994           0   -0.699000   2.39900
      3389 OAC      16       OAC      DO1      DRUD    -2.051800        0.4000           0   0.00000   0.00000
      3390 OAC      16       OAC      O2       OD2C2A   2.054800       15.5994           0   -0.699000   2.39900
      3391 OAC      16       OAC      DO2      DRUD    -2.051800        0.4000           0   0.00000   0.00000
      3392 OAC      16       OAC      H        HDP1A    0.000000        1.0080           0   0.00000   0.00000
      3393 OAC      16       OAC      LPO11    LPD     -0.383000        0.0000           -1   0.00000   0.00000
      3394 OAC      16       OAC      LPO12    LPD     -0.383000        0.0000           -1   0.00000   0.00000
      3395 OAC      16       OAC      LPO21    LPD     -0.383000        0.0000           -1   0.00000   0.00000
      3396 OAC      16       OAC      LPO22    LPD     -0.383000        0.0000           -1   0.00000   0.00000
      3397 OAC      17       OAC      C1       CD2O2A   3.181700       11.6110           0   -1.01600   0.899000
      3398 OAC      17       OAC      DC1      DRUD    -2.473700        0.4000           0   0.00000   0.00000
      3399 OAC      17       OAC      C2       CD33A    2.987900       11.6110           0   -1.68100   1.41400
      3400 OAC      17       OAC      DC2      DRUD    -3.181900        0.4000           0   0.00000   0.00000
      3401 OAC      17       OAC      H1       HDA3A    0.004000        1.0080           0   0.00000   0.00000
      3402 OAC      17       OAC      H2       HDA3A    0.004000        1.0080           0   0.00000   0.00000
      3403 OAC      17       OAC      H3       HDA3A    0.004000        1.0080           0   0.00000   0.00000
      3404 OAC      17       OAC      O1       OD2C2A   2.054800       15.5994           0   -0.699000   2.39900
      3405 OAC      17       OAC      DO1      DRUD    -2.051800        0.4000           0   0.00000   0.00000
      3406 OAC      17       OAC      O2       OD2C2A   2.054800       15.5994           0   -0.699000   2.39900
      3407 OAC      17       OAC      DO2      DRUD    -2.051800        0.4000           0   0.00000   0.00000
      3408 OAC      17       OAC      H        HDP1A    0.000000        1.0080           0   0.00000   0.00000
      3409 OAC      17       OAC      LPO11    LPD     -0.383000        0.0000           -1   0.00000   0.00000
      3410 OAC      17       OAC      LPO12    LPD     -0.383000        0.0000           -1   0.00000   0.00000
      3411 OAC      17       OAC      LPO21    LPD     -0.383000        0.0000           -1   0.00000   0.00000
      3412 OAC      17       OAC      LPO22    LPD     -0.383000        0.0000           -1   0.00000   0.00000
      3413 OAC      18       OAC      C1       CD2O2A   3.181700       11.6110           0   -1.01600   0.899000
      3414 OAC      18       OAC      DC1      DRUD    -2.473700        0.4000           0   0.00000   0.00000
      3415 OAC      18       OAC      C2       CD33A    2.987900       11.6110           0   -1.68100   1.41400
      3416 OAC      18       OAC      DC2      DRUD    -3.181900        0.4000           0   0.00000   0.00000
      3417 OAC      18       OAC      H1       HDA3A    0.004000        1.0080           0   0.00000   0.00000
      3418 OAC      18       OAC      H2       HDA3A    0.004000        1.0080           0   0.00000   0.00000
      3419 OAC      18       OAC      H3       HDA3A    0.004000        1.0080           0   0.00000   0.00000
      3420 OAC      18       OAC      O1       OD2C2A   2.054800       15.5994           0   -0.699000   2.39900
      3421 OAC      18       OAC      DO1      DRUD    -2.051800        0.4000           0   0.00000   0.00000
      3422 OAC      18       OAC      O2       OD2C2A   2.054800       15.5994           0   -0.699000   2.39900
      3423 OAC      18       OAC      DO2      DRUD    -2.051800        0.4000           0   0.00000   0.00000
      3424 OAC      18       OAC      H        HDP1A    0.000000        1.0080           0   0.00000   0.00000
      3425 OAC      18       OAC      LPO11    LPD     -0.383000        0.0000           -1   0.00000   0.00000
      3426 OAC      18       OAC      LPO12    LPD     -0.383000        0.0000           -1   0.00000   0.00000
      3427 OAC      18       OAC      LPO21    LPD     -0.383000        0.0000           -1   0.00000   0.00000
      3428 OAC      18       OAC      LPO22    LPD     -0.383000        0.0000           -1   0.00000   0.00000
      3429 OAC      19       OAC      C1       CD2O2A   3.181700       11.6110           0   -1.01600   0.899000
      3430 OAC      19       OAC      DC1      DRUD    -2.473700        0.4000           0   0.00000   0.00000
      3431 OAC      19       OAC      C2       CD33A    2.987900       11.6110           0   -1.68100   1.41400
      3432 OAC      19       OAC      DC2      DRUD    -3.181900        0.4000           0   0.00000   0.00000
      3433 OAC      19       OAC      H1       HDA3A    0.004000        1.0080           0   0.00000   0.00000
      3434 OAC      19       OAC      H2       HDA3A    0.004000        1.0080           0   0.00000   0.00000
      3435 OAC      19       OAC      H3       HDA3A    0.004000        1.0080           0   0.00000   0.00000
      3436 OAC      19       OAC      O1       OD2C2A   2.054800       15.5994           0   -0.699000   2.39900
      3437 OAC      19       OAC      DO1      DRUD    -2.051800        0.4000           0   0.00000   0.00000
      3438 OAC      19       OAC      O2       OD2C2A   2.054800       15.5994           0   -0.699000   2.39900
      3439 OAC      19       OAC      DO2      DRUD    -2.051800        0.4000           0   0.00000   0.00000
      3440 OAC      19       OAC      H        HDP1A    0.000000        1.0080           0   0.00000   0.00000
      3441 OAC      19       OAC      LPO11    LPD     -0.383000        0.0000           -1   0.00000   0.00000
      3442 OAC      19       OAC      LPO12    LPD     -0.383000        0.0000           -1   0.00000   0.00000
      3443 OAC      19       OAC      LPO21    LPD     -0.383000        0.0000           -1   0.00000   0.00000
      3444 OAC      19       OAC      LPO22    LPD     -0.383000        0.0000           -1   0.00000   0.00000
      3445 OAC      20       OAC      C1       CD2O2A   3.181700       11.6110           0   -1.01600   0.899000
      3446 OAC      20       OAC      DC1      DRUD    -2.473700        0.4000           0   0.00000   0.00000
      3447 OAC      20       OAC      C2       CD33A    2.987900       11.6110           0   -1.68100   1.41400
      3448 OAC      20       OAC      DC2      DRUD    -3.181900        0.4000           0   0.00000   0.00000
      3449 OAC      20       OAC      H1       HDA3A    0.004000        1.0080           0   0.00000   0.00000
      3450 OAC      20       OAC      H2       HDA3A    0.004000        1.0080           0   0.00000   0.00000
      3451 OAC      20       OAC      H3       HDA3A    0.004000        1.0080           0   0.00000   0.00000
      3452 OAC      20       OAC      O1       OD2C2A   2.054800       15.5994           0   -0.699000   2.39900
      3453 OAC      20       OAC      DO1      DRUD    -2.051800        0.4000           0   0.00000   0.00000
      3454 OAC      20       OAC      O2       OD2C2A   2.054800       15.5994           0   -0.699000   2.39900
      3455 OAC      20       OAC      DO2      DRUD    -2.051800        0.4000           0   0.00000   0.00000
      3456 OAC      20       OAC      H        HDP1A    0.000000        1.0080           0   0.00000   0.00000
      3457 OAC      20       OAC      LPO11    LPD     -0.383000        0.0000           -1   0.00000   0.00000
      3458 OAC      20       OAC      LPO12    LPD     -0.383000        0.0000           -1   0.00000   0.00000
      3459 OAC      20       OAC      LPO21    LPD     -0.383000        0.0000           -1   0.00000   0.00000
      3460 OAC      20       OAC      LPO22    LPD     -0.383000        0.0000           -1   0.00000   0.00000
      3461 OAC      21       OAC      C1       CD2O2A   3.181700       11.6110           0   -1.01600   0.899000
      3462 OAC      21       OAC      DC1      DRUD    -2.473700        0.4000           0   0.00000   0.00000
      3463 OAC      21       OAC      C2       CD33A    2.987900       11.6110           0   -1.68100   1.41400
      3464 OAC      21       OAC      DC2      DRUD    -3.181900        0.4000           0   0.00000   0.00000
      3465 OAC      21       OAC      H1       HDA3A    0.004000        1.0080           0   0.00000   0.00000
      3466 OAC      21       OAC      H2       HDA3A    0.004000        1.0080           0   0.00000   0.00000
      3467 OAC      21       OAC      H3       HDA3A    0.004000        1.0080           0   0.00000   0.00000
      3468 OAC      21       OAC      O1       OD2C2A   2.054800       15.5994           0   -0.699000   2.39900
      3469 OAC      21       OAC      DO1      DRUD    -2.051800        0.4000           0   0.00000   0.00000
      3470 OAC      21       OAC      O2       OD2C2A   2.054800       15.5994           0   -0.699000   2.39900
      3471 OAC      21       OAC      DO2      DRUD    -2.051800        0.4000           0   0.00000   0.00000
      3472 OAC      21       OAC      H        HDP1A    0.000000        1.0080           0   0.00000   0.00000
      3473 OAC      21       OAC      LPO11    LPD     -0.383000        0.0000           -1   0.00000   0.00000
      3474 OAC      21       OAC      LPO12    LPD     -0.383000        0.0000           -1   0.00000   0.00000
      3475 OAC      21       OAC      LPO21    LPD     -0.383000        0.0000           -1   0.00000   0.00000
      3476 OAC      21       OAC      LPO22    LPD     -0.383000        0.0000           -1   0.00000   0.00000
      3477 OAC      22       OAC      C1       CD2O2A   3.181700       11.6110           0   -1.01600   0.899000
      3478 OAC      22       OAC      DC1      DRUD    -2.473700        0.4000           0   0.00000   0.00000
      3479 OAC      22       OAC      C2       CD33A    2.987900       11.6110           0   -1.68100   1.41400
      3480 OAC      22       OAC      DC2      DRUD    -3.181900        0.4000           0   0.00000   0.00000
      3481 OAC      22       OAC      H1       HDA3A    0.004000        1.0080           0   0.00000   0.00000
      3482 OAC      22       OAC      H2       HDA3A    0.004000        1.0080           0   0.00000   0.00000
      3483 OAC      22       OAC      H3       HDA3A    0.004000        1.0080           0   0.00000   0.00000
      3484 OAC      22       OAC      O1       OD2C2A   2.054800       15.5994           0   -0.699000   2.39900
      3485 OAC      22       OAC      DO1      DRUD    -2.051800        0.4000           0   0.00000   0.00000
      3486 OAC      22       OAC      O2       OD2C2A   2.054800       15.5994           0   -0.699000   2.39900
      3487 OAC      22       OAC      DO2      DRUD    -2.051800        0.4000           0   0.00000   0.00000
      3488 OAC      22       OAC      H        HDP1A    0.000000        1.0080           0   0.00000   0.00000
      3489 OAC      22       OAC      LPO11    LPD     -0.383000        0.0000           -1   0.00000   0.00000
      3490 OAC      22       OAC      LPO12    LPD     -0.383000        0.0000           -1   0.00000   0.00000
      3491 OAC      22       OAC      LPO21    LPD     -0.383000        0.0000           -1   0.00000   0.00000
      3492 OAC      22       OAC      LPO22    LPD     -0.383000        0.0000           -1   0.00000   0.00000
      3493 OAC      23       OAC      C1       CD2O2A   3.181700       11.6110           0   -1.01600   0.899000
      3494 OAC      23       OAC      DC1      DRUD    -2.473700        0.4000           0   0.00000   0.00000
      3495 OAC      23       OAC      C2       CD33A    2.987900       11.6110           0   -1.68100   1.41400
      3496 OAC      23       OAC      DC2      DRUD    -3.181900        0.4000           0   0.00000   0.00000
      3497 OAC      23       OAC      H1       HDA3A    0.004000        1.0080           0   0.00000   0.00000
      3498 OAC      23       OAC      H2       HDA3A    0.004000        1.0080           0   0.00000   0.00000
      3499 OAC      23       OAC      H3       HDA3A    0.004000        1.0080           0   0.00000   0.00000
      3500 OAC      23       OAC      O1       OD2C2A   2.054800       15.5994           0   -0.699000   2.39900
      3501 OAC      23       OAC      DO1      DRUD    -2.051800        0.4000           0   0.00000   0.00000
      3502 OAC      23       OAC      O2       OD2C2A   2.054800       15.5994           0   -0.699000   2.39900
      3503 OAC      23       OAC      DO2      DRUD    -2.051800        0.4000           0   0.00000   0.00000
      3504 OAC      23       OAC      H        HDP1A    0.000000        1.0080           0   0.00000   0.00000
      3505 OAC      23       OAC      LPO11    LPD     -0.383000        0.0000           -1   0.00000   0.00000
      3506 OAC      23       OAC      LPO12    LPD     -0.383000        0.0000           -1   0.00000   0.00000
      3507 OAC      23       OAC      LPO21    LPD     -0.383000        0.0000           -1   0.00000   0.00000
      3508 OAC      23       OAC      LPO22    LPD     -0.383000        0.0000           -1   0.00000   0.00000
      3509 OAC      24       OAC      C1       CD2O2A   3.181700       11.6110           0   -1.01600   0.899000
      3510 OAC      24       OAC      DC1      DRUD    -2.473700        0.4000           0   0.00000   0.00000
      3511 OAC      24       OAC      C2       CD33A    2.987900       11.6110           0   -1.68100   1.41400
      3512 OAC      24       OAC      DC2      DRUD    -3.181900        0.4000           0   0.00000   0.00000
      3513 OAC      24       OAC      H1       HDA3A    0.004000        1.0080           0   0.00000   0.00000
      3514 OAC      24       OAC      H2       HDA3A    0.004000        1.0080           0   0.00000   0.00000
      3515 OAC      24       OAC      H3       HDA3A    0.004000        1.0080           0   0.00000   0.00000
      3516 OAC      24       OAC      O1       OD2C2A   2.054800       15.5994           0   -0.699000   2.39900
      3517 OAC      24       OAC      DO1      DRUD    -2.051800        0.4000           0   0.00000   0.00000
      3518 OAC      24       OAC      O2       OD2C2A   2.054800       15.5994           0   -0.699000   2.39900
      3519 OAC      24       OAC      DO2      DRUD    -2.051800        0.4000           0   0.00000   0.00000
      3520 OAC      24       OAC      H        HDP1A    0.000000        1.0080           0   0.00000   0.00000
      3521 OAC      24       OAC      LPO11    LPD     -0.383000        0.0000           -1   0.00000   0.00000
      3522 OAC      24       OAC      LPO12    LPD     -0.383000        0.0000           -1   0.00000   0.00000
      3523 OAC      24       OAC      LPO21    LPD     -0.383000        0.0000           -1   0.00000   0.00000
      3524 OAC      24       OAC      LPO22    LPD     -0.383000        0.0000           -1   0.00000   0.00000
      3525 OAC      25       OAC      C1       CD2O2A   3.181700       11.6110           0   -1.01600   0.899000
      3526 OAC      25       OAC      DC1      DRUD    -2.473700        0.4000           0   0.00000   0.00000
      3527 OAC      25       OAC      C2       CD33A    2.987900       11.6110           0   -1.68100   1.41400
      3528 OAC      25       OAC      DC2      DRUD    -3.181900        0.4000           0   0.00000   0.00000
      3529 OAC      25       OAC      H1       HDA3A    0.004000        1.0080           0   0.00000   0.00000
      3530 OAC      25       OAC      H2       HDA3A    0.004000        1.0080           0   0.00000   0.00000
      3531 OAC      25       OAC      H3       HDA3A    0.004000        1.0080           0   0.00000   0.00000
      3532 OAC      25       OAC      O1       OD2C2A   2.054800       15.5994           0   -0.699000   2.39900
      3533 OAC      25       OAC      DO1      DRUD    -2.051800        0.4000           0   0.00000   0.00000
      3534 OAC      25       OAC      O2       OD2C2A   2.054800       15.5994           0   -0.699000   2.39900
      3535 OAC      25       OAC      DO2      DRUD    -2.051800        0.4000           0   0.00000   0.00000
      3536 OAC      25       OAC      H        HDP1A    0.000000        1.0080           0   0.00000   0.00000
      3537 OAC      25       OAC      LPO11    LPD     -0.383000        0.0000           -1   0.00000   0.00000
      3538 OAC      25       OAC      LPO12    LPD     -0.383000        0.0000           -1   0.00000   0.00000
      3539 OAC      25       OAC      LPO21    LPD     -0.383000        0.0000           -1   0.00000   0.00000
      3540 OAC      25       OAC      LPO22    LPD     -0.383000        0.0000           -1   0.00000   0.00000
      3541 OAC      26       OAC      C1       CD2O2A   3.181700       11.6110           0   -1.01600   0.899000
      3542 OAC      26       OAC      DC1      DRUD    -2.473700        0.4000           0   0.00000   0.00000
      3543 OAC      26       OAC      C2       CD33A    2.987900       11.6110           0   -1.68100   1.41400
      3544 OAC      26       OAC      DC2      DRUD    -3.181900        0.4000           0   0.00000   0.00000
      3545 OAC      26       OAC      H1       HDA3A    0.004000        1.0080           0   0.00000   0.00000
      3546 OAC      26       OAC      H2       HDA3A    0.004000        1.0080           0   0.00000   0.00000
      3547 OAC      26       OAC      H3       HDA3A    0.004000        1.0080           0   0.00000   0.00000
      3548 OAC      26       OAC      O1       OD2C2A   2.054800       15.5994           0   -0.699000   2.39900
      3549 OAC      26       OAC      DO1      DRUD    -2.051800        0.4000           0   0.00000   0.00000
      3550 OAC      26       OAC      O2       OD2C2A   2.054800       15.5994           0   -0.699000   2.39900
      3551 OAC      26       OAC      DO2      DRUD    -2.051800        0.4000           0   0.00000   0.00000
      3552 OAC      26       OAC      H        HDP1A    0.000000        1.0080           0   0.00000   0.00000
      3553 OAC      26       OAC      LPO11    LPD     -0.383000        0.0000           -1   0.00000   0.00000
      3554 OAC      26       OAC      LPO12    LPD     -0.383000        0.0000           -1   0.00000   0.00000
      3555 OAC      26       OAC      LPO21    LPD     -0.383000        0.0000           -1   0.00000   0.00000
      3556 OAC      26       OAC      LPO22    LPD     -0.383000        0.0000           -1   0.00000   0.00000
      3557 OAC      27       OAC      C1       CD2O2A   3.181700       11.6110           0   -1.01600   0.899000
      3558 OAC      27       OAC      DC1      DRUD    -2.473700        0.4000           0   0.00000   0.00000
      3559 OAC      27       OAC      C2       CD33A    2.987900       11.6110           0   -1.68100   1.41400
      3560 OAC      27       OAC      DC2      DRUD    -3.181900        0.4000           0   0.00000   0.00000
      3561 OAC      27       OAC      H1       HDA3A    0.004000        1.0080           0   0.00000   0.00000
      3562 OAC      27       OAC      H2       HDA3A    0.004000        1.0080           0   0.00000   0.00000
      3563 OAC      27       OAC      H3       HDA3A    0.004000        1.0080           0   0.00000   0.00000
      3564 OAC      27       OAC      O1       OD2C2A   2.054800       15.5994           0   -0.699000   2.39900
      3565 OAC      27       OAC      DO1      DRUD    -2.051800        0.4000           0   0.00000   0.00000
      3566 OAC      27       OAC      O2       OD2C2A   2.054800       15.5994           0   -0.699000   2.39900
      3567 OAC      27       OAC      DO2      DRUD    -2.051800        0.4000           0   0.00000   0.00000
      3568 OAC      27       OAC      H        HDP1A    0.000000        1.0080           0   0.00000   0.00000
      3569 OAC      27       OAC      LPO11    LPD     -0.383000        0.0000           -1   0.00000   0.00000
      3570 OAC      27       OAC      LPO12    LPD     -0.383000        0.0000           -1   0.00000   0.00000
      3571 OAC      27       OAC      LPO21    LPD     -0.383000        0.0000           -1   0.00000   0.00000
      3572 OAC      27       OAC      LPO22    LPD     -0.383000        0.0000           -1   0.00000   0.00000
      3573 OAC      28       OAC      C1       CD2O2A   3.181700       11.6110           0   -1.01600   0.899000
      3574 OAC      28       OAC      DC1      DRUD    -2.473700        0.4000           0   0.00000   0.00000
      3575 OAC      28       OAC      C2       CD33A    2.987900       11.6110           0   -1.68100   1.41400
      3576 OAC      28       OAC      DC2      DRUD    -3.181900        0.4000           0   0.00000   0.00000
      3577 OAC      28       OAC      H1       HDA3A    0.004000        1.0080           0   0.00000   0.00000
      3578 OAC      28       OAC      H2       HDA3A    0.004000        1.0080           0   0.00000   0.00000
      3579 OAC      28       OAC      H3       HDA3A    0.004000        1.0080           0   0.00000   0.00000
      3580 OAC      28       OAC      O1       OD2C2A   2.054800       15.5994           0   -0.699000   2.39900
      3581 OAC      28       OAC      DO1      DRUD    -2.051800        0.4000           0   0.00000   0.00000
      3582 OAC      28       OAC      O2       OD2C2A   2.054800       15.5994           0   -0.699000   2.39900
      3583 OAC      28       OAC      DO2      DRUD    -2.051800        0.4000           0   0.00000   0.00000
      3584 OAC      28       OAC      H        HDP1A    0.000000        1.0080           0   0.00000   0.00000
      3585 OAC      28       OAC      LPO11    LPD     -0.383000        0.0000           -1   0.00000   0.00000
      3586 OAC      28       OAC      LPO12    LPD     -0.383000        0.0000           -1   0.00000   0.00000
      3587 OAC      28       OAC      LPO21    LPD     -0.383000        0.0000           -1   0.00000   0.00000
      3588 OAC      28       OAC      LPO22    LPD     -0.383000        0.0000           -1   0.00000   0.00000
      3589 OAC      29       OAC      C1       CD2O2A   3.181700       11.6110           0   -1.01600   0.899000
      3590 OAC      29       OAC      DC1      DRUD    -2.473700        0.4000           0   0.00000   0.00000
      3591 OAC      29       OAC      C2       CD33A    2.987900       11.6110           0   -1.68100   1.41400
      3592 OAC      29       OAC      DC2      DRUD    -3.181900        0.4000           0   0.00000   0.00000
      3593 OAC      29       OAC      H1       HDA3A    0.004000        1.0080           0   0.00000   0.00000
      3594 OAC      29       OAC      H2       HDA3A    0.004000        1.0080           0   0.00000   0.00000
      3595 OAC      29       OAC      H3       HDA3A    0.004000        1.0080           0   0.00000   0.00000
      3596 OAC      29       OAC      O1       OD2C2A   2.054800       15.5994           0   -0.699000   2.39900
      3597 OAC      29       OAC      DO1      DRUD    -2.051800        0.4000           0   0.00000   0.00000
      3598 OAC      29       OAC      O2       OD2C2A   2.054800       15.5994           0   -0.699000   2.39900
      3599 OAC      29       OAC      DO2      DRUD    -2.051800        0.4000           0   0.00000   0.00000
      3600 OAC      29       OAC      H        HDP1A    0.000000        1.0080           0   0.00000   0.00000
      3601 OAC      29       OAC      LPO11    LPD     -0.383000        0.0000           -1   0.00000   0.00000
      3602 OAC      29       OAC      LPO12    LPD     -0.383000        0.0000           -1   0.00000   0.00000
      3603 OAC      29       OAC      LPO21    LPD     -0.383000        0.0000           -1   0.00000   0.00000
      3604 OAC      29       OAC      LPO22    LPD     -0.383000        0.0000           -1   0.00000   0.00000
      3605 OAC      30       OAC      C1       CD2O2A   3.181700       11.6110           0   -1.01600   0.899000
      3606 OAC      30       OAC      DC1      DRUD    -2.473700        0.4000           0   0.00000   0.00000
      3607 OAC      30       OAC      C2       CD33A    2.987900       11.6110           0   -1.68100   1.41400
      3608 OAC      30       OAC      DC2      DRUD    -3.181900        0.4000           0   0.00000   0.00000
      3609 OAC      30       OAC      H1       HDA3A    0.004000        1.0080           0   0.00000   0.00000
      3610 OAC      30       OAC      H2       HDA3A    0.004000        1.0080           0   0.00000   0.00000
      3611 OAC      30       OAC      H3       HDA3A    0.004000        1.0080           0   0.00000   0.00000
      3612 OAC      30       OAC      O1       OD2C2A   2.054800       15.5994           0   -0.699000   2.39900
      3613 OAC      30       OAC      DO1      DRUD    -2.051800        0.4000           0   0.00000   0.00000
      3614 OAC      30       OAC      O2       OD2C2A   2.054800       15.5994           0   -0.699000   2.39900
      3615 OAC      30       OAC      DO2      DRUD    -2.051800        0.4000           0   0.00000   0.00000
      3616 OAC      30       OAC      H        HDP1A    0.000000        1.0080           0   0.00000   0.00000
      3617 OAC      30       OAC      LPO11    LPD     -0.383000        0.0000           -1   0.00000   0.00000
      3618 OAC      30       OAC      LPO12    LPD     -0.383000        0.0000           -1   0.00000   0.00000
      3619 OAC      30       OAC      LPO21    LPD     -0.383000        0.0000           -1   0.00000   0.00000
      3620 OAC      30       OAC      LPO22    LPD     -0.383000        0.0000           -1   0.00000   0.00000
      3621 OAC      31       OAC      C1       CD2O2A   3.181700       11.6110           0   -1.01600   0.899000
      3622 OAC      31       OAC      DC1      DRUD    -2.473700        0.4000           0   0.00000   0.00000
      3623 OAC      31       OAC      C2       CD33A    2.987900       11.6110           0   -1.68100   1.41400
      3624 OAC      31       OAC      DC2      DRUD    -3.181900        0.4000           0   0.00000   0.00000
      3625 OAC      31       OAC      H1       HDA3A    0.004000        1.0080           0   0.00000   0.00000
      3626 OAC      31       OAC      H2       HDA3A    0.004000        1.0080           0   0.00000   0.00000
      3627 OAC      31       OAC      H3       HDA3A    0.004000        1.0080           0   0.00000   0.00000
      3628 OAC      31       OAC      O1       OD2C2A   2.054800       15.5994           0   -0.699000   2.39900
      3629 OAC      31       OAC      DO1      DRUD    -2.051800        0.4000           0   0.00000   0.00000
      3630 OAC      31       OAC      O2       OD2C2A   2.054800       15.5994           0   -0.699000   2.39900
      3631 OAC      31       OAC      DO2      DRUD    -2.051800        0.4000           0   0.00000   0.00000
      3632 OAC      31       OAC      H        HDP1A    0.000000        1.0080           0   0.00000   0.00000
      3633 OAC      31       OAC      LPO11    LPD     -0.383000        0.0000           -1   0.00000   0.00000
      3634 OAC      31       OAC      LPO12    LPD     -0.383000        0.0000           -1   0.00000   0.00000
      3635 OAC      31       OAC      LPO21    LPD     -0.383000        0.0000           -1   0.00000   0.00000
      3636 OAC      31       OAC      LPO22    LPD     -0.383000        0.0000           -1   0.00000   0.00000
      3637 OAC      32       OAC      C1       CD2O2A   3.181700       11.6110           0   -1.01600   0.899000
      3638 OAC      32       OAC      DC1      DRUD    -2.473700        0.4000           0   0.00000   0.00000
      3639 OAC      32       OAC      C2       CD33A    2.987900       11.6110           0   -1.68100   1.41400
      3640 OAC      32       OAC      DC2      DRUD    -3.181900        0.4000           0   0.00000   0.00000
      3641 OAC      32       OAC      H1       HDA3A    0.004000        1.0080           0   0.00000   0.00000
      3642 OAC      32       OAC      H2       HDA3A    0.004000        1.0080           0   0.00000   0.00000
      3643 OAC      32       OAC      H3       HDA3A    0.004000        1.0080           0   0.00000   0.00000
      3644 OAC      32       OAC      O1       OD2C2A   2.054800       15.5994           0   -0.699000   2.39900
      3645 OAC      32       OAC      DO1      DRUD    -2.051800        0.4000           0   0.00000   0.00000
      3646 OAC      32       OAC      O2       OD2C2A   2.054800       15.5994           0   -0.699000   2.39900
      3647 OAC      32       OAC      DO2      DRUD    -2.051800        0.4000           0   0.00000   0.00000
      3648 OAC      32       OAC      H        HDP1A    0.000000        1.0080           0   0.00000   0.00000
      3649 OAC      32       OAC      LPO11    LPD     -0.383000        0.0000           -1   0.00000   0.00000
      3650 OAC      32       OAC      LPO12    LPD     -0.383000        0.0000           -1   0.00000   0.00000
      3651 OAC      32       OAC      LPO21    LPD     -0.383000        0.0000           -1   0.00000   0.00000
      3652 OAC      32       OAC      LPO22    LPD     -0.383000        0.0000           -1   0.00000   0.00000
      3653 OAC      33       OAC      C1       CD2O2A   3.181700       11.6110           0   -1.01600   0.899000
      3654 OAC      33       OAC      DC1      DRUD    -2.473700        0.4000           0   0.00000   0.00000
      3655 OAC      33       OAC      C2       CD33A    2.987900       11.6110           0   -1.68100   1.41400
      3656 OAC      33       OAC      DC2      DRUD    -3.181900        0.4000           0   0.00000   0.00000
      3657 OAC      33       OAC      H1       HDA3A    0.004000        1.0080           0   0.00000   0.00000
      3658 OAC      33       OAC      H2       HDA3A    0.004000        1.0080           0   0.00000   0.00000
      3659 OAC      33       OAC      H3       HDA3A    0.004000        1.0080           0   0.00000   0.00000
      3660 OAC      33       OAC      O1       OD2C2A   2.054800       15.5994           0   -0.699000   2.39900
      3661 OAC      33       OAC      DO1      DRUD    -2.051800        0.4000           0   0.00000   0.00000
      3662 OAC      33       OAC      O2       OD2C2A   2.054800       15.5994           0   -0.699000   2.39900
      3663 OAC      33       OAC      DO2      DRUD    -2.051800        0.4000           0   0.00000   0.00000
      3664 OAC      33       OAC      H        HDP1A    0.000000        1.0080           0   0.00000   0.00000
      3665 OAC      33       OAC      LPO11    LPD     -0.383000        0.0000           -1   0.00000   0.00000
      3666 OAC      33       OAC      LPO12    LPD     -0.383000        0.0000           -1   0.00000   0.00000
      3667 OAC      33       OAC      LPO21    LPD     -0.383000        0.0000           -1   0.00000   0.00000
      3668 OAC      33       OAC      LPO22    LPD     -0.383000        0.0000           -1   0.00000   0.00000
      3669 OAC      34       OAC      C1       CD2O2A   3.181700       11.6110           0   -1.01600   0.899000
      3670 OAC      34       OAC      DC1      DRUD    -2.473700        0.4000           0   0.00000   0.00000
      3671 OAC      34       OAC      C2       CD33A    2.987900       11.6110           0   -1.68100   1.41400
      3672 OAC      34       OAC      DC2      DRUD    -3.181900        0.4000           0   0.00000   0.00000
      3673 OAC      34       OAC      H1       HDA3A    0.004000        1.0080           0   0.00000   0.00000
      3674 OAC      34       OAC      H2       HDA3A    0.004000        1.0080           0   0.00000   0.00000
      3675 OAC      34       OAC      H3       HDA3A    0.004000        1.0080           0   0.00000   0.00000
      3676 OAC      34       OAC      O1       OD2C2A   2.054800       15.5994           0   -0.699000   2.39900
      3677 OAC      34       OAC      DO1      DRUD    -2.051800        0.4000           0   0.00000   0.00000
      3678 OAC      34       OAC      O2       OD2C2A   2.054800       15.5994           0   -0.699000   2.39900
      3679 OAC      34       OAC      DO2      DRUD    -2.051800        0.4000           0   0.00000   0.00000
      3680 OAC      34       OAC      H        HDP1A    0.000000        1.0080           0   0.00000   0.00000
      3681 OAC      34       OAC      LPO11    LPD     -0.383000        0.0000           -1   0.00000   0.00000
      3682 OAC      34       OAC      LPO12    LPD     -0.383000        0.0000           -1   0.00000   0.00000
      3683 OAC      34       OAC      LPO21    LPD     -0.383000        0.0000           -1   0.00000   0.00000
      3684 OAC      34       OAC      LPO22    LPD     -0.383000        0.0000           -1   0.00000   0.00000
      3685 OAC      35       OAC      C1       CD2O2A   3.181700       11.6110           0   -1.01600   0.899000
      3686 OAC      35       OAC      DC1      DRUD    -2.473700        0.4000           0   0.00000   0.00000
      3687 OAC      35       OAC      C2       CD33A    2.987900       11.6110           0   -1.68100   1.41400
      3688 OAC      35       OAC      DC2      DRUD    -3.181900        0.4000           0   0.00000   0.00000
      3689 OAC      35       OAC      H1       HDA3A    0.004000        1.0080           0   0.00000   0.00000
      3690 OAC      35       OAC      H2       HDA3A    0.004000        1.0080           0   0.00000   0.00000
      3691 OAC      35       OAC      H3       HDA3A    0.004000        1.0080           0   0.00000   0.00000
      3692 OAC      35       OAC      O1       OD2C2A   2.054800       15.5994           0   -0.699000   2.39900
      3693 OAC      35       OAC      DO1      DRUD    -2.051800        0.4000           0   0.00000   0.00000
      3694 OAC      35       OAC      O2       OD2C2A   2.054800       15.5994           0   -0.699000   2.39900
      3695 OAC      35       OAC      DO2      DRUD    -2.051800        0.4000           0   0.00000   0.00000
      3696 OAC      35       OAC      H        HDP1A    0.000000        1.0080           0   0.00000   0.00000
      3697 OAC      35       OAC      LPO11    LPD     -0.383000        0.0000           -1   0.00000   0.00000
      3698 OAC      35       OAC      LPO12    LPD     -0.383000        0.0000           -1   0.00000   0.00000
      3699 OAC      35       OAC      LPO21    LPD     -0.383000        0.0000           -1   0.00000   0.00000
      3700 OAC      35       OAC      LPO22    LPD     -0.383000        0.0000           -1   0.00000   0.00000
      3701 OAC      36       OAC      C1       CD2O2A   3.181700       11.6110           0   -1.01600   0.899000
      3702 OAC      36       OAC      DC1      DRUD    -2.473700        0.4000           0   0.00000   0.00000
      3703 OAC      36       OAC      C2       CD33A    2.987900       11.6110           0   -1.68100   1.41400
      3704 OAC      36       OAC      DC2      DRUD    -3.181900        0.4000           0   0.00000   0.00000
      3705 OAC      36       OAC      H1       HDA3A    0.004000        1.0080           0   0.00000   0.00000
      3706 OAC      36       OAC      H2       HDA3A    0.004000        1.0080           0   0.00000   0.00000
      3707 OAC      36       OAC      H3       HDA3A    0.004000        1.0080           0   0.00000   0.00000
      3708 OAC      36       OAC      O1       OD2C2A   2.054800       15.5994           0   -0.699000   2.39900
      3709 OAC      36       OAC      DO1      DRUD    -2.051800        0.4000           0   0.00000   0.00000
      3710 OAC      36       OAC      O2       OD2C2A   2.054800       15.5994           0   -0.699000   2.39900
      3711 OAC      36       OAC      DO2      DRUD    -2.051800        0.4000           0   0.00000   0.00000
      3712 OAC      36       OAC      H        HDP1A    0.000000        1.0080           0   0.00000   0.00000
      3713 OAC      36       OAC      LPO11    LPD     -0.383000        0.0000           -1   0.00000   0.00000
      3714 OAC      36       OAC      LPO12    LPD     -0.383000        0.0000           -1   0.00000   0.00000
      3715 OAC      36       OAC      LPO21    LPD     -0.383000        0.0000           -1   0.00000   0.00000
      3716 OAC      36       OAC      LPO22    LPD     -0.383000        0.0000           -1   0.00000   0.00000
      3717 OAC      37       OAC      C1       CD2O2A   3.181700       11.6110           0   -1.01600   0.899000
      3718 OAC      37       OAC      DC1      DRUD    -2.473700        0.4000           0   0.00000   0.00000
      3719 OAC      37       OAC      C2       CD33A    2.987900       11.6110           0   -1.68100   1.41400
      3720 OAC      37       OAC      DC2      DRUD    -3.181900        0.4000           0   0.00000   0.00000
      3721 OAC      37       OAC      H1       HDA3A    0.004000        1.0080           0   0.00000   0.00000
      3722 OAC      37       OAC      H2       HDA3A    0.004000        1.0080           0   0.00000   0.00000
      3723 OAC      37       OAC      H3       HDA3A    0.004000        1.0080           0   0.00000   0.00000
      3724 OAC      37       OAC      O1       OD2C2A   2.054800       15.5994           0   -0.699000   2.39900
      3725 OAC      37       OAC      DO1      DRUD    -2.051800        0.4000           0   0.00000   0.00000
      3726 OAC      37       OAC      O2       OD2C2A   2.054800       15.5994           0   -0.699000   2.39900
      3727 OAC      37       OAC      DO2      DRUD    -2.051800        0.4000           0   0.00000   0.00000
      3728 OAC      37       OAC      H        HDP1A    0.000000        1.0080           0   0.00000   0.00000
      3729 OAC      37       OAC      LPO11    LPD     -0.383000        0.0000           -1   0.00000   0.00000
      3730 OAC      37       OAC      LPO12    LPD     -0.383000        0.0000           -1   0.00000   0.00000
      3731 OAC      37       OAC      LPO21    LPD     -0.383000        0.0000           -1   0.00000   0.00000
      3732 OAC      37       OAC      LPO22    LPD     -0.383000        0.0000           -1   0.00000   0.00000
      3733 OAC      38       OAC      C1       CD2O2A   3.181700       11.6110           0   -1.01600   0.899000
      3734 OAC      38       OAC      DC1      DRUD    -2.473700        0.4000           0   0.00000   0.00000
      3735 OAC      38       OAC      C2       CD33A    2.987900       11.6110           0   -1.68100   1.41400
      3736 OAC      38       OAC      DC2      DRUD    -3.181900        0.4000           0   0.00000   0.00000
      3737 OAC      38       OAC      H1       HDA3A    0.004000        1.0080           0   0.00000   0.00000
      3738 OAC      38       OAC      H2       HDA3A    0.004000        1.0080           0   0.00000   0.00000
      3739 OAC      38       OAC      H3       HDA3A    0.004000        1.0080           0   0.00000   0.00000
      3740 OAC      38       OAC      O1       OD2C2A   2.054800       15.5994           0   -0.699000   2.39900
      3741 OAC      38       OAC      DO1      DRUD    -2.051800        0.4000           0   0.00000   0.00000
      3742 OAC      38       OAC      O2       OD2C2A   2.054800       15.5994           0   -0.699000   2.39900
      3743 OAC      38       OAC      DO2      DRUD    -2.051800        0.4000           0   0.00000   0.00000
      3744 OAC      38       OAC      H        HDP1A    0.000000        1.0080           0   0.00000   0.00000
      3745 OAC      38       OAC      LPO11    LPD     -0.383000        0.0000           -1   0.00000   0.00000
      3746 OAC      38       OAC      LPO12    LPD     -0.383000        0.0000           -1   0.00000   0.00000
      3747 OAC      38       OAC      LPO21    LPD     -0.383000        0.0000           -1   0.00000   0.00000
      3748 OAC      38       OAC      LPO22    LPD     -0.383000        0.0000           -1   0.00000   0.00000
      3749 OAC      39       OAC      C1       CD2O2A   3.181700       11.6110           0   -1.01600   0.899000
      3750 OAC      39       OAC      DC1      DRUD    -2.473700        0.4000           0   0.00000   0.00000
      3751 OAC      39       OAC      C2       CD33A    2.987900       11.6110           0   -1.68100   1.41400
      3752 OAC      39       OAC      DC2      DRUD    -3.181900        0.4000           0   0.00000   0.00000
      3753 OAC      39       OAC      H1       HDA3A    0.004000        1.0080           0   0.00000   0.00000
      3754 OAC      39       OAC      H2       HDA3A    0.004000        1.0080           0   0.00000   0.00000
      3755 OAC      39       OAC      H3       HDA3A    0.004000        1.0080           0   0.00000   0.00000
      3756 OAC      39       OAC      O1       OD2C2A   2.054800       15.5994           0   -0.699000   2.39900
      3757 OAC      39       OAC      DO1      DRUD    -2.051800        0.4000           0   0.00000   0.00000
      3758 OAC      39       OAC      O2       OD2C2A   2.054800       15.5994           0   -0.699000   2.39900
      3759 OAC      39       OAC      DO2      DRUD    -2.051800        0.4000           0   0.00000   0.00000
      3760 OAC      39       OAC      H        HDP1A    0.000000        1.0080           0   0.00000   0.00000
      3761 OAC      39       OAC      LPO11    LPD     -0.383000        0.0000           -1   0.00000   0.00000
      3762 OAC      39       OAC      LPO12    LPD     -0.383000        0.0000           -1   0.00000   0.00000
      3763 OAC      39       OAC      LPO21    LPD     -0.383000        0.0000           -1   0.00000   0.00000
      3764 OAC      39       OAC      LPO22    LPD     -0.383000        0.0000           -1   0.00000   0.00000
      3765 OAC      40       OAC      C1       CD2O2A   3.181700       11.6110           0   -1.01600   0.899000
      3766 OAC      40       OAC      DC1      DRUD    -2.473700        0.4000           0   0.00000   0.00000
      3767 OAC      40       OAC      C2       CD33A    2.987900       11.6110           0   -1.68100   1.41400
      3768 OAC      40       OAC      DC2      DRUD    -3.181900        0.4000           0   0.00000   0.00000
      3769 OAC      40       OAC      H1       HDA3A    0.004000        1.0080           0   0.00000   0.00000
      3770 OAC      40       OAC      H2       HDA3A    0.004000        1.0080           0   0.00000   0.00000
      3771 OAC      40       OAC      H3       HDA3A    0.004000        1.0080           0   0.00000   0.00000
      3772 OAC      40       OAC      O1       OD2C2A   2.054800       15.5994           0   -0.699000   2.39900
      3773 OAC      40       OAC      DO1      DRUD    -2.051800        0.4000           0   0.00000   0.00000
      3774 OAC      40       OAC      O2       OD2C2A   2.054800       15.5994           0   -0.699000   2.39900
      3775 OAC      40       OAC      DO2      DRUD    -2.051800        0.4000           0   0.00000   0.00000
      3776 OAC      40       OAC      H        HDP1A    0.000000        1.0080           0   0.00000   0.00000
      3777 OAC      40       OAC      LPO11    LPD     -0.383000        0.0000           -1   0.00000   0.00000
      3778 OAC      40       OAC      LPO12    LPD     -0.383000        0.0000           -1   0.00000   0.00000
      3779 OAC      40       OAC      LPO21    LPD     -0.383000        0.0000           -1   0.00000   0.00000
      3780 OAC      40       OAC      LPO22    LPD     -0.383000        0.0000           -1   0.00000   0.00000
      3781 OAC      41       OAC      C1       CD2O2A   3.181700       11.6110           0   -1.01600   0.899000
      3782 OAC      41       OAC      DC1      DRUD    -2.473700        0.4000           0   0.00000   0.00000
      3783 OAC      41       OAC      C2       CD33A    2.987900       11.6110           0   -1.68100   1.41400
      3784 OAC      41       OAC      DC2      DRUD    -3.181900        0.4000           0   0.00000   0.00000
      3785 OAC      41       OAC      H1       HDA3A    0.004000        1.0080           0   0.00000   0.00000
      3786 OAC      41       OAC      H2       HDA3A    0.004000        1.0080           0   0.00000   0.00000
      3787 OAC      41       OAC      H3       HDA3A    0.004000        1.0080           0   0.00000   0.00000
      3788 OAC      41       OAC      O1       OD2C2A   2.054800       15.5994           0   -0.699000   2.39900
      3789 OAC      41       OAC      DO1      DRUD    -2.051800        0.4000           0   0.00000   0.00000
      3790 OAC      41       OAC      O2       OD2C2A   2.054800       15.5994           0   -0.699000   2.39900
      3791 OAC      41       OAC      DO2      DRUD    -2.051800        0.4000           0   0.00000   0.00000
      3792 OAC      41       OAC      H        HDP1A    0.000000        1.0080           0   0.00000   0.00000
      3793 OAC      41       OAC      LPO11    LPD     -0.383000        0.0000           -1   0.00000   0.00000
      3794 OAC      41       OAC      LPO12    LPD     -0.383000        0.0000           -1   0.00000   0.00000
      3795 OAC      41       OAC      LPO21    LPD     -0.383000        0.0000           -1   0.00000   0.00000
      3796 OAC      41       OAC      LPO22    LPD     -0.383000        0.0000           -1   0.00000   0.00000
      3797 OAC      42       OAC      C1       CD2O2A   3.181700       11.6110           0   -1.01600   0.899000
      3798 OAC      42       OAC      DC1      DRUD    -2.473700        0.4000           0   0.00000   0.00000
      3799 OAC      42       OAC      C2       CD33A    2.987900       11.6110           0   -1.68100   1.41400
      3800 OAC      42       OAC      DC2      DRUD    -3.181900        0.4000           0   0.00000   0.00000
      3801 OAC      42       OAC      H1       HDA3A    0.004000        1.0080           0   0.00000   0.00000
      3802 OAC      42       OAC      H2       HDA3A    0.004000        1.0080           0   0.00000   0.00000
      3803 OAC      42       OAC      H3       HDA3A    0.004000        1.0080           0   0.00000   0.00000
      3804 OAC      42       OAC      O1       OD2C2A   2.054800       15.5994           0   -0.699000   2.39900
      3805 OAC      42       OAC      DO1      DRUD    -2.051800        0.4000           0   0.00000   0.00000
      3806 OAC      42       OAC      O2       OD2C2A   2.054800       15.5994           0   -0.699000   2.39900
      3807 OAC      42       OAC      DO2      DRUD    -2.051800        0.4000           0   0.00000   0.00000
      3808 OAC      42       OAC      H        HDP1A    0.000000        1.0080           0   0.00000   0.00000
      3809 OAC      42       OAC      LPO11    LPD     -0.383000        0.0000           -1   0.00000   0.00000
      3810 OAC      42       OAC      LPO12    LPD     -0.383000        0.0000           -1   0.00000   0.00000
      3811 OAC      42       OAC      LPO21    LPD     -0.383000        0.0000           -1   0.00000   0.00000
      3812 OAC      42       OAC      LPO22    LPD     -0.383000        0.0000           -1   0.00000   0.00000
      3813 OAC      43       OAC      C1       CD2O2A   3.181700       11.6110           0   -1.01600   0.899000
      3814 OAC      43       OAC      DC1      DRUD    -2.473700        0.4000           0   0.00000   0.00000
      3815 OAC      43       OAC      C2       CD33A    2.987900       11.6110           0   -1.68100   1.41400
      3816 OAC      43       OAC      DC2      DRUD    -3.181900        0.4000           0   0.00000   0.00000
      3817 OAC      43       OAC      H1       HDA3A    0.004000        1.0080           0   0.00000   0.00000
      3818 OAC      43       OAC      H2       HDA3A    0.004000        1.0080           0   0.00000   0.00000
      3819 OAC      43       OAC      H3       HDA3A    0.004000        1.0080           0   0.00000   0.00000
      3820 OAC      43       OAC      O1       OD2C2A   2.054800       15.5994           0   -0.699000   2.39900
      3821 OAC      43       OAC      DO1      DRUD    -2.051800        0.4000           0   0.00000   0.00000
      3822 OAC      43       OAC      O2       OD2C2A   2.054800       15.5994           0   -0.699000   2.39900
      3823 OAC      43       OAC      DO2      DRUD    -2.051800        0.4000           0   0.00000   0.00000
      3824 OAC      43       OAC      H        HDP1A    0.000000        1.0080           0   0.00000   0.00000
      3825 OAC      43       OAC      LPO11    LPD     -0.383000        0.0000           -1   0.00000   0.00000
      3826 OAC      43       OAC      LPO12    LPD     -0.383000        0.0000           -1   0.00000   0.00000
      3827 OAC      43       OAC      LPO21    LPD     -0.383000        0.0000           -1   0.00000   0.00000
      3828 OAC      43       OAC      LPO22    LPD     -0.383000        0.0000           -1   0.00000   0.00000
      3829 OAC      44       OAC      C1       CD2O2A   3.181700       11.6110           0   -1.01600   0.899000
      3830 OAC      44       OAC      DC1      DRUD    -2.473700        0.4000           0   0.00000   0.00000
      3831 OAC      44       OAC      C2       CD33A    2.987900       11.6110           0   -1.68100   1.41400
      3832 OAC      44       OAC      DC2      DRUD    -3.181900        0.4000           0   0.00000   0.00000
      3833 OAC      44       OAC      H1       HDA3A    0.004000        1.0080           0   0.00000   0.00000
      3834 OAC      44       OAC      H2       HDA3A    0.004000        1.0080           0   0.00000   0.00000
      3835 OAC      44       OAC      H3       HDA3A    0.004000        1.0080           0   0.00000   0.00000
      3836 OAC      44       OAC      O1       OD2C2A   2.054800       15.5994           0   -0.699000   2.39900
      3837 OAC      44       OAC      DO1      DRUD    -2.051800        0.4000           0   0.00000   0.00000
      3838 OAC      44       OAC      O2       OD2C2A   2.054800       15.5994           0   -0.699000   2.39900
      3839 OAC      44       OAC      DO2      DRUD    -2.051800        0.4000           0   0.00000   0.00000
      3840 OAC      44       OAC      H        HDP1A    0.000000        1.0080           0   0.00000   0.00000
      3841 OAC      44       OAC      LPO11    LPD     -0.383000        0.0000           -1   0.00000   0.00000
      3842 OAC      44       OAC      LPO12    LPD     -0.383000        0.0000           -1   0.00000   0.00000
      3843 OAC      44       OAC      LPO21    LPD     -0.383000        0.0000           -1   0.00000   0.00000
      3844 OAC      44       OAC      LPO22    LPD     -0.383000        0.0000           -1   0.00000   0.00000
      3845 OAC      45       OAC      C1       CD2O2A   3.181700       11.6110           0   -1.01600   0.899000
      3846 OAC      45       OAC      DC1      DRUD    -2.473700        0.4000           0   0.00000   0.00000
      3847 OAC      45       OAC      C2       CD33A    2.987900       11.6110           0   -1.68100   1.41400
      3848 OAC      45       OAC      DC2      DRUD    -3.181900        0.4000           0   0.00000   0.00000
      3849 OAC      45       OAC      H1       HDA3A    0.004000        1.0080           0   0.00000   0.00000
      3850 OAC      45       OAC      H2       HDA3A    0.004000        1.0080           0   0.00000   0.00000
      3851 OAC      45       OAC      H3       HDA3A    0.004000        1.0080           0   0.00000   0.00000
      3852 OAC      45       OAC      O1       OD2C2A   2.054800       15.5994           0   -0.699000   2.39900
      3853 OAC      45       OAC      DO1      DRUD    -2.051800        0.4000           0   0.00000   0.00000
      3854 OAC      45       OAC      O2       OD2C2A   2.054800       15.5994           0   -0.699000   2.39900
      3855 OAC      45       OAC      DO2      DRUD    -2.051800        0.4000           0   0.00000   0.00000
      3856 OAC      45       OAC      H        HDP1A    0.000000        1.0080           0   0.00000   0.00000
      3857 OAC      45       OAC      LPO11    LPD     -0.383000        0.0000           -1   0.00000   0.00000
      3858 OAC      45       OAC      LPO12    LPD     -0.383000        0.0000           -1   0.00000   0.00000
      3859 OAC      45       OAC      LPO21    LPD     -0.383000        0.0000           -1   0.00000   0.00000
      3860 OAC      45       OAC      LPO22    LPD     -0.383000        0.0000           -1   0.00000   0.00000
      3861 OAC      46       OAC      C1       CD2O2A   3.181700       11.6110           0   -1.01600   0.899000
      3862 OAC      46       OAC      DC1      DRUD    -2.473700        0.4000           0   0.00000   0.00000
      3863 OAC      46       OAC      C2       CD33A    2.987900       11.6110           0   -1.68100   1.41400
      3864 OAC      46       OAC      DC2      DRUD    -3.181900        0.4000           0   0.00000   0.00000
      3865 OAC      46       OAC      H1       HDA3A    0.004000        1.0080           0   0.00000   0.00000
      3866 OAC      46       OAC      H2       HDA3A    0.004000        1.0080           0   0.00000   0.00000
      3867 OAC      46       OAC      H3       HDA3A    0.004000        1.0080           0   0.00000   0.00000
      3868 OAC      46       OAC      O1       OD2C2A   2.054800       15.5994           0   -0.699000   2.39900
      3869 OAC      46       OAC      DO1      DRUD    -2.051800        0.4000           0   0.00000   0.00000
      3870 OAC      46       OAC      O2       OD2C2A   2.054800       15.5994           0   -0.699000   2.39900
      3871 OAC      46       OAC      DO2      DRUD    -2.051800        0.4000           0   0.00000   0.00000
      3872 OAC      46       OAC      H        HDP1A    0.000000        1.0080           0   0.00000   0.00000
      3873 OAC      46       OAC      LPO11    LPD     -0.383000        0.0000           -1   0.00000   0.00000
      3874 OAC      46       OAC      LPO12    LPD     -0.383000        0.0000           -1   0.00000   0.00000
      3875 OAC      46       OAC      LPO21    LPD     -0.383000        0.0000           -1   0.00000   0.00000
      3876 OAC      46       OAC      LPO22    LPD     -0.383000        0.0000           -1   0.00000   0.00000
      3877 OAC      47       OAC      C1       CD2O2A   3.181700       11.6110           0   -1.01600   0.899000
      3878 OAC      47       OAC      DC1      DRUD    -2.473700        0.4000           0   0.00000   0.00000
      3879 OAC      47       OAC      C2       CD33A    2.987900       11.6110           0   -1.68100   1.41400
      3880 OAC      47       OAC      DC2      DRUD    -3.181900        0.4000           0   0.00000   0.00000
      3881 OAC      47       OAC      H1       HDA3A    0.004000        1.0080           0   0.00000   0.00000
      3882 OAC      47       OAC      H2       HDA3A    0.004000        1.0080           0   0.00000   0.00000
      3883 OAC      47       OAC      H3       HDA3A    0.004000        1.0080           0   0.00000   0.00000
      3884 OAC      47       OAC      O1       OD2C2A   2.054800       15.5994           0   -0.699000   2.39900
      3885 OAC      47       OAC      DO1      DRUD    -2.051800        0.4000           0   0.00000   0.00000
      3886 OAC      47       OAC      O2       OD2C2A   2.054800       15.5994           0   -0.699000   2.39900
      3887 OAC      47       OAC      DO2      DRUD    -2.051800        0.4000           0   0.00000   0.00000
      3888 OAC      47       OAC      H        HDP1A    0.000000        1.0080           0   0.00000   0.00000
      3889 OAC      47       OAC      LPO11    LPD     -0.383000        0.0000           -1   0.00000   0.00000
      3890 OAC      47       OAC      LPO12    LPD     -0.383000        0.0000           -1   0.00000   0.00000
      3891 OAC      47       OAC      LPO21    LPD     -0.383000        0.0000           -1   0.00000   0.00000
      3892 OAC      47       OAC      LPO22    LPD     -0.383000        0.0000           -1   0.00000   0.00000
      3893 OAC      48       OAC      C1       CD2O2A   3.181700       11.6110           0   -1.01600   0.899000
      3894 OAC      48       OAC      DC1      DRUD    -2.473700        0.4000           0   0.00000   0.00000
      3895 OAC      48       OAC      C2       CD33A    2.987900       11.6110           0   -1.68100   1.41400
      3896 OAC      48       OAC      DC2      DRUD    -3.181900        0.4000           0   0.00000   0.00000
      3897 OAC      48       OAC      H1       HDA3A    0.004000        1.0080           0   0.00000   0.00000
      3898 OAC      48       OAC      H2       HDA3A    0.004000        1.0080           0   0.00000   0.00000
      3899 OAC      48       OAC      H3       HDA3A    0.004000        1.0080           0   0.00000   0.00000
      3900 OAC      48       OAC      O1       OD2C2A   2.054800       15.5994           0   -0.699000   2.39900
      3901 OAC      48       OAC      DO1      DRUD    -2.051800        0.4000           0   0.00000   0.00000
      3902 OAC      48       OAC      O2       OD2C2A   2.054800       15.5994           0   -0.699000   2.39900
      3903 OAC      48       OAC      DO2      DRUD    -2.051800        0.4000           0   0.00000   0.00000
      3904 OAC      48       OAC      H        HDP1A    0.000000        1.0080           0   0.00000   0.00000
      3905 OAC      48       OAC      LPO11    LPD     -0.383000        0.0000           -1   0.00000   0.00000
      3906 OAC      48       OAC      LPO12    LPD     -0.383000        0.0000           -1   0.00000   0.00000
      3907 OAC      48       OAC      LPO21    LPD     -0.383000        0.0000           -1   0.00000   0.00000
      3908 OAC      48       OAC      LPO22    LPD     -0.383000        0.0000           -1   0.00000   0.00000
      3909 OAC      49       OAC      C1       CD2O2A   3.181700       11.6110           0   -1.01600   0.899000
      3910 OAC      49       OAC      DC1      DRUD    -2.473700        0.4000           0   0.00000   0.00000
      3911 OAC      49       OAC      C2       CD33A    2.987900       11.6110           0   -1.68100   1.41400
      3912 OAC      49       OAC      DC2      DRUD    -3.181900        0.4000           0   0.00000   0.00000
      3913 OAC      49       OAC      H1       HDA3A    0.004000        1.0080           0   0.00000   0.00000
      3914 OAC      49       OAC      H2       HDA3A    0.004000        1.0080           0   0.00000   0.00000
      3915 OAC      49       OAC      H3       HDA3A    0.004000        1.0080           0   0.00000   0.00000
      3916 OAC      49       OAC      O1       OD2C2A   2.054800       15.5994           0   -0.699000   2.39900
      3917 OAC      49       OAC      DO1      DRUD    -2.051800        0.4000           0   0.00000   0.00000
      3918 OAC      49       OAC      O2       OD2C2A   2.054800       15.5994           0   -0.699000   2.39900
      3919 OAC      49       OAC      DO2      DRUD    -2.051800        0.4000           0   0.00000   0.00000
      3920 OAC      49       OAC      H        HDP1A    0.000000        1.0080           0   0.00000   0.00000
      3921 OAC      49       OAC      LPO11    LPD     -0.383000        0.0000           -1   0.00000   0.00000
      3922 OAC      49       OAC      LPO12    LPD     -0.383000        0.0000           -1   0.00000   0.00000
      3923 OAC      49       OAC      LPO21    LPD     -0.383000        0.0000           -1   0.00000   0.00000
      3924 OAC      49       OAC      LPO22    LPD     -0.383000        0.0000           -1   0.00000   0.00000
      3925 OAC      50       OAC      C1       CD2O2A   3.181700       11.6110           0   -1.01600   0.899000
      3926 OAC      50       OAC      DC1      DRUD    -2.473700        0.4000           0   0.00000   0.00000
      3927 OAC      50       OAC      C2       CD33A    2.987900       11.6110           0   -1.68100   1.41400
      3928 OAC      50       OAC      DC2      DRUD    -3.181900        0.4000           0   0.00000   0.00000
      3929 OAC      50       OAC      H1       HDA3A    0.004000        1.0080           0   0.00000   0.00000
      3930 OAC      50       OAC      H2       HDA3A    0.004000        1.0080           0   0.00000   0.00000
      3931 OAC      50       OAC      H3       HDA3A    0.004000        1.0080           0   0.00000   0.00000
      3932 OAC      50       OAC      O1       OD2C2A   2.054800       15.5994           0   -0.699000   2.39900
      3933 OAC      50       OAC      DO1      DRUD    -2.051800        0.4000           0   0.00000   0.00000
      3934 OAC      50       OAC      O2       OD2C2A   2.054800       15.5994           0   -0.699000   2.39900
      3935 OAC      50       OAC      DO2      DRUD    -2.051800        0.4000           0   0.00000   0.00000
      3936 OAC      50       OAC      H        HDP1A    0.000000        1.0080           0   0.00000   0.00000
      3937 OAC      50       OAC      LPO11    LPD     -0.383000        0.0000           -1   0.00000   0.00000
      3938 OAC      50       OAC      LPO12    LPD     -0.383000        0.0000           -1   0.00000   0.00000
      3939 OAC      50       OAC      LPO21    LPD     -0.383000        0.0000           -1   0.00000   0.00000
      3940 OAC      50       OAC      LPO22    LPD     -0.383000        0.0000           -1   0.00000   0.00000
      3941 OAC      51       OAC      C1       CD2O2A   3.181700       11.6110           0   -1.01600   0.899000
      3942 OAC      51       OAC      DC1      DRUD    -2.473700        0.4000           0   0.00000   0.00000
      3943 OAC      51       OAC      C2       CD33A    2.987900       11.6110           0   -1.68100   1.41400
      3944 OAC      51       OAC      DC2      DRUD    -3.181900        0.4000           0   0.00000   0.00000
      3945 OAC      51       OAC      H1       HDA3A    0.004000        1.0080           0   0.00000   0.00000
      3946 OAC      51       OAC      H2       HDA3A    0.004000        1.0080           0   0.00000   0.00000
      3947 OAC      51       OAC      H3       HDA3A    0.004000        1.0080           0   0.00000   0.00000
      3948 OAC      51       OAC      O1       OD2C2A   2.054800       15.5994           0   -0.699000   2.39900
      3949 OAC      51       OAC      DO1      DRUD    -2.051800        0.4000           0   0.00000   0.00000
      3950 OAC      51       OAC      O2       OD2C2A   2.054800       15.5994           0   -0.699000   2.39900
      3951 OAC      51       OAC      DO2      DRUD    -2.051800        0.4000           0   0.00000   0.00000
      3952 OAC      51       OAC      H        HDP1A    0.000000        1.0080           0   0.00000   0.00000
      3953 OAC      51       OAC      LPO11    LPD     -0.383000        0.0000           -1   0.00000   0.00000
      3954 OAC      51       OAC      LPO12    LPD     -0.383000        0.0000           -1   0.00000   0.00000
      3955 OAC      51       OAC      LPO21    LPD     -0.383000        0.0000           -1   0.00000   0.00000
      3956 OAC      51       OAC      LPO22    LPD     -0.383000        0.0000           -1   0.00000   0.00000
      3957 OAC      52       OAC      C1       CD2O2A   3.181700       11.6110           0   -1.01600   0.899000
      3958 OAC      52       OAC      DC1      DRUD    -2.473700        0.4000           0   0.00000   0.00000
      3959 OAC      52       OAC      C2       CD33A    2.987900       11.6110           0   -1.68100   1.41400
      3960 OAC      52       OAC      DC2      DRUD    -3.181900        0.4000           0   0.00000   0.00000
      3961 OAC      52       OAC      H1       HDA3A    0.004000        1.0080           0   0.00000   0.00000
      3962 OAC      52       OAC      H2       HDA3A    0.004000        1.0080           0   0.00000   0.00000
      3963 OAC      52       OAC      H3       HDA3A    0.004000        1.0080           0   0.00000   0.00000
      3964 OAC      52       OAC      O1       OD2C2A   2.054800       15.5994           0   -0.699000   2.39900
      3965 OAC      52       OAC      DO1      DRUD    -2.051800        0.4000           0   0.00000   0.00000
      3966 OAC      52       OAC      O2       OD2C2A   2.054800       15.5994           0   -0.699000   2.39900
      3967 OAC      52       OAC      DO2      DRUD    -2.051800        0.4000           0   0.00000   0.00000
      3968 OAC      52       OAC      H        HDP1A    0.000000        1.0080           0   0.00000   0.00000
      3969 OAC      52       OAC      LPO11    LPD     -0.383000        0.0000           -1   0.00000   0.00000
      3970 OAC      52       OAC      LPO12    LPD     -0.383000        0.0000           -1   0.00000   0.00000
      3971 OAC      52       OAC      LPO21    LPD     -0.383000        0.0000           -1   0.00000   0.00000
      3972 OAC      52       OAC      LPO22    LPD     -0.383000        0.0000           -1   0.00000   0.00000
      3973 OAC      53       OAC      C1       CD2O2A   3.181700       11.6110           0   -1.01600   0.899000
      3974 OAC      53       OAC      DC1      DRUD    -2.473700        0.4000           0   0.00000   0.00000
      3975 OAC      53       OAC      C2       CD33A    2.987900       11.6110           0   -1.68100   1.41400
      3976 OAC      53       OAC      DC2      DRUD    -3.181900        0.4000           0   0.00000   0.00000
      3977 OAC      53       OAC      H1       HDA3A    0.004000        1.0080           0   0.00000   0.00000
      3978 OAC      53       OAC      H2       HDA3A    0.004000        1.0080           0   0.00000   0.00000
      3979 OAC      53       OAC      H3       HDA3A    0.004000        1.0080           0   0.00000   0.00000
      3980 OAC      53       OAC      O1       OD2C2A   2.054800       15.5994           0   -0.699000   2.39900
      3981 OAC      53       OAC      DO1      DRUD    -2.051800        0.4000           0   0.00000   0.00000
      3982 OAC      53       OAC      O2       OD2C2A   2.054800       15.5994           0   -0.699000   2.39900
      3983 OAC      53       OAC      DO2      DRUD    -2.051800        0.4000           0   0.00000   0.00000
      3984 OAC      53       OAC      H        HDP1A    0.000000        1.0080           0   0.00000   0.00000
      3985 OAC      53       OAC      LPO11    LPD     -0.383000        0.0000           -1   0.00000   0.00000
      3986 OAC      53       OAC      LPO12    LPD     -0.383000        0.0000           -1   0.00000   0.00000
      3987 OAC      53       OAC      LPO21    LPD     -0.383000        0.0000           -1   0.00000   0.00000
      3988 OAC      53       OAC      LPO22    LPD     -0.383000        0.0000           -1   0.00000   0.00000
      3989 OAC      54       OAC      C1       CD2O2A   3.181700       11.6110           0   -1.01600   0.899000
      3990 OAC      54       OAC      DC1      DRUD    -2.473700        0.4000           0   0.00000   0.00000
      3991 OAC      54       OAC      C2       CD33A    2.987900       11.6110           0   -1.68100   1.41400
      3992 OAC      54       OAC      DC2      DRUD    -3.181900        0.4000           0   0.00000   0.00000
      3993 OAC      54       OAC      H1       HDA3A    0.004000        1.0080           0   0.00000   0.00000
      3994 OAC      54       OAC      H2       HDA3A    0.004000        1.0080           0   0.00000   0.00000
      3995 OAC      54       OAC      H3       HDA3A    0.004000        1.0080           0   0.00000   0.00000
      3996 OAC      54       OAC      O1       OD2C2A   2.054800       15.5994           0   -0.699000   2.39900
      3997 OAC      54       OAC      DO1      DRUD    -2.051800        0.4000           0   0.00000   0.00000
      3998 OAC      54       OAC      O2       OD2C2A   2.054800       15.5994           0   -0.699000   2.39900
      3999 OAC      54       OAC      DO2      DRUD    -2.051800        0.4000           0   0.00000   0.00000
      4000 OAC      54       OAC      H        HDP1A    0.000000        1.0080           0   0.00000   0.00000
      4001 OAC      54       OAC      LPO11    LPD     -0.383000        0.0000           -1   0.00000   0.00000
      4002 OAC      54       OAC      LPO12    LPD     -0.383000        0.0000           -1   0.00000   0.00000
      4003 OAC      54       OAC      LPO21    LPD     -0.383000        0.0000           -1   0.00000   0.00000
      4004 OAC      54       OAC      LPO22    LPD     -0.383000        0.0000           -1   0.00000   0.00000
      4005 OAC      55       OAC      C1       CD2O2A   3.181700       11.6110           0   -1.01600   0.899000
      4006 OAC      55       OAC      DC1      DRUD    -2.473700        0.4000           0   0.00000   0.00000
      4007 OAC      55       OAC      C2       CD33A    2.987900       11.6110           0   -1.68100   1.41400
      4008 OAC      55       OAC      DC2      DRUD    -3.181900        0.4000           0   0.00000   0.00000
      4009 OAC      55       OAC      H1       HDA3A    0.004000        1.0080           0   0.00000   0.00000
      4010 OAC      55       OAC      H2       HDA3A    0.004000        1.0080           0   0.00000   0.00000
      4011 OAC      55       OAC      H3       HDA3A    0.004000        1.0080           0   0.00000   0.00000
      4012 OAC      55       OAC      O1       OD2C2A   2.054800       15.5994           0   -0.699000   2.39900
      4013 OAC      55       OAC      DO1      DRUD    -2.051800        0.4000           0   0.00000   0.00000
      4014 OAC      55       OAC      O2       OD2C2A   2.054800       15.5994           0   -0.699000   2.39900
      4015 OAC      55       OAC      DO2      DRUD    -2.051800        0.4000           0   0.00000   0.00000
      4016 OAC      55       OAC      H        HDP1A    0.000000        1.0080           0   0.00000   0.00000
      4017 OAC      55       OAC      LPO11    LPD     -0.383000        0.0000           -1   0.00000   0.00000
      4018 OAC      55       OAC      LPO12    LPD     -0.383000        0.0000           -1   0.00000   0.00000
      4019 OAC      55       OAC      LPO21    LPD     -0.383000        0.0000           -1   0.00000   0.00000
      4020 OAC      55       OAC      LPO22    LPD     -0.383000        0.0000           -1   0.00000   0.00000
      4021 OAC      56       OAC      C1       CD2O2A   3.181700       11.6110           0   -1.01600   0.899000
      4022 OAC      56       OAC      DC1      DRUD    -2.473700        0.4000           0   0.00000   0.00000
      4023 OAC      56       OAC      C2       CD33A    2.987900       11.6110           0   -1.68100   1.41400
      4024 OAC      56       OAC      DC2      DRUD    -3.181900        0.4000           0   0.00000   0.00000
      4025 OAC      56       OAC      H1       HDA3A    0.004000        1.0080           0   0.00000   0.00000
      4026 OAC      56       OAC      H2       HDA3A    0.004000        1.0080           0   0.00000   0.00000
      4027 OAC      56       OAC      H3       HDA3A    0.004000        1.0080           0   0.00000   0.00000
      4028 OAC      56       OAC      O1       OD2C2A   2.054800       15.5994           0   -0.699000   2.39900
      4029 OAC      56       OAC      DO1      DRUD    -2.051800        0.4000           0   0.00000   0.00000
      4030 OAC      56       OAC      O2       OD2C2A   2.054800       15.5994           0   -0.699000   2.39900
      4031 OAC      56       OAC      DO2      DRUD    -2.051800        0.4000           0   0.00000   0.00000
      4032 OAC      56       OAC      H        HDP1A    0.000000        1.0080           0   0.00000   0.00000
      4033 OAC      56       OAC      LPO11    LPD     -0.383000        0.0000           -1   0.00000   0.00000
      4034 OAC      56       OAC      LPO12    LPD     -0.383000        0.0000           -1   0.00000   0.00000
      4035 OAC      56       OAC      LPO21    LPD     -0.383000        0.0000           -1   0.00000   0.00000
      4036 OAC      56       OAC      LPO22    LPD     -0.383000        0.0000           -1   0.00000   0.00000
      4037 OAC      57       OAC      C1       CD2O2A   3.181700       11.6110           0   -1.01600   0.899000
      4038 OAC      57       OAC      DC1      DRUD    -2.473700        0.4000           0   0.00000   0.00000
      4039 OAC      57       OAC      C2       CD33A    2.987900       11.6110           0   -1.68100   1.41400
      4040 OAC      57       OAC      DC2      DRUD    -3.181900        0.4000           0   0.00000   0.00000
      4041 OAC      57       OAC      H1       HDA3A    0.004000        1.0080           0   0.00000   0.00000
      4042 OAC      57       OAC      H2       HDA3A    0.004000        1.0080           0   0.00000   0.00000
      4043 OAC      57       OAC      H3       HDA3A    0.004000        1.0080           0   0.00000   0.00000
      4044 OAC      57       OAC      O1       OD2C2A   2.054800       15.5994           0   -0.699000   2.39900
      4045 OAC      57       OAC      DO1      DRUD    -2.051800        0.4000           0   0.00000   0.00000
      4046 OAC      57       OAC      O2       OD2C2A   2.054800       15.5994           0   -0.699000   2.39900
      4047 OAC      57       OAC      DO2      DRUD    -2.051800        0.4000           0   0.00000   0.00000
      4048 OAC      57       OAC      H        HDP1A    0.000000        1.0080           0   0.00000   0.00000
      4049 OAC      57       OAC      LPO11    LPD     -0.383000        0.0000           -1   0.00000   0.00000
      4050 OAC      57       OAC      LPO12    LPD     -0.383000        0.0000           -1   0.00000   0.00000
      4051 OAC      57       OAC      LPO21    LPD     -0.383000        0.0000           -1   0.00000   0.00000
      4052 OAC      57       OAC      LPO22    LPD     -0.383000        0.0000           -1   0.00000   0.00000
      4053 OAC      58       OAC      C1       CD2O2A   3.181700       11.6110           0   -1.01600   0.899000
      4054 OAC      58       OAC      DC1      DRUD    -2.473700        0.4000           0   0.00000   0.00000
      4055 OAC      58       OAC      C2       CD33A    2.987900       11.6110           0   -1.68100   1.41400
      4056 OAC      58       OAC      DC2      DRUD    -3.181900        0.4000           0   0.00000   0.00000
      4057 OAC      58       OAC      H1       HDA3A    0.004000        1.0080           0   0.00000   0.00000
      4058 OAC      58       OAC      H2       HDA3A    0.004000        1.0080           0   0.00000   0.00000
      4059 OAC      58       OAC      H3       HDA3A    0.004000        1.0080           0   0.00000   0.00000
      4060 OAC      58       OAC      O1       OD2C2A   2.054800       15.5994           0   -0.699000   2.39900
      4061 OAC      58       OAC      DO1      DRUD    -2.051800        0.4000           0   0.00000   0.00000
      4062 OAC      58       OAC      O2       OD2C2A   2.054800       15.5994           0   -0.699000   2.39900
      4063 OAC      58       OAC      DO2      DRUD    -2.051800        0.4000           0   0.00000   0.00000
      4064 OAC      58       OAC      H        HDP1A    0.000000        1.0080           0   0.00000   0.00000
      4065 OAC      58       OAC      LPO11    LPD     -0.383000        0.0000           -1   0.00000   0.00000
      4066 OAC      58       OAC      LPO12    LPD     -0.383000        0.0000           -1   0.00000   0.00000
      4067 OAC      58       OAC      LPO21    LPD     -0.383000        0.0000           -1   0.00000   0.00000
      4068 OAC      58       OAC      LPO22    LPD     -0.383000        0.0000           -1   0.00000   0.00000
      4069 OAC      59       OAC      C1       CD2O2A   3.181700       11.6110           0   -1.01600   0.899000
      4070 OAC      59       OAC      DC1      DRUD    -2.473700        0.4000           0   0.00000   0.00000
      4071 OAC      59       OAC      C2       CD33A    2.987900       11.6110           0   -1.68100   1.41400
      4072 OAC      59       OAC      DC2      DRUD    -3.181900        0.4000           0   0.00000   0.00000
      4073 OAC      59       OAC      H1       HDA3A    0.004000        1.0080           0   0.00000   0.00000
      4074 OAC      59       OAC      H2       HDA3A    0.004000        1.0080           0   0.00000   0.00000
      4075 OAC      59       OAC      H3       HDA3A    0.004000        1.0080           0   0.00000   0.00000
      4076 OAC      59       OAC      O1       OD2C2A   2.054800       15.5994           0   -0.699000   2.39900
      4077 OAC      59       OAC      DO1      DRUD    -2.051800        0.4000           0   0.00000   0.00000
      4078 OAC      59       OAC      O2       OD2C2A   2.054800       15.5994           0   -0.699000   2.39900
      4079 OAC      59       OAC      DO2      DRUD    -2.051800        0.4000           0   0.00000   0.00000
      4080 OAC      59       OAC      H        HDP1A    0.000000        1.0080           0   0.00000   0.00000
      4081 OAC      59       OAC      LPO11    LPD     -0.383000        0.0000           -1   0.00000   0.00000
      4082 OAC      59       OAC      LPO12    LPD     -0.383000        0.0000           -1   0.00000   0.00000
      4083 OAC      59       OAC      LPO21    LPD     -0.383000        0.0000           -1   0.00000   0.00000
      4084 OAC      59       OAC      LPO22    LPD     -0.383000        0.0000           -1   0.00000   0.00000
      4085 OAC      60       OAC      C1       CD2O2A   3.181700       11.6110           0   -1.01600   0.899000
      4086 OAC      60       OAC      DC1      DRUD    -2.473700        0.4000           0   0.00000   0.00000
      4087 OAC      60       OAC      C2       CD33A    2.987900       11.6110           0   -1.68100   1.41400
      4088 OAC      60       OAC      DC2      DRUD    -3.181900        0.4000           0   0.00000   0.00000
      4089 OAC      60       OAC      H1       HDA3A    0.004000        1.0080           0   0.00000   0.00000
      4090 OAC      60       OAC      H2       HDA3A    0.004000        1.0080           0   0.00000   0.00000
      4091 OAC      60       OAC      H3       HDA3A    0.004000        1.0080           0   0.00000   0.00000
      4092 OAC      60       OAC      O1       OD2C2A   2.054800       15.5994           0   -0.699000   2.39900
      4093 OAC      60       OAC      DO1      DRUD    -2.051800        0.4000           0   0.00000   0.00000
      4094 OAC      60       OAC      O2       OD2C2A   2.054800       15.5994           0   -0.699000   2.39900
      4095 OAC      60       OAC      DO2      DRUD    -2.051800        0.4000           0   0.00000   0.00000
      4096 OAC      60       OAC      H        HDP1A    0.000000        1.0080           0   0.00000   0.00000
      4097 OAC      60       OAC      LPO11    LPD     -0.383000        0.0000           -1   0.00000   0.00000
      4098 OAC      60       OAC      LPO12    LPD     -0.383000        0.0000           -1   0.00000   0.00000
      4099 OAC      60       OAC      LPO21    LPD     -0.383000        0.0000           -1   0.00000   0.00000
      4100 OAC      60       OAC      LPO22    LPD     -0.383000        0.0000           -1   0.00000   0.00000
      4101 OAC      61       OAC      C1       CD2O2A   3.181700       11.6110           0   -1.01600   0.899000
      4102 OAC      61       OAC      DC1      DRUD    -2.473700        0.4000           0   0.00000   0.00000
      4103 OAC      61       OAC      C2       CD33A    2.987900       11.6110           0   -1.68100   1.41400
      4104 OAC      61       OAC      DC2      DRUD    -3.181900        0.4000           0   0.00000   0.00000
      4105 OAC      61       OAC      H1       HDA3A    0.004000        1.0080           0   0.00000   0.00000
      4106 OAC      61       OAC      H2       HDA3A    0.004000        1.0080           0   0.00000   0.00000
      4107 OAC      61       OAC      H3       HDA3A    0.004000        1.0080           0   0.00000   0.00000
      4108 OAC      61       OAC      O1       OD2C2A   2.054800       15.5994           0   -0.699000   2.39900
      4109 OAC      61       OAC      DO1      DRUD    -2.051800        0.4000           0   0.00000   0.00000
      4110 OAC      61       OAC      O2       OD2C2A   2.054800       15.5994           0   -0.699000   2.39900
      4111 OAC      61       OAC      DO2      DRUD    -2.051800        0.4000           0   0.00000   0.00000
      4112 OAC      61       OAC      H        HDP1A    0.000000        1.0080           0   0.00000   0.00000
      4113 OAC      61       OAC      LPO11    LPD     -0.383000        0.0000           -1   0.00000   0.00000
      4114 OAC      61       OAC      LPO12    LPD     -0.383000        0.0000           -1   0.00000   0.00000
      4115 OAC      61       OAC      LPO21    LPD     -0.383000        0.0000           -1   0.00000   0.00000
      4116 OAC      61       OAC      LPO22    LPD     -0.383000        0.0000           -1   0.00000   0.00000
      4117 OAC      62       OAC      C1       CD2O2A   3.181700       11.6110           0   -1.01600   0.899000
      4118 OAC      62       OAC      DC1      DRUD    -2.473700        0.4000           0   0.00000   0.00000
      4119 OAC      62       OAC      C2       CD33A    2.987900       11.6110           0   -1.68100   1.41400
      4120 OAC      62       OAC      DC2      DRUD    -3.181900        0.4000           0   0.00000   0.00000
      4121 OAC      62       OAC      H1       HDA3A    0.004000        1.0080           0   0.00000   0.00000
      4122 OAC      62       OAC      H2       HDA3A    0.004000        1.0080           0   0.00000   0.00000
      4123 OAC      62       OAC      H3       HDA3A    0.004000        1.0080           0   0.00000   0.00000
      4124 OAC      62       OAC      O1       OD2C2A   2.054800       15.5994           0   -0.699000   2.39900
      4125 OAC      62       OAC      DO1      DRUD    -2.051800        0.4000           0   0.00000   0.00000
      4126 OAC      62       OAC      O2       OD2C2A   2.054800       15.5994           0   -0.699000   2.39900
      4127 OAC      62       OAC      DO2      DRUD    -2.051800        0.4000           0   0.00000   0.00000
      4128 OAC      62       OAC      H        HDP1A    0.000000        1.0080           0   0.00000   0.00000
      4129 OAC      62       OAC      LPO11    LPD     -0.383000        0.0000           -1   0.00000   0.00000
      4130 OAC      62       OAC      LPO12    LPD     -0.383000        0.0000           -1   0.00000   0.00000
      4131 OAC      62       OAC      LPO21    LPD     -0.383000        0.0000           -1   0.00000   0.00000
      4132 OAC      62       OAC      LPO22    LPD     -0.383000        0.0000           -1   0.00000   0.00000
      4133 OAC      63       OAC      C1       CD2O2A   3.181700       11.6110           0   -1.01600   0.899000
      4134 OAC      63       OAC      DC1      DRUD    -2.473700        0.4000           0   0.00000   0.00000
      4135 OAC      63       OAC      C2       CD33A    2.987900       11.6110           0   -1.68100   1.41400
      4136 OAC      63       OAC      DC2      DRUD    -3.181900        0.4000           0   0.00000   0.00000
      4137 OAC      63       OAC      H1       HDA3A    0.004000        1.0080           0   0.00000   0.00000
      4138 OAC      63       OAC      H2       HDA3A    0.004000        1.0080           0   0.00000   0.00000
      4139 OAC      63       OAC      H3       HDA3A    0.004000        1.0080           0   0.00000   0.00000
      4140 OAC      63       OAC      O1       OD2C2A   2.054800       15.5994           0   -0.699000   2.39900
      4141 OAC      63       OAC      DO1      DRUD    -2.051800        0.4000           0   0.00000   0.00000
      4142 OAC      63       OAC      O2       OD2C2A   2.054800       15.5994           0   -0.699000   2.39900
      4143 OAC      63       OAC      DO2      DRUD    -2.051800        0.4000           0   0.00000   0.00000
      4144 OAC      63       OAC      H        HDP1A    0.000000        1.0080           0   0.00000   0.00000
      4145 OAC      63       OAC      LPO11    LPD     -0.383000        0.0000           -1   0.00000   0.00000
      4146 OAC      63       OAC      LPO12    LPD     -0.383000        0.0000           -1   0.00000   0.00000
      4147 OAC      63       OAC      LPO21    LPD     -0.383000        0.0000           -1   0.00000   0.00000
      4148 OAC      63       OAC      LPO22    LPD     -0.383000        0.0000           -1   0.00000   0.00000
      4149 OAC      64       OAC      C1       CD2O2A   3.181700       11.6110           0   -1.01600   0.899000
      4150 OAC      64       OAC      DC1      DRUD    -2.473700        0.4000           0   0.00000   0.00000
      4151 OAC      64       OAC      C2       CD33A    2.987900       11.6110           0   -1.68100   1.41400
      4152 OAC      64       OAC      DC2      DRUD    -3.181900        0.4000           0   0.00000   0.00000
      4153 OAC      64       OAC      H1       HDA3A    0.004000        1.0080           0   0.00000   0.00000
      4154 OAC      64       OAC      H2       HDA3A    0.004000        1.0080           0   0.00000   0.00000
      4155 OAC      64       OAC      H3       HDA3A    0.004000        1.0080           0   0.00000   0.00000
      4156 OAC      64       OAC      O1       OD2C2A   2.054800       15.5994           0   -0.699000   2.39900
      4157 OAC      64       OAC      DO1      DRUD    -2.051800        0.4000           0   0.00000   0.00000
      4158 OAC      64       OAC      O2       OD2C2A   2.054800       15.5994           0   -0.699000   2.39900
      4159 OAC      64       OAC      DO2      DRUD    -2.051800        0.4000           0   0.00000   0.00000
      4160 OAC      64       OAC      H        HDP1A    0.000000        1.0080           0   0.00000   0.00000
      4161 OAC      64       OAC      LPO11    LPD     -0.383000        0.0000           -1   0.00000   0.00000
      4162 OAC      64       OAC      LPO12    LPD     -0.383000        0.0000           -1   0.00000   0.00000
      4163 OAC      64       OAC      LPO21    LPD     -0.383000        0.0000           -1   0.00000   0.00000
      4164 OAC      64       OAC      LPO22    LPD     -0.383000        0.0000           -1   0.00000   0.00000
      4165 OAC      65       OAC      C1       CD2O2A   3.181700       11.6110           0   -1.01600   0.899000
      4166 OAC      65       OAC      DC1      DRUD    -2.473700        0.4000           0   0.00000   0.00000
      4167 OAC      65       OAC      C2       CD33A    2.987900       11.6110           0   -1.68100   1.41400
      4168 OAC      65       OAC      DC2      DRUD    -3.181900        0.4000           0   0.00000   0.00000
      4169 OAC      65       OAC      H1       HDA3A    0.004000        1.0080           0   0.00000   0.00000
      4170 OAC      65       OAC      H2       HDA3A    0.004000        1.0080           0   0.00000   0.00000
      4171 OAC      65       OAC      H3       HDA3A    0.004000        1.0080           0   0.00000   0.00000
      4172 OAC      65       OAC      O1       OD2C2A   2.054800       15.5994           0   -0.699000   2.39900
      4173 OAC      65       OAC      DO1      DRUD    -2.051800        0.4000           0   0.00000   0.00000
      4174 OAC      65       OAC      O2       OD2C2A   2.054800       15.5994           0   -0.699000   2.39900
      4175 OAC      65       OAC      DO2      DRUD    -2.051800        0.4000           0   0.00000   0.00000
      4176 OAC      65       OAC      H        HDP1A    0.000000        1.0080           0   0.00000   0.00000
      4177 OAC      65       OAC      LPO11    LPD     -0.383000        0.0000           -1   0.00000   0.00000
      4178 OAC      65       OAC      LPO12    LPD     -0.383000        0.0000           -1   0.00000   0.00000
      4179 OAC      65       OAC      LPO21    LPD     -0.383000        0.0000           -1   0.00000   0.00000
      4180 OAC      65       OAC      LPO22    LPD     -0.383000        0.0000           -1   0.00000   0.00000
      4181 OAC      66       OAC      C1       CD2O2A   3.181700       11.6110           0   -1.01600   0.899000
      4182 OAC      66       OAC      DC1      DRUD    -2.473700        0.4000           0   0.00000   0.00000
      4183 OAC      66       OAC      C2       CD33A    2.987900       11.6110           0   -1.68100   1.41400
      4184 OAC      66       OAC      DC2      DRUD    -3.181900        0.4000           0   0.00000   0.00000
      4185 OAC      66       OAC      H1       HDA3A    0.004000        1.0080           0   0.00000   0.00000
      4186 OAC      66       OAC      H2       HDA3A    0.004000        1.0080           0   0.00000   0.00000
      4187 OAC      66       OAC      H3       HDA3A    0.004000        1.0080           0   0.00000   0.00000
      4188 OAC      66       OAC      O1       OD2C2A   2.054800       15.5994           0   -0.699000   2.39900
      4189 OAC      66       OAC      DO1      DRUD    -2.051800        0.4000           0   0.00000   0.00000
      4190 OAC      66       OAC      O2       OD2C2A   2.054800       15.5994           0   -0.699000   2.39900
      4191 OAC      66       OAC      DO2      DRUD    -2.051800        0.4000           0   0.00000   0.00000
      4192 OAC      66       OAC      H        HDP1A    0.000000        1.0080           0   0.00000   0.00000
      4193 OAC      66       OAC      LPO11    LPD     -0.383000        0.0000           -1   0.00000   0.00000
      4194 OAC      66       OAC      LPO12    LPD     -0.383000        0.0000           -1   0.00000   0.00000
      4195 OAC      66       OAC      LPO21    LPD     -0.383000        0.0000           -1   0.00000   0.00000
      4196 OAC      66       OAC      LPO22    LPD     -0.383000        0.0000           -1   0.00000   0.00000
      4197 OAC      67       OAC      C1       CD2O2A   3.181700       11.6110           0   -1.01600   0.899000
      4198 OAC      67       OAC      DC1      DRUD    -2.473700        0.4000           0   0.00000   0.00000
      4199 OAC      67       OAC      C2       CD33A    2.987900       11.6110           0   -1.68100   1.41400
      4200 OAC      67       OAC      DC2      DRUD    -3.181900        0.4000           0   0.00000   0.00000
      4201 OAC      67       OAC      H1       HDA3A    0.004000        1.0080           0   0.00000   0.00000
      4202 OAC      67       OAC      H2       HDA3A    0.004000        1.0080           0   0.00000   0.00000
      4203 OAC      67       OAC      H3       HDA3A    0.004000        1.0080           0   0.00000   0.00000
      4204 OAC      67       OAC      O1       OD2C2A   2.054800       15.5994           0   -0.699000   2.39900
      4205 OAC      67       OAC      DO1      DRUD    -2.051800        0.4000           0   0.00000   0.00000
      4206 OAC      67       OAC      O2       OD2C2A   2.054800       15.5994           0   -0.699000   2.39900
      4207 OAC      67       OAC      DO2      DRUD    -2.051800        0.4000           0   0.00000   0.00000
      4208 OAC      67       OAC      H        HDP1A    0.000000        1.0080           0   0.00000   0.00000
      4209 OAC      67       OAC      LPO11    LPD     -0.383000        0.0000           -1   0.00000   0.00000
      4210 OAC      67       OAC      LPO12    LPD     -0.383000        0.0000           -1   0.00000   0.00000
      4211 OAC      67       OAC      LPO21    LPD     -0.383000        0.0000           -1   0.00000   0.00000
      4212 OAC      67       OAC      LPO22    LPD     -0.383000        0.0000           -1   0.00000   0.00000
      4213 OAC      68       OAC      C1       CD2O2A   3.181700       11.6110           0   -1.01600   0.899000
      4214 OAC      68       OAC      DC1      DRUD    -2.473700        0.4000           0   0.00000   0.00000
      4215 OAC      68       OAC      C2       CD33A    2.987900       11.6110           0   -1.68100   1.41400
      4216 OAC      68       OAC      DC2      DRUD    -3.181900        0.4000           0   0.00000   0.00000
      4217 OAC      68       OAC      H1       HDA3A    0.004000        1.0080           0   0.00000   0.00000
      4218 OAC      68       OAC      H2       HDA3A    0.004000        1.0080           0   0.00000   0.00000
      4219 OAC      68       OAC      H3       HDA3A    0.004000        1.0080           0   0.00000   0.00000
      4220 OAC      68       OAC      O1       OD2C2A   2.054800       15.5994           0   -0.699000   2.39900
      4221 OAC      68       OAC      DO1      DRUD    -2.051800        0.4000           0   0.00000   0.00000
      4222 OAC      68       OAC      O2       OD2C2A   2.054800       15.5994           0   -0.699000   2.39900
      4223 OAC      68       OAC      DO2      DRUD    -2.051800        0.4000           0   0.00000   0.00000
      4224 OAC      68       OAC      H        HDP1A    0.000000        1.0080           0   0.00000   0.00000
      4225 OAC      68       OAC      LPO11    LPD     -0.383000        0.0000           -1   0.00000   0.00000
      4226 OAC      68       OAC      LPO12    LPD     -0.383000        0.0000           -1   0.00000   0.00000
      4227 OAC      68       OAC      LPO21    LPD     -0.383000        0.0000           -1   0.00000   0.00000
      4228 OAC      68       OAC      LPO22    LPD     -0.383000        0.0000           -1   0.00000   0.00000
      4229 OAC      69       OAC      C1       CD2O2A   3.181700       11.6110           0   -1.01600   0.899000
      4230 OAC      69       OAC      DC1      DRUD    -2.473700        0.4000           0   0.00000   0.00000
      4231 OAC      69       OAC      C2       CD33A    2.987900       11.6110           0   -1.68100   1.41400
      4232 OAC      69       OAC      DC2      DRUD    -3.181900        0.4000           0   0.00000   0.00000
      4233 OAC      69       OAC      H1       HDA3A    0.004000        1.0080           0   0.00000   0.00000
      4234 OAC      69       OAC      H2       HDA3A    0.004000        1.0080           0   0.00000   0.00000
      4235 OAC      69       OAC      H3       HDA3A    0.004000        1.0080           0   0.00000   0.00000
      4236 OAC      69       OAC      O1       OD2C2A   2.054800       15.5994           0   -0.699000   2.39900
      4237 OAC      69       OAC      DO1      DRUD    -2.051800        0.4000           0   0.00000   0.00000
      4238 OAC      69       OAC      O2       OD2C2A   2.054800       15.5994           0   -0.699000   2.39900
      4239 OAC      69       OAC      DO2      DRUD    -2.051800        0.4000           0   0.00000   0.00000
      4240 OAC      69       OAC      H        HDP1A    0.000000        1.0080           0   0.00000   0.00000
      4241 OAC      69       OAC      LPO11    LPD     -0.383000        0.0000           -1   0.00000   0.00000
      4242 OAC      69       OAC      LPO12    LPD     -0.383000        0.0000           -1   0.00000   0.00000
      4243 OAC      69       OAC      LPO21    LPD     -0.383000        0.0000           -1   0.00000   0.00000
      4244 OAC      69       OAC      LPO22    LPD     -0.383000        0.0000           -1   0.00000   0.00000
      4245 OAC      70       OAC      C1       CD2O2A   3.181700       11.6110           0   -1.01600   0.899000
      4246 OAC      70       OAC      DC1      DRUD    -2.473700        0.4000           0   0.00000   0.00000
      4247 OAC      70       OAC      C2       CD33A    2.987900       11.6110           0   -1.68100   1.41400
      4248 OAC      70       OAC      DC2      DRUD    -3.181900        0.4000           0   0.00000   0.00000
      4249 OAC      70       OAC      H1       HDA3A    0.004000        1.0080           0   0.00000   0.00000
      4250 OAC      70       OAC      H2       HDA3A    0.004000        1.0080           0   0.00000   0.00000
      4251 OAC      70       OAC      H3       HDA3A    0.004000        1.0080           0   0.00000   0.00000
      4252 OAC      70       OAC      O1       OD2C2A   2.054800       15.5994           0   -0.699000   2.39900
      4253 OAC      70       OAC      DO1      DRUD    -2.051800        0.4000           0   0.00000   0.00000
      4254 OAC      70       OAC      O2       OD2C2A   2.054800       15.5994           0   -0.699000   2.39900
      4255 OAC      70       OAC      DO2      DRUD    -2.051800        0.4000           0   0.00000   0.00000
      4256 OAC      70       OAC      H        HDP1A    0.000000        1.0080           0   0.00000   0.00000
      4257 OAC      70       OAC      LPO11    LPD     -0.383000        0.0000           -1   0.00000   0.00000
      4258 OAC      70       OAC      LPO12    LPD     -0.383000        0.0000           -1   0.00000   0.00000
      4259 OAC      70       OAC      LPO21    LPD     -0.383000        0.0000           -1   0.00000   0.00000
      4260 OAC      70       OAC      LPO22    LPD     -0.383000        0.0000           -1   0.00000   0.00000
      4261 OAC      71       OAC      C1       CD2O2A   3.181700       11.6110           0   -1.01600   0.899000
      4262 OAC      71       OAC      DC1      DRUD    -2.473700        0.4000           0   0.00000   0.00000
      4263 OAC      71       OAC      C2       CD33A    2.987900       11.6110           0   -1.68100   1.41400
      4264 OAC      71       OAC      DC2      DRUD    -3.181900        0.4000           0   0.00000   0.00000
      4265 OAC      71       OAC      H1       HDA3A    0.004000        1.0080           0   0.00000   0.00000
      4266 OAC      71       OAC      H2       HDA3A    0.004000        1.0080           0   0.00000   0.00000
      4267 OAC      71       OAC      H3       HDA3A    0.004000        1.0080           0   0.00000   0.00000
      4268 OAC      71       OAC      O1       OD2C2A   2.054800       15.5994           0   -0.699000   2.39900
      4269 OAC      71       OAC      DO1      DRUD    -2.051800        0.4000           0   0.00000   0.00000
      4270 OAC      71       OAC      O2       OD2C2A   2.054800       15.5994           0   -0.699000   2.39900
      4271 OAC      71       OAC      DO2      DRUD    -2.051800        0.4000           0   0.00000   0.00000
      4272 OAC      71       OAC      H        HDP1A    0.000000        1.0080           0   0.00000   0.00000
      4273 OAC      71       OAC      LPO11    LPD     -0.383000        0.0000           -1   0.00000   0.00000
      4274 OAC      71       OAC      LPO12    LPD     -0.383000        0.0000           -1   0.00000   0.00000
      4275 OAC      71       OAC      LPO21    LPD     -0.383000        0.0000           -1   0.00000   0.00000
      4276 OAC      71       OAC      LPO22    LPD     -0.383000        0.0000           -1   0.00000   0.00000
      4277 OAC      72       OAC      C1       CD2O2A   3.181700       11.6110           0   -1.01600   0.899000
      4278 OAC      72       OAC      DC1      DRUD    -2.473700        0.4000           0   0.00000   0.00000
      4279 OAC      72       OAC      C2       CD33A    2.987900       11.6110           0   -1.68100   1.41400
      4280 OAC      72       OAC      DC2      DRUD    -3.181900        0.4000           0   0.00000   0.00000
      4281 OAC      72       OAC      H1       HDA3A    0.004000        1.0080           0   0.00000   0.00000
      4282 OAC      72       OAC      H2       HDA3A    0.004000        1.0080           0   0.00000   0.00000
      4283 OAC      72       OAC      H3       HDA3A    0.004000        1.0080           0   0.00000   0.00000
      4284 OAC      72       OAC      O1       OD2C2A   2.054800       15.5994           0   -0.699000   2.39900
      4285 OAC      72       OAC      DO1      DRUD    -2.051800        0.4000           0   0.00000   0.00000
      4286 OAC      72       OAC      O2       OD2C2A   2.054800       15.5994           0   -0.699000   2.39900
      4287 OAC      72       OAC      DO2      DRUD    -2.051800        0.4000           0   0.00000   0.00000
      4288 OAC      72       OAC      H        HDP1A    0.000000        1.0080           0   0.00000   0.00000
      4289 OAC      72       OAC      LPO11    LPD     -0.383000        0.0000           -1   0.00000   0.00000
      4290 OAC      72       OAC      LPO12    LPD     -0.383000        0.0000           -1   0.00000   0.00000
      4291 OAC      72       OAC      LPO21    LPD     -0.383000        0.0000           -1   0.00000   0.00000
      4292 OAC      72       OAC      LPO22    LPD     -0.383000        0.0000           -1   0.00000   0.00000
      4293 OAC      73       OAC      C1       CD2O2A   3.181700       11.6110           0   -1.01600   0.899000
      4294 OAC      73       OAC      DC1      DRUD    -2.473700        0.4000           0   0.00000   0.00000
      4295 OAC      73       OAC      C2       CD33A    2.987900       11.6110           0   -1.68100   1.41400
      4296 OAC      73       OAC      DC2      DRUD    -3.181900        0.4000           0   0.00000   0.00000
      4297 OAC      73       OAC      H1       HDA3A    0.004000        1.0080           0   0.00000   0.00000
      4298 OAC      73       OAC      H2       HDA3A    0.004000        1.0080           0   0.00000   0.00000
      4299 OAC      73       OAC      H3       HDA3A    0.004000        1.0080           0   0.00000   0.00000
      4300 OAC      73       OAC      O1       OD2C2A   2.054800       15.5994           0   -0.699000   2.39900
      4301 OAC      73       OAC      DO1      DRUD    -2.051800        0.4000           0   0.00000   0.00000
      4302 OAC      73       OAC      O2       OD2C2A   2.054800       15.5994           0   -0.699000   2.39900
      4303 OAC      73       OAC      DO2      DRUD    -2.051800        0.4000           0   0.00000   0.00000
      4304 OAC      73       OAC      H        HDP1A    0.000000        1.0080           0   0.00000   0.00000
      4305 OAC      73       OAC      LPO11    LPD     -0.383000        0.0000           -1   0.00000   0.00000
      4306 OAC      73       OAC      LPO12    LPD     -0.383000        0.0000           -1   0.00000   0.00000
      4307 OAC      73       OAC      LPO21    LPD     -0.383000        0.0000           -1   0.00000   0.00000
      4308 OAC      73       OAC      LPO22    LPD     -0.383000        0.0000           -1   0.00000   0.00000
      4309 OAC      74       OAC      C1       CD2O2A   3.181700       11.6110           0   -1.01600   0.899000
      4310 OAC      74       OAC      DC1      DRUD    -2.473700        0.4000           0   0.00000   0.00000
      4311 OAC      74       OAC      C2       CD33A    2.987900       11.6110           0   -1.68100   1.41400
      4312 OAC      74       OAC      DC2      DRUD    -3.181900        0.4000           0   0.00000   0.00000
      4313 OAC      74       OAC      H1       HDA3A    0.004000        1.0080           0   0.00000   0.00000
      4314 OAC      74       OAC      H2       HDA3A    0.004000        1.0080           0   0.00000   0.00000
      4315 OAC      74       OAC      H3       HDA3A    0.004000        1.0080           0   0.00000   0.00000
      4316 OAC      74       OAC      O1       OD2C2A   2.054800       15.5994           0   -0.699000   2.39900
      4317 OAC      74       OAC      DO1      DRUD    -2.051800        0.4000           0   0.00000   0.00000
      4318 OAC      74       OAC      O2       OD2C2A   2.054800       15.5994           0   -0.699000   2.39900
      4319 OAC      74       OAC      DO2      DRUD    -2.051800        0.4000           0   0.00000   0.00000
      4320 OAC      74       OAC      H        HDP1A    0.000000        1.0080           0   0.00000   0.00000
      4321 OAC      74       OAC      LPO11    LPD     -0.383000        0.0000           -1   0.00000   0.00000
      4322 OAC      74       OAC      LPO12    LPD     -0.383000        0.0000           -1   0.00000   0.00000
      4323 OAC      74       OAC      LPO21    LPD     -0.383000        0.0000           -1   0.00000   0.00000
      4324 OAC      74       OAC      LPO22    LPD     -0.383000        0.0000           -1   0.00000   0.00000
      4325 OAC      75       OAC      C1       CD2O2A   3.181700       11.6110           0   -1.01600   0.899000
      4326 OAC      75       OAC      DC1      DRUD    -2.473700        0.4000           0   0.00000   0.00000
      4327 OAC      75       OAC      C2       CD33A    2.987900       11.6110           0   -1.68100   1.41400
      4328 OAC      75       OAC      DC2      DRUD    -3.181900        0.4000           0   0.00000   0.00000
      4329 OAC      75       OAC      H1       HDA3A    0.004000        1.0080           0   0.00000   0.00000
      4330 OAC      75       OAC      H2       HDA3A    0.004000        1.0080           0   0.00000   0.00000
      4331 OAC      75       OAC      H3       HDA3A    0.004000        1.0080           0   0.00000   0.00000
      4332 OAC      75       OAC      O1       OD2C2A   2.054800       15.5994           0   -0.699000   2.39900
      4333 OAC      75       OAC      DO1      DRUD    -2.051800        0.4000           0   0.00000   0.00000
      4334 OAC      75       OAC      O2       OD2C2A   2.054800       15.5994           0   -0.699000   2.39900
      4335 OAC      75       OAC      DO2      DRUD    -2.051800        0.4000           0   0.00000   0.00000
      4336 OAC      75       OAC      H        HDP1A    0.000000        1.0080           0   0.00000   0.00000
      4337 OAC      75       OAC      LPO11    LPD     -0.383000        0.0000           -1   0.00000   0.00000
      4338 OAC      75       OAC      LPO12    LPD     -0.383000        0.0000           -1   0.00000   0.00000
      4339 OAC      75       OAC      LPO21    LPD     -0.383000        0.0000           -1   0.00000   0.00000
      4340 OAC      75       OAC      LPO22    LPD     -0.383000        0.0000           -1   0.00000   0.00000
      4341 OAC      76       OAC      C1       CD2O2A   3.181700       11.6110           0   -1.01600   0.899000
      4342 OAC      76       OAC      DC1      DRUD    -2.473700        0.4000           0   0.00000   0.00000
      4343 OAC      76       OAC      C2       CD33A    2.987900       11.6110           0   -1.68100   1.41400
      4344 OAC      76       OAC      DC2      DRUD    -3.181900        0.4000           0   0.00000   0.00000
      4345 OAC      76       OAC      H1       HDA3A    0.004000        1.0080           0   0.00000   0.00000
      4346 OAC      76       OAC      H2       HDA3A    0.004000        1.0080           0   0.00000   0.00000
      4347 OAC      76       OAC      H3       HDA3A    0.004000        1.0080           0   0.00000   0.00000
      4348 OAC      76       OAC      O1       OD2C2A   2.054800       15.5994           0   -0.699000   2.39900
      4349 OAC      76       OAC      DO1      DRUD    -2.051800        0.4000           0   0.00000   0.00000
      4350 OAC      76       OAC      O2       OD2C2A   2.054800       15.5994           0   -0.699000   2.39900
      4351 OAC      76       OAC      DO2      DRUD    -2.051800        0.4000           0   0.00000   0.00000
      4352 OAC      76       OAC      H        HDP1A    0.000000        1.0080           0   0.00000   0.00000
      4353 OAC      76       OAC      LPO11    LPD     -0.383000        0.0000           -1   0.00000   0.00000
      4354 OAC      76       OAC      LPO12    LPD     -0.383000        0.0000           -1   0.00000   0.00000
      4355 OAC      76       OAC      LPO21    LPD     -0.383000        0.0000           -1   0.00000   0.00000
      4356 OAC      76       OAC      LPO22    LPD     -0.383000        0.0000           -1   0.00000   0.00000
      4357 OAC      77       OAC      C1       CD2O2A   3.181700       11.6110           0   -1.01600   0.899000
      4358 OAC      77       OAC      DC1      DRUD    -2.473700        0.4000           0   0.00000   0.00000
      4359 OAC      77       OAC      C2       CD33A    2.987900       11.6110           0   -1.68100   1.41400
      4360 OAC      77       OAC      DC2      DRUD    -3.181900        0.4000           0   0.00000   0.00000
      4361 OAC      77       OAC      H1       HDA3A    0.004000        1.0080           0   0.00000   0.00000
      4362 OAC      77       OAC      H2       HDA3A    0.004000        1.0080           0   0.00000   0.00000
      4363 OAC      77       OAC      H3       HDA3A    0.004000        1.0080           0   0.00000   0.00000
      4364 OAC      77       OAC      O1       OD2C2A   2.054800       15.5994           0   -0.699000   2.39900
      4365 OAC      77       OAC      DO1      DRUD    -2.051800        0.4000           0   0.00000   0.00000
      4366 OAC      77       OAC      O2       OD2C2A   2.054800       15.5994           0   -0.699000   2.39900
      4367 OAC      77       OAC      DO2      DRUD    -2.051800        0.4000           0   0.00000   0.00000
      4368 OAC      77       OAC      H        HDP1A    0.000000        1.0080           0   0.00000   0.00000
      4369 OAC      77       OAC      LPO11    LPD     -0.383000        0.0000           -1   0.00000   0.00000
      4370 OAC      77       OAC      LPO12    LPD     -0.383000        0.0000           -1   0.00000   0.00000
      4371 OAC      77       OAC      LPO21    LPD     -0.383000        0.0000           -1   0.00000   0.00000
      4372 OAC      77       OAC      LPO22    LPD     -0.383000        0.0000           -1   0.00000   0.00000
      4373 OAC      78       OAC      C1       CD2O2A   3.181700       11.6110           0   -1.01600   0.899000
      4374 OAC      78       OAC      DC1      DRUD    -2.473700        0.4000           0   0.00000   0.00000
      4375 OAC      78       OAC      C2       CD33A    2.987900       11.6110           0   -1.68100   1.41400
      4376 OAC      78       OAC      DC2      DRUD    -3.181900        0.4000           0   0.00000   0.00000
      4377 OAC      78       OAC      H1       HDA3A    0.004000        1.0080           0   0.00000   0.00000
      4378 OAC      78       OAC      H2       HDA3A    0.004000        1.0080           0   0.00000   0.00000
      4379 OAC      78       OAC      H3       HDA3A    0.004000        1.0080           0   0.00000   0.00000
      4380 OAC      78       OAC      O1       OD2C2A   2.054800       15.5994           0   -0.699000   2.39900
      4381 OAC      78       OAC      DO1      DRUD    -2.051800        0.4000           0   0.00000   0.00000
      4382 OAC      78       OAC      O2       OD2C2A   2.054800       15.5994           0   -0.699000   2.39900
      4383 OAC      78       OAC      DO2      DRUD    -2.051800        0.4000           0   0.00000   0.00000
      4384 OAC      78       OAC      H        HDP1A    0.000000        1.0080           0   0.00000   0.00000
      4385 OAC      78       OAC      LPO11    LPD     -0.383000        0.0000           -1   0.00000   0.00000
      4386 OAC      78       OAC      LPO12    LPD     -0.383000        0.0000           -1   0.00000   0.00000
      4387 OAC      78       OAC      LPO21    LPD     -0.383000        0.0000           -1   0.00000   0.00000
      4388 OAC      78       OAC      LPO22    LPD     -0.383000        0.0000           -1   0.00000   0.00000
      4389 OAC      79       OAC      C1       CD2O2A   3.181700       11.6110           0   -1.01600   0.899000
      4390 OAC      79       OAC      DC1      DRUD    -2.473700        0.4000           0   0.00000   0.00000
      4391 OAC      79       OAC      C2       CD33A    2.987900       11.6110           0   -1.68100   1.41400
      4392 OAC      79       OAC      DC2      DRUD    -3.181900        0.4000           0   0.00000   0.00000
      4393 OAC      79       OAC      H1       HDA3A    0.004000        1.0080           0   0.00000   0.00000
      4394 OAC      79       OAC      H2       HDA3A    0.004000        1.0080           0   0.00000   0.00000
      4395 OAC      79       OAC      H3       HDA3A    0.004000        1.0080           0   0.00000   0.00000
      4396 OAC      79       OAC      O1       OD2C2A   2.054800       15.5994           0   -0.699000   2.39900
      4397 OAC      79       OAC      DO1      DRUD    -2.051800        0.4000           0   0.00000   0.00000
      4398 OAC      79       OAC      O2       OD2C2A   2.054800       15.5994           0   -0.699000   2.39900
      4399 OAC      79       OAC      DO2      DRUD    -2.051800        0.4000           0   0.00000   0.00000
      4400 OAC      79       OAC      H        HDP1A    0.000000        1.0080           0   0.00000   0.00000
      4401 OAC      79       OAC      LPO11    LPD     -0.383000        0.0000           -1   0.00000   0.00000
      4402 OAC      79       OAC      LPO12    LPD     -0.383000        0.0000           -1   0.00000   0.00000
      4403 OAC      79       OAC      LPO21    LPD     -0.383000        0.0000           -1   0.00000   0.00000
      4404 OAC      79       OAC      LPO22    LPD     -0.383000        0.0000           -1   0.00000   0.00000
      4405 OAC      80       OAC      C1       CD2O2A   3.181700       11.6110           0   -1.01600   0.899000
      4406 OAC      80       OAC      DC1      DRUD    -2.473700        0.4000           0   0.00000   0.00000
      4407 OAC      80       OAC      C2       CD33A    2.987900       11.6110           0   -1.68100   1.41400
      4408 OAC      80       OAC      DC2      DRUD    -3.181900        0.4000           0   0.00000   0.00000
      4409 OAC      80       OAC      H1       HDA3A    0.004000        1.0080           0   0.00000   0.00000
      4410 OAC      80       OAC      H2       HDA3A    0.004000        1.0080           0   0.00000   0.00000
      4411 OAC      80       OAC      H3       HDA3A    0.004000        1.0080           0   0.00000   0.00000
      4412 OAC      80       OAC      O1       OD2C2A   2.054800       15.5994           0   -0.699000   2.39900
      4413 OAC      80       OAC      DO1      DRUD    -2.051800        0.4000           0   0.00000   0.00000
      4414 OAC      80       OAC      O2       OD2C2A   2.054800       15.5994           0   -0.699000   2.39900
      4415 OAC      80       OAC      DO2      DRUD    -2.051800        0.4000           0   0.00000   0.00000
      4416 OAC      80       OAC      H        HDP1A    0.000000        1.0080           0   0.00000   0.00000
      4417 OAC      80       OAC      LPO11    LPD     -0.383000        0.0000           -1   0.00000   0.00000
      4418 OAC      80       OAC      LPO12    LPD     -0.383000        0.0000           -1   0.00000   0.00000
      4419 OAC      80       OAC      LPO21    LPD     -0.383000        0.0000           -1   0.00000   0.00000
      4420 OAC      80       OAC      LPO22    LPD     -0.383000        0.0000           -1   0.00000   0.00000
      4421 OAC      81       OAC      C1       CD2O2A   3.181700       11.6110           0   -1.01600   0.899000
      4422 OAC      81       OAC      DC1      DRUD    -2.473700        0.4000           0   0.00000   0.00000
      4423 OAC      81       OAC      C2       CD33A    2.987900       11.6110           0   -1.68100   1.41400
      4424 OAC      81       OAC      DC2      DRUD    -3.181900        0.4000           0   0.00000   0.00000
      4425 OAC      81       OAC      H1       HDA3A    0.004000        1.0080           0   0.00000   0.00000
      4426 OAC      81       OAC      H2       HDA3A    0.004000        1.0080           0   0.00000   0.00000
      4427 OAC      81       OAC      H3       HDA3A    0.004000        1.0080           0   0.00000   0.00000
      4428 OAC      81       OAC      O1       OD2C2A   2.054800       15.5994           0   -0.699000   2.39900
      4429 OAC      81       OAC      DO1      DRUD    -2.051800        0.4000           0   0.00000   0.00000
      4430 OAC      81       OAC      O2       OD2C2A   2.054800       15.5994           0   -0.699000   2.39900
      4431 OAC      81       OAC      DO2      DRUD    -2.051800        0.4000           0   0.00000   0.00000
      4432 OAC      81       OAC      H        HDP1A    0.000000        1.0080           0   0.00000   0.00000
      4433 OAC      81       OAC      LPO11    LPD     -0.383000        0.0000           -1   0.00000   0.00000
      4434 OAC      81       OAC      LPO12    LPD     -0.383000        0.0000           -1   0.00000   0.00000
      4435 OAC      81       OAC      LPO21    LPD     -0.383000        0.0000           -1   0.00000   0.00000
      4436 OAC      81       OAC      LPO22    LPD     -0.383000        0.0000           -1   0.00000   0.00000
      4437 OAC      82       OAC      C1       CD2O2A   3.181700       11.6110           0   -1.01600   0.899000
      4438 OAC      82       OAC      DC1      DRUD    -2.473700        0.4000           0   0.00000   0.00000
      4439 OAC      82       OAC      C2       CD33A    2.987900       11.6110           0   -1.68100   1.41400
      4440 OAC      82       OAC      DC2      DRUD    -3.181900        0.4000           0   0.00000   0.00000
      4441 OAC      82       OAC      H1       HDA3A    0.004000        1.0080           0   0.00000   0.00000
      4442 OAC      82       OAC      H2       HDA3A    0.004000        1.0080           0   0.00000   0.00000
      4443 OAC      82       OAC      H3       HDA3A    0.004000        1.0080           0   0.00000   0.00000
      4444 OAC      82       OAC      O1       OD2C2A   2.054800       15.5994           0   -0.699000   2.39900
      4445 OAC      82       OAC      DO1      DRUD    -2.051800        0.4000           0   0.00000   0.00000
      4446 OAC      82       OAC      O2       OD2C2A   2.054800       15.5994           0   -0.699000   2.39900
      4447 OAC      82       OAC      DO2      DRUD    -2.051800        0.4000           0   0.00000   0.00000
      4448 OAC      82       OAC      H        HDP1A    0.000000        1.0080           0   0.00000   0.00000
      4449 OAC      82       OAC      LPO11    LPD     -0.383000        0.0000           -1   0.00000   0.00000
      4450 OAC      82       OAC      LPO12    LPD     -0.383000        0.0000           -1   0.00000   0.00000
      4451 OAC      82       OAC      LPO21    LPD     -0.383000        0.0000           -1   0.00000   0.00000
      4452 OAC      82       OAC      LPO22    LPD     -0.383000        0.0000           -1   0.00000   0.00000
      4453 OAC      83       OAC      C1       CD2O2A   3.181700       11.6110           0   -1.01600   0.899000
      4454 OAC      83       OAC      DC1      DRUD    -2.473700        0.4000           0   0.00000   0.00000
      4455 OAC      83       OAC      C2       CD33A    2.987900       11.6110           0   -1.68100   1.41400
      4456 OAC      83       OAC      DC2      DRUD    -3.181900        0.4000           0   0.00000   0.00000
      4457 OAC      83       OAC      H1       HDA3A    0.004000        1.0080           0   0.00000   0.00000
      4458 OAC      83       OAC      H2       HDA3A    0.004000        1.0080           0   0.00000   0.00000
      4459 OAC      83       OAC      H3       HDA3A    0.004000        1.0080           0   0.00000   0.00000
      4460 OAC      83       OAC      O1       OD2C2A   2.054800       15.5994           0   -0.699000   2.39900
      4461 OAC      83       OAC      DO1      DRUD    -2.051800        0.4000           0   0.00000   0.00000
      4462 OAC      83       OAC      O2       OD2C2A   2.054800       15.5994           0   -0.699000   2.39900
      4463 OAC      83       OAC      DO2      DRUD    -2.051800        0.4000           0   0.00000   0.00000
      4464 OAC      83       OAC      H        HDP1A    0.000000        1.0080           0   0.00000   0.00000
      4465 OAC      83       OAC      LPO11    LPD     -0.383000        0.0000           -1   0.00000   0.00000
      4466 OAC      83       OAC      LPO12    LPD     -0.383000        0.0000           -1   0.00000   0.00000
      4467 OAC      83       OAC      LPO21    LPD     -0.383000        0.0000           -1   0.00000   0.00000
      4468 OAC      83       OAC      LPO22    LPD     -0.383000        0.0000           -1   0.00000   0.00000
      4469 OAC      84       OAC      C1       CD2O2A   3.181700       11.6110           0   -1.01600   0.899000
      4470 OAC      84       OAC      DC1      DRUD    -2.473700        0.4000           0   0.00000   0.00000
      4471 OAC      84       OAC      C2       CD33A    2.987900       11.6110           0   -1.68100   1.41400
      4472 OAC      84       OAC      DC2      DRUD    -3.181900        0.4000           0   0.00000   0.00000
      4473 OAC      84       OAC      H1       HDA3A    0.004000        1.0080           0   0.00000   0.00000
      4474 OAC      84       OAC      H2       HDA3A    0.004000        1.0080           0   0.00000   0.00000
      4475 OAC      84       OAC      H3       HDA3A    0.004000        1.0080           0   0.00000   0.00000
      4476 OAC      84       OAC      O1       OD2C2A   2.054800       15.5994           0   -0.699000   2.39900
      4477 OAC      84       OAC      DO1      DRUD    -2.051800        0.4000           0   0.00000   0.00000
      4478 OAC      84       OAC      O2       OD2C2A   2.054800       15.5994           0   -0.699000   2.39900
      4479 OAC      84       OAC      DO2      DRUD    -2.051800        0.4000           0   0.00000   0.00000
      4480 OAC      84       OAC      H        HDP1A    0.000000        1.0080           0   0.00000   0.00000
      4481 OAC      84       OAC      LPO11    LPD     -0.383000        0.0000           -1   0.00000   0.00000
      4482 OAC      84       OAC      LPO12    LPD     -0.383000        0.0000           -1   0.00000   0.00000
      4483 OAC      84       OAC      LPO21    LPD     -0.383000        0.0000           -1   0.00000   0.00000
      4484 OAC      84       OAC      LPO22    LPD     -0.383000        0.0000           -1   0.00000   0.00000
      4485 OAC      85       OAC      C1       CD2O2A   3.181700       11.6110           0   -1.01600   0.899000
      4486 OAC      85       OAC      DC1      DRUD    -2.473700        0.4000           0   0.00000   0.00000
      4487 OAC      85       OAC      C2       CD33A    2.987900       11.6110           0   -1.68100   1.41400
      4488 OAC      85       OAC      DC2      DRUD    -3.181900        0.4000           0   0.00000   0.00000
      4489 OAC      85       OAC      H1       HDA3A    0.004000        1.0080           0   0.00000   0.00000
      4490 OAC      85       OAC      H2       HDA3A    0.004000        1.0080           0   0.00000   0.00000
      4491 OAC      85       OAC      H3       HDA3A    0.004000        1.0080           0   0.00000   0.00000
      4492 OAC      85       OAC      O1       OD2C2A   2.054800       15.5994           0   -0.699000   2.39900
      4493 OAC      85       OAC      DO1      DRUD    -2.051800        0.4000           0   0.00000   0.00000
      4494 OAC      85       OAC      O2       OD2C2A   2.054800       15.5994           0   -0.699000   2.39900
      4495 OAC      85       OAC      DO2      DRUD    -2.051800        0.4000           0   0.00000   0.00000
      4496 OAC      85       OAC      H        HDP1A    0.000000        1.0080           0   0.00000   0.00000
      4497 OAC      85       OAC      LPO11    LPD     -0.383000        0.0000           -1   0.00000   0.00000
      4498 OAC      85       OAC      LPO12    LPD     -0.383000        0.0000           -1   0.00000   0.00000
      4499 OAC      85       OAC      LPO21    LPD     -0.383000        0.0000           -1   0.00000   0.00000
      4500 OAC      85       OAC      LPO22    LPD     -0.383000        0.0000           -1   0.00000   0.00000
      4501 OAC      86       OAC      C1       CD2O2A   3.181700       11.6110           0   -1.01600   0.899000
      4502 OAC      86       OAC      DC1      DRUD    -2.473700        0.4000           0   0.00000   0.00000
      4503 OAC      86       OAC      C2       CD33A    2.987900       11.6110           0   -1.68100   1.41400
      4504 OAC      86       OAC      DC2      DRUD    -3.181900        0.4000           0   0.00000   0.00000
      4505 OAC      86       OAC      H1       HDA3A    0.004000        1.0080           0   0.00000   0.00000
      4506 OAC      86       OAC      H2       HDA3A    0.004000        1.0080           0   0.00000   0.00000
      4507 OAC      86       OAC      H3       HDA3A    0.004000        1.0080           0   0.00000   0.00000
      4508 OAC      86       OAC      O1       OD2C2A   2.054800       15.5994           0   -0.699000   2.39900
      4509 OAC      86       OAC      DO1      DRUD    -2.051800        0.4000           0   0.00000   0.00000
      4510 OAC      86       OAC      O2       OD2C2A   2.054800       15.5994           0   -0.699000   2.39900
      4511 OAC      86       OAC      DO2      DRUD    -2.051800        0.4000           0   0.00000   0.00000
      4512 OAC      86       OAC      H        HDP1A    0.000000        1.0080           0   0.00000   0.00000
      4513 OAC      86       OAC      LPO11    LPD     -0.383000        0.0000           -1   0.00000   0.00000
      4514 OAC      86       OAC      LPO12    LPD     -0.383000        0.0000           -1   0.00000   0.00000
      4515 OAC      86       OAC      LPO21    LPD     -0.383000        0.0000           -1   0.00000   0.00000
      4516 OAC      86       OAC      LPO22    LPD     -0.383000        0.0000           -1   0.00000   0.00000
      4517 OAC      87       OAC      C1       CD2O2A   3.181700       11.6110           0   -1.01600   0.899000
      4518 OAC      87       OAC      DC1      DRUD    -2.473700        0.4000           0   0.00000   0.00000
      4519 OAC      87       OAC      C2       CD33A    2.987900       11.6110           0   -1.68100   1.41400
      4520 OAC      87       OAC      DC2      DRUD    -3.181900        0.4000           0   0.00000   0.00000
      4521 OAC      87       OAC      H1       HDA3A    0.004000        1.0080           0   0.00000   0.00000
      4522 OAC      87       OAC      H2       HDA3A    0.004000        1.0080           0   0.00000   0.00000
      4523 OAC      87       OAC      H3       HDA3A    0.004000        1.0080           0   0.00000   0.00000
      4524 OAC      87       OAC      O1       OD2C2A   2.054800       15.5994           0   -0.699000   2.39900
      4525 OAC      87       OAC      DO1      DRUD    -2.051800        0.4000           0   0.00000   0.00000
      4526 OAC      87       OAC      O2       OD2C2A   2.054800       15.5994           0   -0.699000   2.39900
      4527 OAC      87       OAC      DO2      DRUD    -2.051800        0.4000           0   0.00000   0.00000
      4528 OAC      87       OAC      H        HDP1A    0.000000        1.0080           0   0.00000   0.00000
      4529 OAC      87       OAC      LPO11    LPD     -0.383000        0.0000           -1   0.00000   0.00000
      4530 OAC      87       OAC      LPO12    LPD     -0.383000        0.0000           -1   0.00000   0.00000
      4531 OAC      87       OAC      LPO21    LPD     -0.383000        0.0000           -1   0.00000   0.00000
      4532 OAC      87       OAC      LPO22    LPD     -0.383000        0.0000           -1   0.00000   0.00000
      4533 OAC      88       OAC      C1       CD2O2A   3.181700       11.6110           0   -1.01600   0.899000
      4534 OAC      88       OAC      DC1      DRUD    -2.473700        0.4000           0   0.00000   0.00000
      4535 OAC      88       OAC      C2       CD33A    2.987900       11.6110           0   -1.68100   1.41400
      4536 OAC      88       OAC      DC2      DRUD    -3.181900        0.4000           0   0.00000   0.00000
      4537 OAC      88       OAC      H1       HDA3A    0.004000        1.0080           0   0.00000   0.00000
      4538 OAC      88       OAC      H2       HDA3A    0.004000        1.0080           0   0.00000   0.00000
      4539 OAC      88       OAC      H3       HDA3A    0.004000        1.0080           0   0.00000   0.00000
      4540 OAC      88       OAC      O1       OD2C2A   2.054800       15.5994           0   -0.699000   2.39900
      4541 OAC      88       OAC      DO1      DRUD    -2.051800        0.4000           0   0.00000   0.00000
      4542 OAC      88       OAC      O2       OD2C2A   2.054800       15.5994           0   -0.699000   2.39900
      4543 OAC      88       OAC      DO2      DRUD    -2.051800        0.4000           0   0.00000   0.00000
      4544 OAC      88       OAC      H        HDP1A    0.000000        1.0080           0   0.00000   0.00000
      4545 OAC      88       OAC      LPO11    LPD     -0.383000        0.0000           -1   0.00000   0.00000
      4546 OAC      88       OAC      LPO12    LPD     -0.383000        0.0000           -1   0.00000   0.00000
      4547 OAC      88       OAC      LPO21    LPD     -0.383000        0.0000           -1   0.00000   0.00000
      4548 OAC      88       OAC      LPO22    LPD     -0.383000        0.0000           -1   0.00000   0.00000
      4549 OAC      89       OAC      C1       CD2O2A   3.181700       11.6110           0   -1.01600   0.899000
      4550 OAC      89       OAC      DC1      DRUD    -2.473700        0.4000           0   0.00000   0.00000
      4551 OAC      89       OAC      C2       CD33A    2.987900       11.6110           0   -1.68100   1.41400
      4552 OAC      89       OAC      DC2      DRUD    -3.181900        0.4000           0   0.00000   0.00000
      4553 OAC      89       OAC      H1       HDA3A    0.004000        1.0080           0   0.00000   0.00000
      4554 OAC      89       OAC      H2       HDA3A    0.004000        1.0080           0   0.00000   0.00000
      4555 OAC      89       OAC      H3       HDA3A    0.004000        1.0080           0   0.00000   0.00000
      4556 OAC      89       OAC      O1       OD2C2A   2.054800       15.5994           0   -0.699000   2.39900
      4557 OAC      89       OAC      DO1      DRUD    -2.051800        0.4000           0   0.00000   0.00000
      4558 OAC      89       OAC      O2       OD2C2A   2.054800       15.5994           0   -0.699000   2.39900
      4559 OAC      89       OAC      DO2      DRUD    -2.051800        0.4000           0   0.00000   0.00000
      4560 OAC      89       OAC      H        HDP1A    0.000000        1.0080           0   0.00000   0.00000
      4561 OAC      89       OAC      LPO11    LPD     -0.383000        0.0000           -1   0.00000   0.00000
      4562 OAC      89       OAC      LPO12    LPD     -0.383000        0.0000           -1   0.00000   0.00000
      4563 OAC      89       OAC      LPO21    LPD     -0.383000        0.0000           -1   0.00000   0.00000
      4564 OAC      89       OAC      LPO22    LPD     -0.383000        0.0000           -1   0.00000   0.00000
      4565 OAC      90       OAC      C1       CD2O2A   3.181700       11.6110           0   -1.01600   0.899000
      4566 OAC      90       OAC      DC1      DRUD    -2.473700        0.4000           0   0.00000   0.00000
      4567 OAC      90       OAC      C2       CD33A    2.987900       11.6110           0   -1.68100   1.41400
      4568 OAC      90       OAC      DC2      DRUD    -3.181900        0.4000           0   0.00000   0.00000
      4569 OAC      90       OAC      H1       HDA3A    0.004000        1.0080           0   0.00000   0.00000
      4570 OAC      90       OAC      H2       HDA3A    0.004000        1.0080           0   0.00000   0.00000
      4571 OAC      90       OAC      H3       HDA3A    0.004000        1.0080           0   0.00000   0.00000
      4572 OAC      90       OAC      O1       OD2C2A   2.054800       15.5994           0   -0.699000   2.39900
      4573 OAC      90       OAC      DO1      DRUD    -2.051800        0.4000           0   0.00000   0.00000
      4574 OAC      90       OAC      O2       OD2C2A   2.054800       15.5994           0   -0.699000   2.39900
      4575 OAC      90       OAC      DO2      DRUD    -2.051800        0.4000           0   0.00000   0.00000
      4576 OAC      90       OAC      H        HDP1A    0.000000        1.0080           0   0.00000   0.00000
      4577 OAC      90       OAC      LPO11    LPD     -0.383000        0.0000           -1   0.00000   0.00000
      4578 OAC      90       OAC      LPO12    LPD     -0.383000        0.0000           -1   0.00000   0.00000
      4579 OAC      90       OAC      LPO21    LPD     -0.383000        0.0000           -1   0.00000   0.00000
      4580 OAC      90       OAC      LPO22    LPD     -0.383000        0.0000           -1   0.00000   0.00000
      4581 OAC      91       OAC      C1       CD2O2A   3.181700       11.6110           0   -1.01600   0.899000
      4582 OAC      91       OAC      DC1      DRUD    -2.473700        0.4000           0   0.00000   0.00000
      4583 OAC      91       OAC      C2       CD33A    2.987900       11.6110           0   -1.68100   1.41400
      4584 OAC      91       OAC      DC2      DRUD    -3.181900        0.4000           0   0.00000   0.00000
      4585 OAC      91       OAC      H1       HDA3A    0.004000        1.0080           0   0.00000   0.00000
      4586 OAC      91       OAC      H2       HDA3A    0.004000        1.0080           0   0.00000   0.00000
      4587 OAC      91       OAC      H3       HDA3A    0.004000        1.0080           0   0.00000   0.00000
      4588 OAC      91       OAC      O1       OD2C2A   2.054800       15.5994           0   -0.699000   2.39900
      4589 OAC      91       OAC      DO1      DRUD    -2.051800        0.4000           0   0.00000   0.00000
      4590 OAC      91       OAC      O2       OD2C2A   2.054800       15.5994           0   -0.699000   2.39900
      4591 OAC      91       OAC      DO2      DRUD    -2.051800        0.4000           0   0.00000   0.00000
      4592 OAC      91       OAC      H        HDP1A    0.000000        1.0080           0   0.00000   0.00000
      4593 OAC      91       OAC      LPO11    LPD     -0.383000        0.0000           -1   0.00000   0.00000
      4594 OAC      91       OAC      LPO12    LPD     -0.383000        0.0000           -1   0.00000   0.00000
      4595 OAC      91       OAC      LPO21    LPD     -0.383000        0.0000           -1   0.00000   0.00000
      4596 OAC      91       OAC      LPO22    LPD     -0.383000        0.0000           -1   0.00000   0.00000
      4597 OAC      92       OAC      C1       CD2O2A   3.181700       11.6110           0   -1.01600   0.899000
      4598 OAC      92       OAC      DC1      DRUD    -2.473700        0.4000           0   0.00000   0.00000
      4599 OAC      92       OAC      C2       CD33A    2.987900       11.6110           0   -1.68100   1.41400
      4600 OAC      92       OAC      DC2      DRUD    -3.181900        0.4000           0   0.00000   0.00000
      4601 OAC      92       OAC      H1       HDA3A    0.004000        1.0080           0   0.00000   0.00000
      4602 OAC      92       OAC      H2       HDA3A    0.004000        1.0080           0   0.00000   0.00000
      4603 OAC      92       OAC      H3       HDA3A    0.004000        1.0080           0   0.00000   0.00000
      4604 OAC      92       OAC      O1       OD2C2A   2.054800       15.5994           0   -0.699000   2.39900
      4605 OAC      92       OAC      DO1      DRUD    -2.051800        0.4000           0   0.00000   0.00000
      4606 OAC      92       OAC      O2       OD2C2A   2.054800       15.5994           0   -0.699000   2.39900
      4607 OAC      92       OAC      DO2      DRUD    -2.051800        0.4000           0   0.00000   0.00000
      4608 OAC      92       OAC      H        HDP1A    0.000000        1.0080           0   0.00000   0.00000
      4609 OAC      92       OAC      LPO11    LPD     -0.383000        0.0000           -1   0.00000   0.00000
      4610 OAC      92       OAC      LPO12    LPD     -0.383000        0.0000           -1   0.00000   0.00000
      4611 OAC      92       OAC      LPO21    LPD     -0.383000        0.0000           -1   0.00000   0.00000
      4612 OAC      92       OAC      LPO22    LPD     -0.383000        0.0000           -1   0.00000   0.00000
      4613 OAC      93       OAC      C1       CD2O2A   3.181700       11.6110           0   -1.01600   0.899000
      4614 OAC      93       OAC      DC1      DRUD    -2.473700        0.4000           0   0.00000   0.00000
      4615 OAC      93       OAC      C2       CD33A    2.987900       11.6110           0   -1.68100   1.41400
      4616 OAC      93       OAC      DC2      DRUD    -3.181900        0.4000           0   0.00000   0.00000
      4617 OAC      93       OAC      H1       HDA3A    0.004000        1.0080           0   0.00000   0.00000
      4618 OAC      93       OAC      H2       HDA3A    0.004000        1.0080           0   0.00000   0.00000
      4619 OAC      93       OAC      H3       HDA3A    0.004000        1.0080           0   0.00000   0.00000
      4620 OAC      93       OAC      O1       OD2C2A   2.054800       15.5994           0   -0.699000   2.39900
      4621 OAC      93       OAC      DO1      DRUD    -2.051800        0.4000           0   0.00000   0.00000
      4622 OAC      93       OAC      O2       OD2C2A   2.054800       15.5994           0   -0.699000   2.39900
      4623 OAC      93       OAC      DO2      DRUD    -2.051800        0.4000           0   0.00000   0.00000
      4624 OAC      93       OAC      H        HDP1A    0.000000        1.0080           0   0.00000   0.00000
      4625 OAC      93       OAC      LPO11    LPD     -0.383000        0.0000           -1   0.00000   0.00000
      4626 OAC      93       OAC      LPO12    LPD     -0.383000        0.0000           -1   0.00000   0.00000
      4627 OAC      93       OAC      LPO21    LPD     -0.383000        0.0000           -1   0.00000   0.00000
      4628 OAC      93       OAC      LPO22    LPD     -0.383000        0.0000           -1   0.00000   0.00000
      4629 OAC      94       OAC      C1       CD2O2A   3.181700       11.6110           0   -1.01600   0.899000
      4630 OAC      94       OAC      DC1      DRUD    -2.473700        0.4000           0   0.00000   0.00000
      4631 OAC      94       OAC      C2       CD33A    2.987900       11.6110           0   -1.68100   1.41400
      4632 OAC      94       OAC      DC2      DRUD    -3.181900        0.4000           0   0.00000   0.00000
      4633 OAC      94       OAC      H1       HDA3A    0.004000        1.0080           0   0.00000   0.00000
      4634 OAC      94       OAC      H2       HDA3A    0.004000        1.0080           0   0.00000   0.00000
      4635 OAC      94       OAC      H3       HDA3A    0.004000        1.0080           0   0.00000   0.00000
      4636 OAC      94       OAC      O1       OD2C2A   2.054800       15.5994           0   -0.699000   2.39900
      4637 OAC      94       OAC      DO1      DRUD    -2.051800        0.4000           0   0.00000   0.00000
      4638 OAC      94       OAC      O2       OD2C2A   2.054800       15.5994           0   -0.699000   2.39900
      4639 OAC      94       OAC      DO2      DRUD    -2.051800        0.4000           0   0.00000   0.00000
      4640 OAC      94       OAC      H        HDP1A    0.000000        1.0080           0   0.00000   0.00000
      4641 OAC      94       OAC      LPO11    LPD     -0.383000        0.0000           -1   0.00000   0.00000
      4642 OAC      94       OAC      LPO12    LPD     -0.383000        0.0000           -1   0.00000   0.00000
      4643 OAC      94       OAC      LPO21    LPD     -0.383000        0.0000           -1   0.00000   0.00000
      4644 OAC      94       OAC      LPO22    LPD     -0.383000        0.0000           -1   0.00000   0.00000
      4645 OAC      95       OAC      C1       CD2O2A   3.181700       11.6110           0   -1.01600   0.899000
      4646 OAC      95       OAC      DC1      DRUD    -2.473700        0.4000           0   0.00000   0.00000
      4647 OAC      95       OAC      C2       CD33A    2.987900       11.6110           0   -1.68100   1.41400
      4648 OAC      95       OAC      DC2      DRUD    -3.181900        0.4000           0   0.00000   0.00000
      4649 OAC      95       OAC      H1       HDA3A    0.004000        1.0080           0   0.00000   0.00000
      4650 OAC      95       OAC      H2       HDA3A    0.004000        1.0080           0   0.00000   0.00000
      4651 OAC      95       OAC      H3       HDA3A    0.004000        1.0080           0   0.00000   0.00000
      4652 OAC      95       OAC      O1       OD2C2A   2.054800       15.5994           0   -0.699000   2.39900
      4653 OAC      95       OAC      DO1      DRUD    -2.051800        0.4000           0   0.00000   0.00000
      4654 OAC      95       OAC      O2       OD2C2A   2.054800       15.5994           0   -0.699000   2.39900
      4655 OAC      95       OAC      DO2      DRUD    -2.051800        0.4000           0   0.00000   0.00000
      4656 OAC      95       OAC      H        HDP1A    0.000000        1.0080           0   0.00000   0.00000
      4657 OAC      95       OAC      LPO11    LPD     -0.383000        0.0000           -1   0.00000   0.00000
      4658 OAC      95       OAC      LPO12    LPD     -0.383000        0.0000           -1   0.00000   0.00000
      4659 OAC      95       OAC      LPO21    LPD     -0.383000        0.0000           -1   0.00000   0.00000
      4660 OAC      95       OAC      LPO22    LPD     -0.383000        0.0000           -1   0.00000   0.00000
      4661 OAC      96       OAC      C1       CD2O2A   3.181700       11.6110           0   -1.01600   0.899000
      4662 OAC      96       OAC      DC1      DRUD    -2.473700        0.4000           0   0.00000   0.00000
      4663 OAC      96       OAC      C2       CD33A    2.987900       11.6110           0   -1.68100   1.41400
      4664 OAC      96       OAC      DC2      DRUD    -3.181900        0.4000           0   0.00000   0.00000
      4665 OAC      96       OAC      H1       HDA3A    0.004000        1.0080           0   0.00000   0.00000
      4666 OAC      96       OAC      H2       HDA3A    0.004000        1.0080           0   0.00000   0.00000
      4667 OAC      96       OAC      H3       HDA3A    0.004000        1.0080           0   0.00000   0.00000
      4668 OAC      96       OAC      O1       OD2C2A   2.054800       15.5994           0   -0.699000   2.39900
      4669 OAC      96       OAC      DO1      DRUD    -2.051800        0.4000           0   0.00000   0.00000
      4670 OAC      96       OAC      O2       OD2C2A   2.054800       15.5994           0   -0.699000   2.39900
      4671 OAC      96       OAC      DO2      DRUD    -2.051800        0.4000           0   0.00000   0.00000
      4672 OAC      96       OAC      H        HDP1A    0.000000        1.0080           0   0.00000   0.00000
      4673 OAC      96       OAC      LPO11    LPD     -0.383000        0.0000           -1   0.00000   0.00000
      4674 OAC      96       OAC      LPO12    LPD     -0.383000        0.0000           -1   0.00000   0.00000
      4675 OAC      96       OAC      LPO21    LPD     -0.383000        0.0000           -1   0.00000   0.00000
      4676 OAC      96       OAC      LPO22    LPD     -0.383000        0.0000           -1   0.00000   0.00000
      4677 OAC      97       OAC      C1       CD2O2A   3.181700       11.6110           0   -1.01600   0.899000
      4678 OAC      97       OAC      DC1      DRUD    -2.473700        0.4000           0   0.00000   0.00000
      4679 OAC      97       OAC      C2       CD33A    2.987900       11.6110           0   -1.68100   1.41400
      4680 OAC      97       OAC      DC2      DRUD    -3.181900        0.4000           0   0.00000   0.00000
      4681 OAC      97       OAC      H1       HDA3A    0.004000        1.0080           0   0.00000   0.00000
      4682 OAC      97       OAC      H2       HDA3A    0.004000        1.0080           0   0.00000   0.00000
      4683 OAC      97       OAC      H3       HDA3A    0.004000        1.0080           0   0.00000   0.00000
      4684 OAC      97       OAC      O1       OD2C2A   2.054800       15.5994           0   -0.699000   2.39900
      4685 OAC      97       OAC      DO1      DRUD    -2.051800        0.4000           0   0.00000   0.00000
      4686 OAC      97       OAC      O2       OD2C2A   2.054800       15.5994           0   -0.699000   2.39900
      4687 OAC      97       OAC      DO2      DRUD    -2.051800        0.4000           0   0.00000   0.00000
      4688 OAC      97       OAC      H        HDP1A    0.000000        1.0080           0   0.00000   0.00000
      4689 OAC      97       OAC      LPO11    LPD     -0.383000        0.0000           -1   0.00000   0.00000
      4690 OAC      97       OAC      LPO12    LPD     -0.383000        0.0000           -1   0.00000   0.00000
      4691 OAC      97       OAC      LPO21    LPD     -0.383000        0.0000           -1   0.00000   0.00000
      4692 OAC      97       OAC      LPO22    LPD     -0.383000        0.0000           -1   0.00000   0.00000
      4693 OAC      98       OAC      C1       CD2O2A   3.181700       11.6110           0   -1.01600   0.899000
      4694 OAC      98       OAC      DC1      DRUD    -2.473700        0.4000           0   0.00000   0.00000
      4695 OAC      98       OAC      C2       CD33A    2.987900       11.6110           0   -1.68100   1.41400
      4696 OAC      98       OAC      DC2      DRUD    -3.181900        0.4000           0   0.00000   0.00000
      4697 OAC      98       OAC      H1       HDA3A    0.004000        1.0080           0   0.00000   0.00000
      4698 OAC      98       OAC      H2       HDA3A    0.004000        1.0080           0   0.00000   0.00000
      4699 OAC      98       OAC      H3       HDA3A    0.004000        1.0080           0   0.00000   0.00000
      4700 OAC      98       OAC      O1       OD2C2A   2.054800       15.5994           0   -0.699000   2.39900
      4701 OAC      98       OAC      DO1      DRUD    -2.051800        0.4000           0   0.00000   0.00000
      4702 OAC      98       OAC      O2       OD2C2A   2.054800       15.5994           0   -0.699000   2.39900
      4703 OAC      98       OAC      DO2      DRUD    -2.051800        0.4000           0   0.00000   0.00000
      4704 OAC      98       OAC      H        HDP1A    0.000000        1.0080           0   0.00000   0.00000
      4705 OAC      98       OAC      LPO11    LPD     -0.383000        0.0000           -1   0.00000   0.00000
      4706 OAC      98       OAC      LPO12    LPD     -0.383000        0.0000           -1   0.00000   0.00000
      4707 OAC      98       OAC      LPO21    LPD     -0.383000        0.0000           -1   0.00000   0.00000
      4708 OAC      98       OAC      LPO22    LPD     -0.383000        0.0000           -1   0.00000   0.00000
      4709 OAC      99       OAC      C1       CD2O2A   3.181700       11.6110           0   -1.01600   0.899000
      4710 OAC      99       OAC      DC1      DRUD    -2.473700        0.4000           0   0.00000   0.00000
      4711 OAC      99       OAC      C2       CD33A    2.987900       11.6110           0   -1.68100   1.41400
      4712 OAC      99       OAC      DC2      DRUD    -3.181900        0.4000           0   0.00000   0.00000
      4713 OAC      99       OAC      H1       HDA3A    0.004000        1.0080           0   0.00000   0.00000
      4714 OAC      99       OAC      H2       HDA3A    0.004000        1.0080           0   0.00000   0.00000
      4715 OAC      99       OAC      H3       HDA3A    0.004000        1.0080           0   0.00000   0.00000
      4716 OAC      99       OAC      O1       OD2C2A   2.054800       15.5994           0   -0.699000   2.39900
      4717 OAC      99       OAC      DO1      DRUD    -2.051800        0.4000           0   0.00000   0.00000
      4718 OAC      99       OAC      O2       OD2C2A   2.054800       15.5994           0   -0.699000   2.39900
      4719 OAC      99       OAC      DO2      DRUD    -2.051800        0.4000           0   0.00000   0.00000
      4720 OAC      99       OAC      H        HDP1A    0.000000        1.0080           0   0.00000   0.00000
      4721 OAC      99       OAC      LPO11    LPD     -0.383000        0.0000           -1   0.00000   0.00000
      4722 OAC      99       OAC      LPO12    LPD     -0.383000        0.0000           -1   0.00000   0.00000
      4723 OAC      99       OAC      LPO21    LPD     -0.383000        0.0000           -1   0.00000   0.00000
      4724 OAC      99       OAC      LPO22    LPD     -0.383000        0.0000           -1   0.00000   0.00000
      4725 OAC      100      OAC      C1       CD2O2A   3.181700       11.6110           0   -1.01600   0.899000
      4726 OAC      100      OAC      DC1      DRUD    -2.473700        0.4000           0   0.00000   0.00000
      4727 OAC      100      OAC      C2       CD33A    2.987900       11.6110           0   -1.68100   1.41400
      4728 OAC      100      OAC      DC2      DRUD    -3.181900        0.4000           0   0.00000   0.00000
      4729 OAC      100      OAC      H1       HDA3A    0.004000        1.0080           0   0.00000   0.00000
      4730 OAC      100      OAC      H2       HDA3A    0.004000        1.0080           0   0.00000   0.00000
      4731 OAC      100      OAC      H3       HDA3A    0.004000        1.0080           0   0.00000   0.00000
      4732 OAC      100      OAC      O1       OD2C2A   2.054800       15.5994           0   -0.699000   2.39900
      4733 OAC      100      OAC      DO1      DRUD    -2.051800        0.4000           0   0.00000   0.00000
      4734 OAC      100      OAC      O2       OD2C2A   2.054800       15.5994           0   -0.699000   2.39900
      4735 OAC      100      OAC      DO2      DRUD    -2.051800        0.4000           0   0.00000   0.00000
      4736 OAC      100      OAC      H        HDP1A    0.000000        1.0080           0   0.00000   0.00000
      4737 OAC      100      OAC      LPO11    LPD     -0.383000        0.0000           -1   0.00000   0.00000
      4738 OAC      100      OAC      LPO12    LPD     -0.383000        0.0000           -1   0.00000   0.00000
      4739 OAC      100      OAC      LPO21    LPD     -0.383000        0.0000           -1   0.00000   0.00000
      4740 OAC      100      OAC      LPO22    LPD     -0.383000        0.0000           -1   0.00000   0.00000
      4741 OAC      101      OAC      C1       CD2O2A   3.181700       11.6110           0   -1.01600   0.899000
      4742 OAC      101      OAC      DC1      DRUD    -2.473700        0.4000           0   0.00000   0.00000
      4743 OAC      101      OAC      C2       CD33A    2.987900       11.6110           0   -1.68100   1.41400
      4744 OAC      101      OAC      DC2      DRUD    -3.181900        0.4000           0   0.00000   0.00000
      4745 OAC      101      OAC      H1       HDA3A    0.004000        1.0080           0   0.00000   0.00000
      4746 OAC      101      OAC      H2       HDA3A    0.004000        1.0080           0   0.00000   0.00000
      4747 OAC      101      OAC      H3       HDA3A    0.004000        1.0080           0   0.00000   0.00000
      4748 OAC      101      OAC      O1       OD2C2A   2.054800       15.5994           0   -0.699000   2.39900
      4749 OAC      101      OAC      DO1      DRUD    -2.051800        0.4000           0   0.00000   0.00000
      4750 OAC      101      OAC      O2       OD2C2A   2.054800       15.5994           0   -0.699000   2.39900
      4751 OAC      101      OAC      DO2      DRUD    -2.051800        0.4000           0   0.00000   0.00000
      4752 OAC      101      OAC      H        HDP1A    0.000000        1.0080           0   0.00000   0.00000
      4753 OAC      101      OAC      LPO11    LPD     -0.383000        0.0000           -1   0.00000   0.00000
      4754 OAC      101      OAC      LPO12    LPD     -0.383000        0.0000           -1   0.00000   0.00000
      4755 OAC      101      OAC      LPO21    LPD     -0.383000        0.0000           -1   0.00000   0.00000
      4756 OAC      101      OAC      LPO22    LPD     -0.383000        0.0000           -1   0.00000   0.00000
      4757 OAC      102      OAC      C1       CD2O2A   3.181700       11.6110           0   -1.01600   0.899000
      4758 OAC      102      OAC      DC1      DRUD    -2.473700        0.4000           0   0.00000   0.00000
      4759 OAC      102      OAC      C2       CD33A    2.987900       11.6110           0   -1.68100   1.41400
      4760 OAC      102      OAC      DC2      DRUD    -3.181900        0.4000           0   0.00000   0.00000
      4761 OAC      102      OAC      H1       HDA3A    0.004000        1.0080           0   0.00000   0.00000
      4762 OAC      102      OAC      H2       HDA3A    0.004000        1.0080           0   0.00000   0.00000
      4763 OAC      102      OAC      H3       HDA3A    0.004000        1.0080           0   0.00000   0.00000
      4764 OAC      102      OAC      O1       OD2C2A   2.054800       15.5994           0   -0.699000   2.39900
      4765 OAC      102      OAC      DO1      DRUD    -2.051800        0.4000           0   0.00000   0.00000
      4766 OAC      102      OAC      O2       OD2C2A   2.054800       15.5994           0   -0.699000   2.39900
      4767 OAC      102      OAC      DO2      DRUD    -2.051800        0.4000           0   0.00000   0.00000
      4768 OAC      102      OAC      H        HDP1A    0.000000        1.0080           0   0.00000   0.00000
      4769 OAC      102      OAC      LPO11    LPD     -0.383000        0.0000           -1   0.00000   0.00000
      4770 OAC      102      OAC      LPO12    LPD     -0.383000        0.0000           -1   0.00000   0.00000
      4771 OAC      102      OAC      LPO21    LPD     -0.383000        0.0000           -1   0.00000   0.00000
      4772 OAC      102      OAC      LPO22    LPD     -0.383000        0.0000           -1   0.00000   0.00000
      4773 OAC      103      OAC      C1       CD2O2A   3.181700       11.6110           0   -1.01600   0.899000
      4774 OAC      103      OAC      DC1      DRUD    -2.473700        0.4000           0   0.00000   0.00000
      4775 OAC      103      OAC      C2       CD33A    2.987900       11.6110           0   -1.68100   1.41400
      4776 OAC      103      OAC      DC2      DRUD    -3.181900        0.4000           0   0.00000   0.00000
      4777 OAC      103      OAC      H1       HDA3A    0.004000        1.0080           0   0.00000   0.00000
      4778 OAC      103      OAC      H2       HDA3A    0.004000        1.0080           0   0.00000   0.00000
      4779 OAC      103      OAC      H3       HDA3A    0.004000        1.0080           0   0.00000   0.00000
      4780 OAC      103      OAC      O1       OD2C2A   2.054800       15.5994           0   -0.699000   2.39900
      4781 OAC      103      OAC      DO1      DRUD    -2.051800        0.4000           0   0.00000   0.00000
      4782 OAC      103      OAC      O2       OD2C2A   2.054800       15.5994           0   -0.699000   2.39900
      4783 OAC      103      OAC      DO2      DRUD    -2.051800        0.4000           0   0.00000   0.00000
      4784 OAC      103      OAC      H        HDP1A    0.000000        1.0080           0   0.00000   0.00000
      4785 OAC      103      OAC      LPO11    LPD     -0.383000        0.0000           -1   0.00000   0.00000
      4786 OAC      103      OAC      LPO12    LPD     -0.383000        0.0000           -1   0.00000   0.00000
      4787 OAC      103      OAC      LPO21    LPD     -0.383000        0.0000           -1   0.00000   0.00000
      4788 OAC      103      OAC      LPO22    LPD     -0.383000        0.0000           -1   0.00000   0.00000
      4789 OAC      104      OAC      C1       CD2O2A   3.181700       11.6110           0   -1.01600   0.899000
      4790 OAC      104      OAC      DC1      DRUD    -2.473700        0.4000           0   0.00000   0.00000
      4791 OAC      104      OAC      C2       CD33A    2.987900       11.6110           0   -1.68100   1.41400
      4792 OAC      104      OAC      DC2      DRUD    -3.181900        0.4000           0   0.00000   0.00000
      4793 OAC      104      OAC      H1       HDA3A    0.004000        1.0080           0   0.00000   0.00000
      4794 OAC      104      OAC      H2       HDA3A    0.004000        1.0080           0   0.00000   0.00000
      4795 OAC      104      OAC      H3       HDA3A    0.004000        1.0080           0   0.00000   0.00000
      4796 OAC      104      OAC      O1       OD2C2A   2.054800       15.5994           0   -0.699000   2.39900
      4797 OAC      104      OAC      DO1      DRUD    -2.051800        0.4000           0   0.00000   0.00000
      4798 OAC      104      OAC      O2       OD2C2A   2.054800       15.5994           0   -0.699000   2.39900
      4799 OAC      104      OAC      DO2      DRUD    -2.051800        0.4000           0   0.00000   0.00000
      4800 OAC      104      OAC      H        HDP1A    0.000000        1.0080           0   0.00000   0.00000
      4801 OAC      104      OAC      LPO11    LPD     -0.383000        0.0000           -1   0.00000   0.00000
      4802 OAC      104      OAC      LPO12    LPD     -0.383000        0.0000           -1   0.00000   0.00000
      4803 OAC      104      OAC      LPO21    LPD     -0.383000        0.0000           -1   0.00000   0.00000
      4804 OAC      104      OAC      LPO22    LPD     -0.383000        0.0000           -1   0.00000   0.00000
      4805 OAC      105      OAC      C1       CD2O2A   3.181700       11.6110           0   -1.01600   0.899000
      4806 OAC      105      OAC      DC1      DRUD    -2.473700        0.4000           0   0.00000   0.00000
      4807 OAC      105      OAC      C2       CD33A    2.987900       11.6110           0   -1.68100   1.41400
      4808 OAC      105      OAC      DC2      DRUD    -3.181900        0.4000           0   0.00000   0.00000
      4809 OAC      105      OAC      H1       HDA3A    0.004000        1.0080           0   0.00000   0.00000
      4810 OAC      105      OAC      H2       HDA3A    0.004000        1.0080           0   0.00000   0.00000
      4811 OAC      105      OAC      H3       HDA3A    0.004000        1.0080           0   0.00000   0.00000
      4812 OAC      105      OAC      O1       OD2C2A   2.054800       15.5994           0   -0.699000   2.39900
      4813 OAC      105      OAC      DO1      DRUD    -2.051800        0.4000           0   0.00000   0.00000
      4814 OAC      105      OAC      O2       OD2C2A   2.054800       15.5994           0   -0.699000   2.39900
      4815 OAC      105      OAC      DO2      DRUD    -2.051800        0.4000           0   0.00000   0.00000
      4816 OAC      105      OAC      H        HDP1A    0.000000        1.0080           0   0.00000   0.00000
      4817 OAC      105      OAC      LPO11    LPD     -0.383000        0.0000           -1   0.00000   0.00000
      4818 OAC      105      OAC      LPO12    LPD     -0.383000        0.0000           -1   0.00000   0.00000
      4819 OAC      105      OAC      LPO21    LPD     -0.383000        0.0000           -1   0.00000   0.00000
      4820 OAC      105      OAC      LPO22    LPD     -0.383000        0.0000           -1   0.00000   0.00000
      4821 OAC      106      OAC      C1       CD2O2A   3.181700       11.6110           0   -1.01600   0.899000
      4822 OAC      106      OAC      DC1      DRUD    -2.473700        0.4000           0   0.00000   0.00000
      4823 OAC      106      OAC      C2       CD33A    2.987900       11.6110           0   -1.68100   1.41400
      4824 OAC      106      OAC      DC2      DRUD    -3.181900        0.4000           0   0.00000   0.00000
      4825 OAC      106      OAC      H1       HDA3A    0.004000        1.0080           0   0.00000   0.00000
      4826 OAC      106      OAC      H2       HDA3A    0.004000        1.0080           0   0.00000   0.00000
      4827 OAC      106      OAC      H3       HDA3A    0.004000        1.0080           0   0.00000   0.00000
      4828 OAC      106      OAC      O1       OD2C2A   2.054800       15.5994           0   -0.699000   2.39900
      4829 OAC      106      OAC      DO1      DRUD    -2.051800        0.4000           0   0.00000   0.00000
      4830 OAC      106      OAC      O2       OD2C2A   2.054800       15.5994           0   -0.699000   2.39900
      4831 OAC      106      OAC      DO2      DRUD    -2.051800        0.4000           0   0.00000   0.00000
      4832 OAC      106      OAC      H        HDP1A    0.000000        1.0080           0   0.00000   0.00000
      4833 OAC      106      OAC      LPO11    LPD     -0.383000        0.0000           -1   0.00000   0.00000
      4834 OAC      106      OAC      LPO12    LPD     -0.383000        0.0000           -1   0.00000   0.00000
      4835 OAC      106      OAC      LPO21    LPD     -0.383000        0.0000           -1   0.00000   0.00000
      4836 OAC      106      OAC      LPO22    LPD     -0.383000        0.0000           -1   0.00000   0.00000
      4837 OAC      107      OAC      C1       CD2O2A   3.181700       11.6110           0   -1.01600   0.899000
      4838 OAC      107      OAC      DC1      DRUD    -2.473700        0.4000           0   0.00000   0.00000
      4839 OAC      107      OAC      C2       CD33A    2.987900       11.6110           0   -1.68100   1.41400
      4840 OAC      107      OAC      DC2      DRUD    -3.181900        0.4000           0   0.00000   0.00000
      4841 OAC      107      OAC      H1       HDA3A    0.004000        1.0080           0   0.00000   0.00000
      4842 OAC      107      OAC      H2       HDA3A    0.004000        1.0080           0   0.00000   0.00000
      4843 OAC      107      OAC      H3       HDA3A    0.004000        1.0080           0   0.00000   0.00000
      4844 OAC      107      OAC      O1       OD2C2A   2.054800       15.5994           0   -0.699000   2.39900
      4845 OAC      107      OAC      DO1      DRUD    -2.051800        0.4000           0   0.00000   0.00000
      4846 OAC      107      OAC      O2       OD2C2A   2.054800       15.5994           0   -0.699000   2.39900
      4847 OAC      107      OAC      DO2      DRUD    -2.051800        0.4000           0   0.00000   0.00000
      4848 OAC      107      OAC      H        HDP1A    0.000000        1.0080           0   0.00000   0.00000
      4849 OAC      107      OAC      LPO11    LPD     -0.383000        0.0000           -1   0.00000   0.00000
      4850 OAC      107      OAC      LPO12    LPD     -0.383000        0.0000           -1   0.00000   0.00000
      4851 OAC      107      OAC      LPO21    LPD     -0.383000        0.0000           -1   0.00000   0.00000
      4852 OAC      107      OAC      LPO22    LPD     -0.383000        0.0000           -1   0.00000   0.00000
      4853 OAC      108      OAC      C1       CD2O2A   3.181700       11.6110           0   -1.01600   0.899000
      4854 OAC      108      OAC      DC1      DRUD    -2.473700        0.4000           0   0.00000   0.00000
      4855 OAC      108      OAC      C2       CD33A    2.987900       11.6110           0   -1.68100   1.41400
      4856 OAC      108      OAC      DC2      DRUD    -3.181900        0.4000           0   0.00000   0.00000
      4857 OAC      108      OAC      H1       HDA3A    0.004000        1.0080           0   0.00000   0.00000
      4858 OAC      108      OAC      H2       HDA3A    0.004000        1.0080           0   0.00000   0.00000
      4859 OAC      108      OAC      H3       HDA3A    0.004000        1.0080           0   0.00000   0.00000
      4860 OAC      108      OAC      O1       OD2C2A   2.054800       15.5994           0   -0.699000   2.39900
      4861 OAC      108      OAC      DO1      DRUD    -2.051800        0.4000           0   0.00000   0.00000
      4862 OAC      108      OAC      O2       OD2C2A   2.054800       15.5994           0   -0.699000   2.39900
      4863 OAC      108      OAC      DO2      DRUD    -2.051800        0.4000           0   0.00000   0.00000
      4864 OAC      108      OAC      H        HDP1A    0.000000        1.0080           0   0.00000   0.00000
      4865 OAC      108      OAC      LPO11    LPD     -0.383000        0.0000           -1   0.00000   0.00000
      4866 OAC      108      OAC      LPO12    LPD     -0.383000        0.0000           -1   0.00000   0.00000
      4867 OAC      108      OAC      LPO21    LPD     -0.383000        0.0000           -1   0.00000   0.00000
      4868 OAC      108      OAC      LPO22    LPD     -0.383000        0.0000           -1   0.00000   0.00000
      4869 OAC      109      OAC      C1       CD2O2A   3.181700       11.6110           0   -1.01600   0.899000
      4870 OAC      109      OAC      DC1      DRUD    -2.473700        0.4000           0   0.00000   0.00000
      4871 OAC      109      OAC      C2       CD33A    2.987900       11.6110           0   -1.68100   1.41400
      4872 OAC      109      OAC      DC2      DRUD    -3.181900        0.4000           0   0.00000   0.00000
      4873 OAC      109      OAC      H1       HDA3A    0.004000        1.0080           0   0.00000   0.00000
      4874 OAC      109      OAC      H2       HDA3A    0.004000        1.0080           0   0.00000   0.00000
      4875 OAC      109      OAC      H3       HDA3A    0.004000        1.0080           0   0.00000   0.00000
      4876 OAC      109      OAC      O1       OD2C2A   2.054800       15.5994           0   -0.699000   2.39900
      4877 OAC      109      OAC      DO1      DRUD    -2.051800        0.4000           0   0.00000   0.00000
      4878 OAC      109      OAC      O2       OD2C2A   2.054800       15.5994           0   -0.699000   2.39900
      4879 OAC      109      OAC      DO2      DRUD    -2.051800        0.4000           0   0.00000   0.00000
      4880 OAC      109      OAC      H        HDP1A    0.000000        1.0080           0   0.00000   0.00000
      4881 OAC      109      OAC      LPO11    LPD     -0.383000        0.0000           -1   0.00000   0.00000
      4882 OAC      109      OAC      LPO12    LPD     -0.383000        0.0000           -1   0.00000   0.00000
      4883 OAC      109      OAC      LPO21    LPD     -0.383000        0.0000           -1   0.00000   0.00000
      4884 OAC      109      OAC      LPO22    LPD     -0.383000        0.0000           -1   0.00000   0.00000
      4885 OAC      110      OAC      C1       CD2O2A   3.181700       11.6110           0   -1.01600   0.899000
      4886 OAC      110      OAC      DC1      DRUD    -2.473700        0.4000           0   0.00000   0.00000
      4887 OAC      110      OAC      C2       CD33A    2.987900       11.6110           0   -1.68100   1.41400
      4888 OAC      110      OAC      DC2      DRUD    -3.181900        0.4000           0   0.00000   0.00000
      4889 OAC      110      OAC      H1       HDA3A    0.004000        1.0080           0   0.00000   0.00000
      4890 OAC      110      OAC      H2       HDA3A    0.004000        1.0080           0   0.00000   0.00000
      4891 OAC      110      OAC      H3       HDA3A    0.004000        1.0080           0   0.00000   0.00000
      4892 OAC      110      OAC      O1       OD2C2A   2.054800       15.5994           0   -0.699000   2.39900
      4893 OAC      110      OAC      DO1      DRUD    -2.051800        0.4000           0   0.00000   0.00000
      4894 OAC      110      OAC      O2       OD2C2A   2.054800       15.5994           0   -0.699000   2.39900
      4895 OAC      110      OAC      DO2      DRUD    -2.051800        0.4000           0   0.00000   0.00000
      4896 OAC      110      OAC      H        HDP1A    0.000000        1.0080           0   0.00000   0.00000
      4897 OAC      110      OAC      LPO11    LPD     -0.383000        0.0000           -1   0.00000   0.00000
      4898 OAC      110      OAC      LPO12    LPD     -0.383000        0.0000           -1   0.00000   0.00000
      4899 OAC      110      OAC      LPO21    LPD     -0.383000        0.0000           -1   0.00000   0.00000
      4900 OAC      110      OAC      LPO22    LPD     -0.383000        0.0000           -1   0.00000   0.00000
      4901 OAC      111      OAC      C1       CD2O2A   3.181700       11.6110           0   -1.01600   0.899000
      4902 OAC      111      OAC      DC1      DRUD    -2.473700        0.4000           0   0.00000   0.00000
      4903 OAC      111      OAC      C2       CD33A    2.987900       11.6110           0   -1.68100   1.41400
      4904 OAC      111      OAC      DC2      DRUD    -3.181900        0.4000           0   0.00000   0.00000
      4905 OAC      111      OAC      H1       HDA3A    0.004000        1.0080           0   0.00000   0.00000
      4906 OAC      111      OAC      H2       HDA3A    0.004000        1.0080           0   0.00000   0.00000
      4907 OAC      111      OAC      H3       HDA3A    0.004000        1.0080           0   0.00000   0.00000
      4908 OAC      111      OAC      O1       OD2C2A   2.054800       15.5994           0   -0.699000   2.39900
      4909 OAC      111      OAC      DO1      DRUD    -2.051800        0.4000           0   0.00000   0.00000
      4910 OAC      111      OAC      O2       OD2C2A   2.054800       15.5994           0   -0.699000   2.39900
      4911 OAC      111      OAC      DO2      DRUD    -2.051800        0.4000           0   0.00000   0.00000
      4912 OAC      111      OAC      H        HDP1A    0.000000        1.0080           0   0.00000   0.00000
      4913 OAC      111      OAC      LPO11    LPD     -0.383000        0.0000           -1   0.00000   0.00000
      4914 OAC      111      OAC      LPO12    LPD     -0.383000        0.0000           -1   0.00000   0.00000
      4915 OAC      111      OAC      LPO21    LPD     -0.383000        0.0000           -1   0.00000   0.00000
      4916 OAC      111      OAC      LPO22    LPD     -0.383000        0.0000           -1   0.00000   0.00000
      4917 OAC      112      OAC      C1       CD2O2A   3.181700       11.6110           0   -1.01600   0.899000
      4918 OAC      112      OAC      DC1      DRUD    -2.473700        0.4000           0   0.00000   0.00000
      4919 OAC      112      OAC      C2       CD33A    2.987900       11.6110           0   -1.68100   1.41400
      4920 OAC      112      OAC      DC2      DRUD    -3.181900        0.4000           0   0.00000   0.00000
      4921 OAC      112      OAC      H1       HDA3A    0.004000        1.0080           0   0.00000   0.00000
      4922 OAC      112      OAC      H2       HDA3A    0.004000        1.0080           0   0.00000   0.00000
      4923 OAC      112      OAC      H3       HDA3A    0.004000        1.0080           0   0.00000   0.00000
      4924 OAC      112      OAC      O1       OD2C2A   2.054800       15.5994           0   -0.699000   2.39900
      4925 OAC      112      OAC      DO1      DRUD    -2.051800        0.4000           0   0.00000   0.00000
      4926 OAC      112      OAC      O2       OD2C2A   2.054800       15.5994           0   -0.699000   2.39900
      4927 OAC      112      OAC      DO2      DRUD    -2.051800        0.4000           0   0.00000   0.00000
      4928 OAC      112      OAC      H        HDP1A    0.000000        1.0080           0   0.00000   0.00000
      4929 OAC      112      OAC      LPO11    LPD     -0.383000        0.0000           -1   0.00000   0.00000
      4930 OAC      112      OAC      LPO12    LPD     -0.383000        0.0000           -1   0.00000   0.00000
      4931 OAC      112      OAC      LPO21    LPD     -0.383000        0.0000           -1   0.00000   0.00000
      4932 OAC      112      OAC      LPO22    LPD     -0.383000        0.0000           -1   0.00000   0.00000
      4933 OAC      113      OAC      C1       CD2O2A   3.181700       11.6110           0   -1.01600   0.899000
      4934 OAC      113      OAC      DC1      DRUD    -2.473700        0.4000           0   0.00000   0.00000
      4935 OAC      113      OAC      C2       CD33A    2.987900       11.6110           0   -1.68100   1.41400
      4936 OAC      113      OAC      DC2      DRUD    -3.181900        0.4000           0   0.00000   0.00000
      4937 OAC      113      OAC      H1       HDA3A    0.004000        1.0080           0   0.00000   0.00000
      4938 OAC      113      OAC      H2       HDA3A    0.004000        1.0080           0   0.00000   0.00000
      4939 OAC      113      OAC      H3       HDA3A    0.004000        1.0080           0   0.00000   0.00000
      4940 OAC      113      OAC      O1       OD2C2A   2.054800       15.5994           0   -0.699000   2.39900
      4941 OAC      113      OAC      DO1      DRUD    -2.051800        0.4000           0   0.00000   0.00000
      4942 OAC      113      OAC      O2       OD2C2A   2.054800       15.5994           0   -0.699000   2.39900
      4943 OAC      113      OAC      DO2      DRUD    -2.051800        0.4000           0   0.00000   0.00000
      4944 OAC      113      OAC      H        HDP1A    0.000000        1.0080           0   0.00000   0.00000
      4945 OAC      113      OAC      LPO11    LPD     -0.383000        0.0000           -1   0.00000   0.00000
      4946 OAC      113      OAC      LPO12    LPD     -0.383000        0.0000           -1   0.00000   0.00000
      4947 OAC      113      OAC      LPO21    LPD     -0.383000        0.0000           -1   0.00000   0.00000
      4948 OAC      113      OAC      LPO22    LPD     -0.383000        0.0000           -1   0.00000   0.00000
      4949 OAC      114      OAC      C1       CD2O2A   3.181700       11.6110           0   -1.01600   0.899000
      4950 OAC      114      OAC      DC1      DRUD    -2.473700        0.4000           0   0.00000   0.00000
      4951 OAC      114      OAC      C2       CD33A    2.987900       11.6110           0   -1.68100   1.41400
      4952 OAC      114      OAC      DC2      DRUD    -3.181900        0.4000           0   0.00000   0.00000
      4953 OAC      114      OAC      H1       HDA3A    0.004000        1.0080           0   0.00000   0.00000
      4954 OAC      114      OAC      H2       HDA3A    0.004000        1.0080           0   0.00000   0.00000
      4955 OAC      114      OAC      H3       HDA3A    0.004000        1.0080           0   0.00000   0.00000
      4956 OAC      114      OAC      O1       OD2C2A   2.054800       15.5994           0   -0.699000   2.39900
      4957 OAC      114      OAC      DO1      DRUD    -2.051800        0.4000           0   0.00000   0.00000
      4958 OAC      114      OAC      O2       OD2C2A   2.054800       15.5994           0   -0.699000   2.39900
      4959 OAC      114      OAC      DO2      DRUD    -2.051800        0.4000           0   0.00000   0.00000
      4960 OAC      114      OAC      H        HDP1A    0.000000        1.0080           0   0.00000   0.00000
      4961 OAC      114      OAC      LPO11    LPD     -0.383000        0.0000           -1   0.00000   0.00000
      4962 OAC      114      OAC      LPO12    LPD     -0.383000        0.0000           -1   0.00000   0.00000
      4963 OAC      114      OAC      LPO21    LPD     -0.383000        0.0000           -1   0.00000   0.00000
      4964 OAC      114      OAC      LPO22    LPD     -0.383000        0.0000           -1   0.00000   0.00000
      4965 OAC      115      OAC      C1       CD2O2A   3.181700       11.6110           0   -1.01600   0.899000
      4966 OAC      115      OAC      DC1      DRUD    -2.473700        0.4000           0   0.00000   0.00000
      4967 OAC      115      OAC      C2       CD33A    2.987900       11.6110           0   -1.68100   1.41400
      4968 OAC      115      OAC      DC2      DRUD    -3.181900        0.4000           0   0.00000   0.00000
      4969 OAC      115      OAC      H1       HDA3A    0.004000        1.0080           0   0.00000   0.00000
      4970 OAC      115      OAC      H2       HDA3A    0.004000        1.0080           0   0.00000   0.00000
      4971 OAC      115      OAC      H3       HDA3A    0.004000        1.0080           0   0.00000   0.00000
      4972 OAC      115      OAC      O1       OD2C2A   2.054800       15.5994           0   -0.699000   2.39900
      4973 OAC      115      OAC      DO1      DRUD    -2.051800        0.4000           0   0.00000   0.00000
      4974 OAC      115      OAC      O2       OD2C2A   2.054800       15.5994           0   -0.699000   2.39900
      4975 OAC      115      OAC      DO2      DRUD    -2.051800        0.4000           0   0.00000   0.00000
      4976 OAC      115      OAC      H        HDP1A    0.000000        1.0080           0   0.00000   0.00000
      4977 OAC      115      OAC      LPO11    LPD     -0.383000        0.0000           -1   0.00000   0.00000
      4978 OAC      115      OAC      LPO12    LPD     -0.383000        0.0000           -1   0.00000   0.00000
      4979 OAC      115      OAC      LPO21    LPD     -0.383000        0.0000           -1   0.00000   0.00000
      4980 OAC      115      OAC      LPO22    LPD     -0.383000        0.0000           -1   0.00000   0.00000
      4981 OAC      116      OAC      C1       CD2O2A   3.181700       11.6110           0   -1.01600   0.899000
      4982 OAC      116      OAC      DC1      DRUD    -2.473700        0.4000           0   0.00000   0.00000
      4983 OAC      116      OAC      C2       CD33A    2.987900       11.6110           0   -1.68100   1.41400
      4984 OAC      116      OAC      DC2      DRUD    -3.181900        0.4000           0   0.00000   0.00000
      4985 OAC      116      OAC      H1       HDA3A    0.004000        1.0080           0   0.00000   0.00000
      4986 OAC      116      OAC      H2       HDA3A    0.004000        1.0080           0   0.00000   0.00000
      4987 OAC      116      OAC      H3       HDA3A    0.004000        1.0080           0   0.00000   0.00000
      4988 OAC      116      OAC      O1       OD2C2A   2.054800       15.5994           0   -0.699000   2.39900
      4989 OAC      116      OAC      DO1      DRUD    -2.051800        0.4000           0   0.00000   0.00000
      4990 OAC      116      OAC      O2       OD2C2A   2.054800       15.5994           0   -0.699000   2.39900
      4991 OAC      116      OAC      DO2      DRUD    -2.051800        0.4000           0   0.00000   0.00000
      4992 OAC      116      OAC      H        HDP1A    0.000000        1.0080           0   0.00000   0.00000
      4993 OAC      116      OAC      LPO11    LPD     -0.383000        0.0000           -1   0.00000   0.00000
      4994 OAC      116      OAC      LPO12    LPD     -0.383000        0.0000           -1   0.00000   0.00000
      4995 OAC      116      OAC      LPO21    LPD     -0.383000        0.0000           -1   0.00000   0.00000
      4996 OAC      116      OAC      LPO22    LPD     -0.383000        0.0000           -1   0.00000   0.00000
      4997 OAC      117      OAC      C1       CD2O2A   3.181700       11.6110           0   -1.01600   0.899000
      4998 OAC      117      OAC      DC1      DRUD    -2.473700        0.4000           0   0.00000   0.00000
      4999 OAC      117      OAC      C2       CD33A    2.987900       11.6110           0   -1.68100   1.41400
      5000 OAC      117      OAC      DC2      DRUD    -3.181900        0.4000           0   0.00000   0.00000
      5001 OAC      117      OAC      H1       HDA3A    0.004000        1.0080           0   0.00000   0.00000
      5002 OAC      117      OAC      H2       HDA3A    0.004000        1.0080           0   0.00000   0.00000
      5003 OAC      117      OAC      H3       HDA3A    0.004000        1.0080           0   0.00000   0.00000
      5004 OAC      117      OAC      O1       OD2C2A   2.054800       15.5994           0   -0.699000   2.39900
      5005 OAC      117      OAC      DO1      DRUD    -2.051800        0.4000           0   0.00000   0.00000
      5006 OAC      117      OAC      O2       OD2C2A   2.054800       15.5994           0   -0.699000   2.39900
      5007 OAC      117      OAC      DO2      DRUD    -2.051800        0.4000           0   0.00000   0.00000
      5008 OAC      117      OAC      H        HDP1A    0.000000        1.0080           0   0.00000   0.00000
      5009 OAC      117      OAC      LPO11    LPD     -0.383000        0.0000           -1   0.00000   0.00000
      5010 OAC      117      OAC      LPO12    LPD     -0.383000        0.0000           -1   0.00000   0.00000
      5011 OAC      117      OAC      LPO21    LPD     -0.383000        0.0000           -1   0.00000   0.00000
      5012 OAC      117      OAC      LPO22    LPD     -0.383000        0.0000           -1   0.00000   0.00000
      5013 OAC      118      OAC      C1       CD2O2A   3.181700       11.6110           0   -1.01600   0.899000
      5014 OAC      118      OAC      DC1      DRUD    -2.473700        0.4000           0   0.00000   0.00000
      5015 OAC      118      OAC      C2       CD33A    2.987900       11.6110           0   -1.68100   1.41400
      5016 OAC      118      OAC      DC2      DRUD    -3.181900        0.4000           0   0.00000   0.00000
      5017 OAC      118      OAC      H1       HDA3A    0.004000        1.0080           0   0.00000   0.00000
      5018 OAC      118      OAC      H2       HDA3A    0.004000        1.0080           0   0.00000   0.00000
      5019 OAC      118      OAC      H3       HDA3A    0.004000        1.0080           0   0.00000   0.00000
      5020 OAC      118      OAC      O1       OD2C2A   2.054800       15.5994           0   -0.699000   2.39900
      5021 OAC      118      OAC      DO1      DRUD    -2.051800        0.4000           0   0.00000   0.00000
      5022 OAC      118      OAC      O2       OD2C2A   2.054800       15.5994           0   -0.699000   2.39900
      5023 OAC      118      OAC      DO2      DRUD    -2.051800        0.4000           0   0.00000   0.00000
      5024 OAC      118      OAC      H        HDP1A    0.000000        1.0080           0   0.00000   0.00000
      5025 OAC      118      OAC      LPO11    LPD     -0.383000        0.0000           -1   0.00000   0.00000
      5026 OAC      118      OAC      LPO12    LPD     -0.383000        0.0000           -1   0.00000   0.00000
      5027 OAC      118      OAC      LPO21    LPD     -0.383000        0.0000           -1   0.00000   0.00000
      5028 OAC      118      OAC      LPO22    LPD     -0.383000        0.0000           -1   0.00000   0.00000
      5029 OAC      119      OAC      C1       CD2O2A   3.181700       11.6110           0   -1.01600   0.899000
      5030 OAC      119      OAC      DC1      DRUD    -2.473700        0.4000           0   0.00000   0.00000
      5031 OAC      119      OAC      C2       CD33A    2.987900       11.6110           0   -1.68100   1.41400
      5032 OAC      119      OAC      DC2      DRUD    -3.181900        0.4000           0   0.00000   0.00000
      5033 OAC      119      OAC      H1       HDA3A    0.004000        1.0080           0   0.00000   0.00000
      5034 OAC      119      OAC      H2       HDA3A    0.004000        1.0080           0   0.00000   0.00000
      5035 OAC      119      OAC      H3       HDA3A    0.004000        1.0080           0   0.00000   0.00000
      5036 OAC      119      OAC      O1       OD2C2A   2.054800       15.5994           0   -0.699000   2.39900
      5037 OAC      119      OAC      DO1      DRUD    -2.051800        0.4000           0   0.00000   0.00000
      5038 OAC      119      OAC      O2       OD2C2A   2.054800       15.5994           0   -0.699000   2.39900
      5039 OAC      119      OAC      DO2      DRUD    -2.051800        0.4000           0   0.00000   0.00000
      5040 OAC      119      OAC      H        HDP1A    0.000000        1.0080           0   0.00000   0.00000
      5041 OAC      119      OAC      LPO11    LPD     -0.383000        0.0000           -1   0.00000   0.00000
      5042 OAC      119      OAC      LPO12    LPD     -0.383000        0.0000           -1   0.00000   0.00000
      5043 OAC      119      OAC      LPO21    LPD     -0.383000        0.0000           -1   0.00000   0.00000
      5044 OAC      119      OAC      LPO22    LPD     -0.383000        0.0000           -1   0.00000   0.00000
      5045 OAC      120      OAC      C1       CD2O2A   3.181700       11.6110           0   -1.01600   0.899000
      5046 OAC      120      OAC      DC1      DRUD    -2.473700        0.4000           0   0.00000   0.00000
      5047 OAC      120      OAC      C2       CD33A    2.987900       11.6110           0   -1.68100   1.41400
      5048 OAC      120      OAC      DC2      DRUD    -3.181900        0.4000           0   0.00000   0.00000
      5049 OAC      120      OAC      H1       HDA3A    0.004000        1.0080           0   0.00000   0.00000
      5050 OAC      120      OAC      H2       HDA3A    0.004000        1.0080           0   0.00000   0.00000
      5051 OAC      120      OAC      H3       HDA3A    0.004000        1.0080           0   0.00000   0.00000
      5052 OAC      120      OAC      O1       OD2C2A   2.054800       15.5994           0   -0.699000   2.39900
      5053 OAC      120      OAC      DO1      DRUD    -2.051800        0.4000           0   0.00000   0.00000
      5054 OAC      120      OAC      O2       OD2C2A   2.054800       15.5994           0   -0.699000   2.39900
      5055 OAC      120      OAC      DO2      DRUD    -2.051800        0.4000           0   0.00000   0.00000
      5056 OAC      120      OAC      H        HDP1A    0.000000        1.0080           0   0.00000   0.00000
      5057 OAC      120      OAC      LPO11    LPD     -0.383000        0.0000           -1   0.00000   0.00000
      5058 OAC      120      OAC      LPO12    LPD     -0.383000        0.0000           -1   0.00000   0.00000
      5059 OAC      120      OAC      LPO21    LPD     -0.383000        0.0000           -1   0.00000   0.00000
      5060 OAC      120      OAC      LPO22    LPD     -0.383000        0.0000           -1   0.00000   0.00000
      5061 OAC      121      OAC      C1       CD2O2A   3.181700       11.6110           0   -1.01600   0.899000
      5062 OAC      121      OAC      DC1      DRUD    -2.473700        0.4000           0   0.00000   0.00000
      5063 OAC      121      OAC      C2       CD33A    2.987900       11.6110           0   -1.68100   1.41400
      5064 OAC      121      OAC      DC2      DRUD    -3.181900        0.4000           0   0.00000   0.00000
      5065 OAC      121      OAC      H1       HDA3A    0.004000        1.0080           0   0.00000   0.00000
      5066 OAC      121      OAC      H2       HDA3A    0.004000        1.0080           0   0.00000   0.00000
      5067 OAC      121      OAC      H3       HDA3A    0.004000        1.0080           0   0.00000   0.00000
      5068 OAC      121      OAC      O1       OD2C2A   2.054800       15.5994           0   -0.699000   2.39900
      5069 OAC      121      OAC      DO1      DRUD    -2.051800        0.4000           0   0.00000   0.00000
      5070 OAC      121      OAC      O2       OD2C2A   2.054800       15.5994           0   -0.699000   2.39900
      5071 OAC      121      OAC      DO2      DRUD    -2.051800        0.4000           0   0.00000   0.00000
      5072 OAC      121      OAC      H        HDP1A    0.000000        1.0080           0   0.00000   0.00000
      5073 OAC      121      OAC      LPO11    LPD     -0.383000        0.0000           -1   0.00000   0.00000
      5074 OAC      121      OAC      LPO12    LPD     -0.383000        0.0000           -1   0.00000   0.00000
      5075 OAC      121      OAC      LPO21    LPD     -0.383000        0.0000           -1   0.00000   0.00000
      5076 OAC      121      OAC      LPO22    LPD     -0.383000        0.0000           -1   0.00000   0.00000
      5077 OAC      122      OAC      C1       CD2O2A   3.181700       11.6110           0   -1.01600   0.899000
      5078 OAC      122      OAC      DC1      DRUD    -2.473700        0.4000           0   0.00000   0.00000
      5079 OAC      122      OAC      C2       CD33A    2.987900       11.6110           0   -1.68100   1.41400
      5080 OAC      122      OAC      DC2      DRUD    -3.181900        0.4000           0   0.00000   0.00000
      5081 OAC      122      OAC      H1       HDA3A    0.004000        1.0080           0   0.00000   0.00000
      5082 OAC      122      OAC      H2       HDA3A    0.004000        1.0080           0   0.00000   0.00000
      5083 OAC      122      OAC      H3       HDA3A    0.004000        1.0080           0   0.00000   0.00000
      5084 OAC      122      OAC      O1       OD2C2A   2.054800       15.5994           0   -0.699000   2.39900
      5085 OAC      122      OAC      DO1      DRUD    -2.051800        0.4000           0   0.00000   0.00000
      5086 OAC      122      OAC      O2       OD2C2A   2.054800       15.5994           0   -0.699000   2.39900
      5087 OAC      122      OAC      DO2      DRUD    -2.051800        0.4000           0   0.00000   0.00000
      5088 OAC      122      OAC      H        HDP1A    0.000000        1.0080           0   0.00000   0.00000
      5089 OAC      122      OAC      LPO11    LPD     -0.383000        0.0000           -1   0.00000   0.00000
      5090 OAC      122      OAC      LPO12    LPD     -0.383000        0.0000           -1   0.00000   0.00000
      5091 OAC      122      OAC      LPO21    LPD     -0.383000        0.0000           -1   0.00000   0.00000
      5092 OAC      122      OAC      LPO22    LPD     -0.383000        0.0000           -1   0.00000   0.00000
      5093 OAC      123      OAC      C1       CD2O2A   3.181700       11.6110           0   -1.01600   0.899000
      5094 OAC      123      OAC      DC1      DRUD    -2.473700        0.4000           0   0.00000   0.00000
      5095 OAC      123      OAC      C2       CD33A    2.987900       11.6110           0   -1.68100   1.41400
      5096 OAC      123      OAC      DC2      DRUD    -3.181900        0.4000           0   0.00000   0.00000
      5097 OAC      123      OAC      H1       HDA3A    0.004000        1.0080           0   0.00000   0.00000
      5098 OAC      123      OAC      H2       HDA3A    0.004000        1.0080           0   0.00000   0.00000
      5099 OAC      123      OAC      H3       HDA3A    0.004000        1.0080           0   0.00000   0.00000
      5100 OAC      123      OAC      O1       OD2C2A   2.054800       15.5994           0   -0.699000   2.39900
      5101 OAC      123      OAC      DO1      DRUD    -2.051800        0.4000           0   0.00000   0.00000
      5102 OAC      123      OAC      O2       OD2C2A   2.054800       15.5994           0   -0.699000   2.39900
      5103 OAC      123      OAC      DO2      DRUD    -2.051800        0.4000           0   0.00000   0.00000
      5104 OAC      123      OAC      H        HDP1A    0.000000        1.0080           0   0.00000   0.00000
      5105 OAC      123      OAC      LPO11    LPD     -0.383000        0.0000           -1   0.00000   0.00000
      5106 OAC      123      OAC      LPO12    LPD     -0.383000        0.0000           -1   0.00000   0.00000
      5107 OAC      123      OAC      LPO21    LPD     -0.383000        0.0000           -1   0.00000   0.00000
      5108 OAC      123      OAC      LPO22    LPD     -0.383000        0.0000           -1   0.00000   0.00000
      5109 OAC      124      OAC      C1       CD2O2A   3.181700       11.6110           0   -1.01600   0.899000
      5110 OAC      124      OAC      DC1      DRUD    -2.473700        0.4000           0   0.00000   0.00000
      5111 OAC      124      OAC      C2       CD33A    2.987900       11.6110           0   -1.68100   1.41400
      5112 OAC      124      OAC      DC2      DRUD    -3.181900        0.4000           0   0.00000   0.00000
      5113 OAC      124      OAC      H1       HDA3A    0.004000        1.0080           0   0.00000   0.00000
      5114 OAC      124      OAC      H2       HDA3A    0.004000        1.0080           0   0.00000   0.00000
      5115 OAC      124      OAC      H3       HDA3A    0.004000        1.0080           0   0.00000   0.00000
      5116 OAC      124      OAC      O1       OD2C2A   2.054800       15.5994           0   -0.699000   2.39900
      5117 OAC      124      OAC      DO1      DRUD    -2.051800        0.4000           0   0.00000   0.00000
      5118 OAC      124      OAC      O2       OD2C2A   2.054800       15.5994           0   -0.699000   2.39900
      5119 OAC      124      OAC      DO2      DRUD    -2.051800        0.4000           0   0.00000   0.00000
      5120 OAC      124      OAC      H        HDP1A    0.000000        1.0080           0   0.00000   0.00000
      5121 OAC      124      OAC      LPO11    LPD     -0.383000        0.0000           -1   0.00000   0.00000
      5122 OAC      124      OAC      LPO12    LPD     -0.383000        0.0000           -1   0.00000   0.00000
      5123 OAC      124      OAC      LPO21    LPD     -0.383000        0.0000           -1   0.00000   0.00000
      5124 OAC      124      OAC      LPO22    LPD     -0.383000        0.0000           -1   0.00000   0.00000
      5125 OAC      125      OAC      C1       CD2O2A   3.181700       11.6110           0   -1.01600   0.899000
      5126 OAC      125      OAC      DC1      DRUD    -2.473700        0.4000           0   0.00000   0.00000
      5127 OAC      125      OAC      C2       CD33A    2.987900       11.6110           0   -1.68100   1.41400
      5128 OAC      125      OAC      DC2      DRUD    -3.181900        0.4000           0   0.00000   0.00000
      5129 OAC      125      OAC      H1       HDA3A    0.004000        1.0080           0   0.00000   0.00000
      5130 OAC      125      OAC      H2       HDA3A    0.004000        1.0080           0   0.00000   0.00000
      5131 OAC      125      OAC      H3       HDA3A    0.004000        1.0080           0   0.00000   0.00000
      5132 OAC      125      OAC      O1       OD2C2A   2.054800       15.5994           0   -0.699000   2.39900
      5133 OAC      125      OAC      DO1      DRUD    -2.051800        0.4000           0   0.00000   0.00000
      5134 OAC      125      OAC      O2       OD2C2A   2.054800       15.5994           0   -0.699000   2.39900
      5135 OAC      125      OAC      DO2      DRUD    -2.051800        0.4000           0   0.00000   0.00000
      5136 OAC      125      OAC      H        HDP1A    0.000000        1.0080           0   0.00000   0.00000
      5137 OAC      125      OAC      LPO11    LPD     -0.383000        0.0000           -1   0.00000   0.00000
      5138 OAC      125      OAC      LPO12    LPD     -0.383000        0.0000           -1   0.00000   0.00000
      5139 OAC      125      OAC      LPO21    LPD     -0.383000        0.0000           -1   0.00000   0.00000
      5140 OAC      125      OAC      LPO22    LPD     -0.383000        0.0000           -1   0.00000   0.00000
      5141 OAC      126      OAC      C1       CD2O2A   3.181700       11.6110           0   -1.01600   0.899000
      5142 OAC      126      OAC      DC1      DRUD    -2.473700        0.4000           0   0.00000   0.00000
      5143 OAC      126      OAC      C2       CD33A    2.987900       11.6110           0   -1.68100   1.41400
      5144 OAC      126      OAC      DC2      DRUD    -3.181900        0.4000           0   0.00000   0.00000
      5145 OAC      126      OAC      H1       HDA3A    0.004000        1.0080           0   0.00000   0.00000
      5146 OAC      126      OAC      H2       HDA3A    0.004000        1.0080           0   0.00000   0.00000
      5147 OAC      126      OAC      H3       HDA3A    0.004000        1.0080           0   0.00000   0.00000
      5148 OAC      126      OAC      O1       OD2C2A   2.054800       15.5994           0   -0.699000   2.39900
      5149 OAC      126      OAC      DO1      DRUD    -2.051800        0.4000           0   0.00000   0.00000
      5150 OAC      126      OAC      O2       OD2C2A   2.054800       15.5994           0   -0.699000   2.39900
      5151 OAC      126      OAC      DO2      DRUD    -2.051800        0.4000           0   0.00000   0.00000
      5152 OAC      126      OAC      H        HDP1A    0.000000        1.0080           0   0.00000   0.00000
      5153 OAC      126      OAC      LPO11    LPD     -0.383000        0.0000           -1   0.00000   0.00000
      5154 OAC      126      OAC      LPO12    LPD     -0.383000        0.0000           -1   0.00000   0.00000
      5155 OAC      126      OAC      LPO21    LPD     -0.383000        0.0000           -1   0.00000   0.00000
      5156 OAC      126      OAC      LPO22    LPD     -0.383000        0.0000           -1   0.00000   0.00000
      5157 OAC      127      OAC      C1       CD2O2A   3.181700       11.6110           0   -1.01600   0.899000
      5158 OAC      127      OAC      DC1      DRUD    -2.473700        0.4000           0   0.00000   0.00000
      5159 OAC      127      OAC      C2       CD33A    2.987900       11.6110           0   -1.68100   1.41400
      5160 OAC      127      OAC      DC2      DRUD    -3.181900        0.4000           0   0.00000   0.00000
      5161 OAC      127      OAC      H1       HDA3A    0.004000        1.0080           0   0.00000   0.00000
      5162 OAC      127      OAC      H2       HDA3A    0.004000        1.0080           0   0.00000   0.00000
      5163 OAC      127      OAC      H3       HDA3A    0.004000        1.0080           0   0.00000   0.00000
      5164 OAC      127      OAC      O1       OD2C2A   2.054800       15.5994           0   -0.699000   2.39900
      5165 OAC      127      OAC      DO1      DRUD    -2.051800        0.4000           0   0.00000   0.00000
      5166 OAC      127      OAC      O2       OD2C2A   2.054800       15.5994           0   -0.699000   2.39900
      5167 OAC      127      OAC      DO2      DRUD    -2.051800        0.4000           0   0.00000   0.00000
      5168 OAC      127      OAC      H        HDP1A    0.000000        1.0080           0   0.00000   0.00000
      5169 OAC      127      OAC      LPO11    LPD     -0.383000        0.0000           -1   0.00000   0.00000
      5170 OAC      127      OAC      LPO12    LPD     -0.383000        0.0000           -1   0.00000   0.00000
      5171 OAC      127      OAC      LPO21    LPD     -0.383000        0.0000           -1   0.00000   0.00000
      5172 OAC      127      OAC      LPO22    LPD     -0.383000        0.0000           -1   0.00000   0.00000
      5173 OAC      128      OAC      C1       CD2O2A   3.181700       11.6110           0   -1.01600   0.899000
      5174 OAC      128      OAC      DC1      DRUD    -2.473700        0.4000           0   0.00000   0.00000
      5175 OAC      128      OAC      C2       CD33A    2.987900       11.6110           0   -1.68100   1.41400
      5176 OAC      128      OAC      DC2      DRUD    -3.181900        0.4000           0   0.00000   0.00000
      5177 OAC      128      OAC      H1       HDA3A    0.004000        1.0080           0   0.00000   0.00000
      5178 OAC      128      OAC      H2       HDA3A    0.004000        1.0080           0   0.00000   0.00000
      5179 OAC      128      OAC      H3       HDA3A    0.004000        1.0080           0   0.00000   0.00000
      5180 OAC      128      OAC      O1       OD2C2A   2.054800       15.5994           0   -0.699000   2.39900
      5181 OAC      128      OAC      DO1      DRUD    -2.051800        0.4000           0   0.00000   0.00000
      5182 OAC      128      OAC      O2       OD2C2A   2.054800       15.5994           0   -0.699000   2.39900
      5183 OAC      128      OAC      DO2      DRUD    -2.051800        0.4000           0   0.00000   0.00000
      5184 OAC      128      OAC      H        HDP1A    0.000000        1.0080           0   0.00000   0.00000
      5185 OAC      128      OAC      LPO11    LPD     -0.383000        0.0000           -1   0.00000   0.00000
      5186 OAC      128      OAC      LPO12    LPD     -0.383000        0.0000           -1   0.00000   0.00000
      5187 OAC      128      OAC      LPO21    LPD     -0.383000        0.0000           -1   0.00000   0.00000
      5188 OAC      128      OAC      LPO22    LPD     -0.383000        0.0000           -1   0.00000   0.00000
      5189 OAC      129      OAC      C1       CD2O2A   3.181700       11.6110           0   -1.01600   0.899000
      5190 OAC      129      OAC      DC1      DRUD    -2.473700        0.4000           0   0.00000   0.00000
      5191 OAC      129      OAC      C2       CD33A    2.987900       11.6110           0   -1.68100   1.41400
      5192 OAC      129      OAC      DC2      DRUD    -3.181900        0.4000           0   0.00000   0.00000
      5193 OAC      129      OAC      H1       HDA3A    0.004000        1.0080           0   0.00000   0.00000
      5194 OAC      129      OAC      H2       HDA3A    0.004000        1.0080           0   0.00000   0.00000
      5195 OAC      129      OAC      H3       HDA3A    0.004000        1.0080           0   0.00000   0.00000
      5196 OAC      129      OAC      O1       OD2C2A   2.054800       15.5994           0   -0.699000   2.39900
      5197 OAC      129      OAC      DO1      DRUD    -2.051800        0.4000           0   0.00000   0.00000
      5198 OAC      129      OAC      O2       OD2C2A   2.054800       15.5994           0   -0.699000   2.39900
      5199 OAC      129      OAC      DO2      DRUD    -2.051800        0.4000           0   0.00000   0.00000
      5200 OAC      129      OAC      H        HDP1A    0.000000        1.0080           0   0.00000   0.00000
      5201 OAC      129      OAC      LPO11    LPD     -0.383000        0.0000           -1   0.00000   0.00000
      5202 OAC      129      OAC      LPO12    LPD     -0.383000        0.0000           -1   0.00000   0.00000
      5203 OAC      129      OAC      LPO21    LPD     -0.383000        0.0000           -1   0.00000   0.00000
      5204 OAC      129      OAC      LPO22    LPD     -0.383000        0.0000           -1   0.00000   0.00000
      5205 OAC      130      OAC      C1       CD2O2A   3.181700       11.6110           0   -1.01600   0.899000
      5206 OAC      130      OAC      DC1      DRUD    -2.473700        0.4000           0   0.00000   0.00000
      5207 OAC      130      OAC      C2       CD33A    2.987900       11.6110           0   -1.68100   1.41400
      5208 OAC      130      OAC      DC2      DRUD    -3.181900        0.4000           0   0.00000   0.00000
      5209 OAC      130      OAC      H1       HDA3A    0.004000        1.0080           0   0.00000   0.00000
      5210 OAC      130      OAC      H2       HDA3A    0.004000        1.0080           0   0.00000   0.00000
      5211 OAC      130      OAC      H3       HDA3A    0.004000        1.0080           0   0.00000   0.00000
      5212 OAC      130      OAC      O1       OD2C2A   2.054800       15.5994           0   -0.699000   2.39900
      5213 OAC      130      OAC      DO1      DRUD    -2.051800        0.4000           0   0.00000   0.00000
      5214 OAC      130      OAC      O2       OD2C2A   2.054800       15.5994           0   -0.699000   2.39900
      5215 OAC      130      OAC      DO2      DRUD    -2.051800        0.4000           0   0.00000   0.00000
      5216 OAC      130      OAC      H        HDP1A    0.000000        1.0080           0   0.00000   0.00000
      5217 OAC      130      OAC      LPO11    LPD     -0.383000        0.0000           -1   0.00000   0.00000
      5218 OAC      130      OAC      LPO12    LPD     -0.383000        0.0000           -1   0.00000   0.00000
      5219 OAC      130      OAC      LPO21    LPD     -0.383000        0.0000           -1   0.00000   0.00000
      5220 OAC      130      OAC      LPO22    LPD     -0.383000        0.0000           -1   0.00000   0.00000
      5221 OAC      131      OAC      C1       CD2O2A   3.181700       11.6110           0   -1.01600   0.899000
      5222 OAC      131      OAC      DC1      DRUD    -2.473700        0.4000           0   0.00000   0.00000
      5223 OAC      131      OAC      C2       CD33A    2.987900       11.6110           0   -1.68100   1.41400
      5224 OAC      131      OAC      DC2      DRUD    -3.181900        0.4000           0   0.00000   0.00000
      5225 OAC      131      OAC      H1       HDA3A    0.004000        1.0080           0   0.00000   0.00000
      5226 OAC      131      OAC      H2       HDA3A    0.004000        1.0080           0   0.00000   0.00000
      5227 OAC      131      OAC      H3       HDA3A    0.004000        1.0080           0   0.00000   0.00000
      5228 OAC      131      OAC      O1       OD2C2A   2.054800       15.5994           0   -0.699000   2.39900
      5229 OAC      131      OAC      DO1      DRUD    -2.051800        0.4000           0   0.00000   0.00000
      5230 OAC      131      OAC      O2       OD2C2A   2.054800       15.5994           0   -0.699000   2.39900
      5231 OAC      131      OAC      DO2      DRUD    -2.051800        0.4000           0   0.00000   0.00000
      5232 OAC      131      OAC      H        HDP1A    0.000000        1.0080           0   0.00000   0.00000
      5233 OAC      131      OAC      LPO11    LPD     -0.383000        0.0000           -1   0.00000   0.00000
      5234 OAC      131      OAC      LPO12    LPD     -0.383000        0.0000           -1   0.00000   0.00000
      5235 OAC      131      OAC      LPO21    LPD     -0.383000        0.0000           -1   0.00000   0.00000
      5236 OAC      131      OAC      LPO22    LPD     -0.383000        0.0000           -1   0.00000   0.00000
      5237 OAC      132      OAC      C1       CD2O2A   3.181700       11.6110           0   -1.01600   0.899000
      5238 OAC      132      OAC      DC1      DRUD    -2.473700        0.4000           0   0.00000   0.00000
      5239 OAC      132      OAC      C2       CD33A    2.987900       11.6110           0   -1.68100   1.41400
      5240 OAC      132      OAC      DC2      DRUD    -3.181900        0.4000           0   0.00000   0.00000
      5241 OAC      132      OAC      H1       HDA3A    0.004000        1.0080           0   0.00000   0.00000
      5242 OAC      132      OAC      H2       HDA3A    0.004000        1.0080           0   0.00000   0.00000
      5243 OAC      132      OAC      H3       HDA3A    0.004000        1.0080           0   0.00000   0.00000
      5244 OAC      132      OAC      O1       OD2C2A   2.054800       15.5994           0   -0.699000   2.39900
      5245 OAC      132      OAC      DO1      DRUD    -2.051800        0.4000           0   0.00000   0.00000
      5246 OAC      132      OAC      O2       OD2C2A   2.054800       15.5994           0   -0.699000   2.39900
      5247 OAC      132      OAC      DO2      DRUD    -2.051800        0.4000           0   0.00000   0.00000
      5248 OAC      132      OAC      H        HDP1A    0.000000        1.0080           0   0.00000   0.00000
      5249 OAC      132      OAC      LPO11    LPD     -0.383000        0.0000           -1   0.00000   0.00000
      5250 OAC      132      OAC      LPO12    LPD     -0.383000        0.0000           -1   0.00000   0.00000
      5251 OAC      132      OAC      LPO21    LPD     -0.383000        0.0000           -1   0.00000   0.00000
      5252 OAC      132      OAC      LPO22    LPD     -0.383000        0.0000           -1   0.00000   0.00000
      5253 OAC      133      OAC      C1       CD2O2A   3.181700       11.6110           0   -1.01600   0.899000
      5254 OAC      133      OAC      DC1      DRUD    -2.473700        0.4000           0   0.00000   0.00000
      5255 OAC      133      OAC      C2       CD33A    2.987900       11.6110           0   -1.68100   1.41400
      5256 OAC      133      OAC      DC2      DRUD    -3.181900        0.4000           0   0.00000   0.00000
      5257 OAC      133      OAC      H1       HDA3A    0.004000        1.0080           0   0.00000   0.00000
      5258 OAC      133      OAC      H2       HDA3A    0.004000        1.0080           0   0.00000   0.00000
      5259 OAC      133      OAC      H3       HDA3A    0.004000        1.0080           0   0.00000   0.00000
      5260 OAC      133      OAC      O1       OD2C2A   2.054800       15.5994           0   -0.699000   2.39900
      5261 OAC      133      OAC      DO1      DRUD    -2.051800        0.4000           0   0.00000   0.00000
      5262 OAC      133      OAC      O2       OD2C2A   2.054800       15.5994           0   -0.699000   2.39900
      5263 OAC      133      OAC      DO2      DRUD    -2.051800        0.4000           0   0.00000   0.00000
      5264 OAC      133      OAC      H        HDP1A    0.000000        1.0080           0   0.00000   0.00000
      5265 OAC      133      OAC      LPO11    LPD     -0.383000        0.0000           -1   0.00000   0.00000
      5266 OAC      133      OAC      LPO12    LPD     -0.383000        0.0000           -1   0.00000   0.00000
      5267 OAC      133      OAC      LPO21    LPD     -0.383000        0.0000           -1   0.00000   0.00000
      5268 OAC      133      OAC      LPO22    LPD     -0.383000        0.0000           -1   0.00000   0.00000
      5269 OAC      134      OAC      C1       CD2O2A   3.181700       11.6110           0   -1.01600   0.899000
      5270 OAC      134      OAC      DC1      DRUD    -2.473700        0.4000           0   0.00000   0.00000
      5271 OAC      134      OAC      C2       CD33A    2.987900       11.6110           0   -1.68100   1.41400
      5272 OAC      134      OAC      DC2      DRUD    -3.181900        0.4000           0   0.00000   0.00000
      5273 OAC      134      OAC      H1       HDA3A    0.004000        1.0080           0   0.00000   0.00000
      5274 OAC      134      OAC      H2       HDA3A    0.004000        1.0080           0   0.00000   0.00000
      5275 OAC      134      OAC      H3       HDA3A    0.004000        1.0080           0   0.00000   0.00000
      5276 OAC      134      OAC      O1       OD2C2A   2.054800       15.5994           0   -0.699000   2.39900
      5277 OAC      134      OAC      DO1      DRUD    -2.051800        0.4000           0   0.00000   0.00000
      5278 OAC      134      OAC      O2       OD2C2A   2.054800       15.5994           0   -0.699000   2.39900
      5279 OAC      134      OAC      DO2      DRUD    -2.051800        0.4000           0   0.00000   0.00000
      5280 OAC      134      OAC      H        HDP1A    0.000000        1.0080           0   0.00000   0.00000
      5281 OAC      134      OAC      LPO11    LPD     -0.383000        0.0000           -1   0.00000   0.00000
      5282 OAC      134      OAC      LPO12    LPD     -0.383000        0.0000           -1   0.00000   0.00000
      5283 OAC      134      OAC      LPO21    LPD     -0.383000        0.0000           -1   0.00000   0.00000
      5284 OAC      134      OAC      LPO22    LPD     -0.383000        0.0000           -1   0.00000   0.00000
      5285 OAC      135      OAC      C1       CD2O2A   3.181700       11.6110           0   -1.01600   0.899000
      5286 OAC      135      OAC      DC1      DRUD    -2.473700        0.4000           0   0.00000   0.00000
      5287 OAC      135      OAC      C2       CD33A    2.987900       11.6110           0   -1.68100   1.41400
      5288 OAC      135      OAC      DC2      DRUD    -3.181900        0.4000           0   0.00000   0.00000
      5289 OAC      135      OAC      H1       HDA3A    0.004000        1.0080           0   0.00000   0.00000
      5290 OAC      135      OAC      H2       HDA3A    0.004000        1.0080           0   0.00000   0.00000
      5291 OAC      135      OAC      H3       HDA3A    0.004000        1.0080           0   0.00000   0.00000
      5292 OAC      135      OAC      O1       OD2C2A   2.054800       15.5994           0   -0.699000   2.39900
      5293 OAC      135      OAC      DO1      DRUD    -2.051800        0.4000           0   0.00000   0.00000
      5294 OAC      135      OAC      O2       OD2C2A   2.054800       15.5994           0   -0.699000   2.39900
      5295 OAC      135      OAC      DO2      DRUD    -2.051800        0.4000           0   0.00000   0.00000
      5296 OAC      135      OAC      H        HDP1A    0.000000        1.0080           0   0.00000   0.00000
      5297 OAC      135      OAC      LPO11    LPD     -0.383000        0.0000           -1   0.00000   0.00000
      5298 OAC      135      OAC      LPO12    LPD     -0.383000        0.0000           -1   0.00000   0.00000
      5299 OAC      135      OAC      LPO21    LPD     -0.383000        0.0000           -1   0.00000   0.00000
      5300 OAC      135      OAC      LPO22    LPD     -0.383000        0.0000           -1   0.00000   0.00000
      5301 OAC      136      OAC      C1       CD2O2A   3.181700       11.6110           0   -1.01600   0.899000
      5302 OAC      136      OAC      DC1      DRUD    -2.473700        0.4000           0   0.00000   0.00000
      5303 OAC      136      OAC      C2       CD33A    2.987900       11.6110           0   -1.68100   1.41400
      5304 OAC      136      OAC      DC2      DRUD    -3.181900        0.4000           0   0.00000   0.00000
      5305 OAC      136      OAC      H1       HDA3A    0.004000        1.0080           0   0.00000   0.00000
      5306 OAC      136      OAC      H2       HDA3A    0.004000        1.0080           0   0.00000   0.00000
      5307 OAC      136      OAC      H3       HDA3A    0.004000        1.0080           0   0.00000   0.00000
      5308 OAC      136      OAC      O1       OD2C2A   2.054800       15.5994           0   -0.699000   2.39900
      5309 OAC      136      OAC      DO1      DRUD    -2.051800        0.4000           0   0.00000   0.00000
      5310 OAC      136      OAC      O2       OD2C2A   2.054800       15.5994           0   -0.699000   2.39900
      5311 OAC      136      OAC      DO2      DRUD    -2.051800        0.4000           0   0.00000   0.00000
      5312 OAC      136      OAC      H        HDP1A    0.000000        1.0080           0   0.00000   0.00000
      5313 OAC      136      OAC      LPO11    LPD     -0.383000        0.0000           -1   0.00000   0.00000
      5314 OAC      136      OAC      LPO12    LPD     -0.383000        0.0000           -1   0.00000   0.00000
      5315 OAC      136      OAC      LPO21    LPD     -0.383000        0.0000           -1   0.00000   0.00000
      5316 OAC      136      OAC      LPO22    LPD     -0.383000        0.0000           -1   0.00000   0.00000
      5317 OAC      137      OAC      C1       CD2O2A   3.181700       11.6110           0   -1.01600   0.899000
      5318 OAC      137      OAC      DC1      DRUD    -2.473700        0.4000           0   0.00000   0.00000
      5319 OAC      137      OAC      C2       CD33A    2.987900       11.6110           0   -1.68100   1.41400
      5320 OAC      137      OAC      DC2      DRUD    -3.181900        0.4000           0   0.00000   0.00000
      5321 OAC      137      OAC      H1       HDA3A    0.004000        1.0080           0   0.00000   0.00000
      5322 OAC      137      OAC      H2       HDA3A    0.004000        1.0080           0   0.00000   0.00000
      5323 OAC      137      OAC      H3       HDA3A    0.004000        1.0080           0   0.00000   0.00000
      5324 OAC      137      OAC      O1       OD2C2A   2.054800       15.5994           0   -0.699000   2.39900
      5325 OAC      137      OAC      DO1      DRUD    -2.051800        0.4000           0   0.00000   0.00000
      5326 OAC      137      OAC      O2       OD2C2A   2.054800       15.5994           0   -0.699000   2.39900
      5327 OAC      137      OAC      DO2      DRUD    -2.051800        0.4000           0   0.00000   0.00000
      5328 OAC      137      OAC      H        HDP1A    0.000000        1.0080           0   0.00000   0.00000
      5329 OAC      137      OAC      LPO11    LPD     -0.383000        0.0000           -1   0.00000   0.00000
      5330 OAC      137      OAC      LPO12    LPD     -0.383000        0.0000           -1   0.00000   0.00000
      5331 OAC      137      OAC      LPO21    LPD     -0.383000        0.0000           -1   0.00000   0.00000
      5332 OAC      137      OAC      LPO22    LPD     -0.383000        0.0000           -1   0.00000   0.00000
      5333 OAC      138      OAC      C1       CD2O2A   3.181700       11.6110           0   -1.01600   0.899000
      5334 OAC      138      OAC      DC1      DRUD    -2.473700        0.4000           0   0.00000   0.00000
      5335 OAC      138      OAC      C2       CD33A    2.987900       11.6110           0   -1.68100   1.41400
      5336 OAC      138      OAC      DC2      DRUD    -3.181900        0.4000           0   0.00000   0.00000
      5337 OAC      138      OAC      H1       HDA3A    0.004000        1.0080           0   0.00000   0.00000
      5338 OAC      138      OAC      H2       HDA3A    0.004000        1.0080           0   0.00000   0.00000
      5339 OAC      138      OAC      H3       HDA3A    0.004000        1.0080           0   0.00000   0.00000
      5340 OAC      138      OAC      O1       OD2C2A   2.054800       15.5994           0   -0.699000   2.39900
      5341 OAC      138      OAC      DO1      DRUD    -2.051800        0.4000           0   0.00000   0.00000
      5342 OAC      138      OAC      O2       OD2C2A   2.054800       15.5994           0   -0.699000   2.39900
      5343 OAC      138      OAC      DO2      DRUD    -2.051800        0.4000           0   0.00000   0.00000
      5344 OAC      138      OAC      H        HDP1A    0.000000        1.0080           0   0.00000   0.00000
      5345 OAC      138      OAC      LPO11    LPD     -0.383000        0.0000           -1   0.00000   0.00000
      5346 OAC      138      OAC      LPO12    LPD     -0.383000        0.0000           -1   0.00000   0.00000
      5347 OAC      138      OAC      LPO21    LPD     -0.383000        0.0000           -1   0.00000   0.00000
      5348 OAC      138      OAC      LPO22    LPD     -0.383000        0.0000           -1   0.00000   0.00000
      5349 OAC      139      OAC      C1       CD2O2A   3.181700       11.6110           0   -1.01600   0.899000
      5350 OAC      139      OAC      DC1      DRUD    -2.473700        0.4000           0   0.00000   0.00000
      5351 OAC      139      OAC      C2       CD33A    2.987900       11.6110           0   -1.68100   1.41400
      5352 OAC      139      OAC      DC2      DRUD    -3.181900        0.4000           0   0.00000   0.00000
      5353 OAC      139      OAC      H1       HDA3A    0.004000        1.0080           0   0.00000   0.00000
      5354 OAC      139      OAC      H2       HDA3A    0.004000        1.0080           0   0.00000   0.00000
      5355 OAC      139      OAC      H3       HDA3A    0.004000        1.0080           0   0.00000   0.00000
      5356 OAC      139      OAC      O1       OD2C2A   2.054800       15.5994           0   -0.699000   2.39900
      5357 OAC      139      OAC      DO1      DRUD    -2.051800        0.4000           0   0.00000   0.00000
      5358 OAC      139      OAC      O2       OD2C2A   2.054800       15.5994           0   -0.699000   2.39900
      5359 OAC      139      OAC      DO2      DRUD    -2.051800        0.4000           0   0.00000   0.00000
      5360 OAC      139      OAC      H        HDP1A    0.000000        1.0080           0   0.00000   0.00000
      5361 OAC      139      OAC      LPO11    LPD     -0.383000        0.0000           -1   0.00000   0.00000
      5362 OAC      139      OAC      LPO12    LPD     -0.383000        0.0000           -1   0.00000   0.00000
      5363 OAC      139      OAC      LPO21    LPD     -0.383000        0.0000           -1   0.00000   0.00000
      5364 OAC      139      OAC      LPO22    LPD     -0.383000        0.0000           -1   0.00000   0.00000
      5365 OAC      140      OAC      C1       CD2O2A   3.181700       11.6110           0   -1.01600   0.899000
      5366 OAC      140      OAC      DC1      DRUD    -2.473700        0.4000           0   0.00000   0.00000
      5367 OAC      140      OAC      C2       CD33A    2.987900       11.6110           0   -1.68100   1.41400
      5368 OAC      140      OAC      DC2      DRUD    -3.181900        0.4000           0   0.00000   0.00000
      5369 OAC      140      OAC      H1       HDA3A    0.004000        1.0080           0   0.00000   0.00000
      5370 OAC      140      OAC      H2       HDA3A    0.004000        1.0080           0   0.00000   0.00000
      5371 OAC      140      OAC      H3       HDA3A    0.004000        1.0080           0   0.00000   0.00000
      5372 OAC      140      OAC      O1       OD2C2A   2.054800       15.5994           0   -0.699000   2.39900
      5373 OAC      140      OAC      DO1      DRUD    -2.051800        0.4000           0   0.00000   0.00000
      5374 OAC      140      OAC      O2       OD2C2A   2.054800       15.5994           0   -0.699000   2.39900
      5375 OAC      140      OAC      DO2      DRUD    -2.051800        0.4000           0   0.00000   0.00000
      5376 OAC      140      OAC      H        HDP1A    0.000000        1.0080           0   0.00000   0.00000
      5377 OAC      140      OAC      LPO11    LPD     -0.383000        0.0000           -1   0.00000   0.00000
      5378 OAC      140      OAC      LPO12    LPD     -0.383000        0.0000           -1   0.00000   0.00000
      5379 OAC      140      OAC      LPO21    LPD     -0.383000        0.0000           -1   0.00000   0.00000
      5380 OAC      140      OAC      LPO22    LPD     -0.383000        0.0000           -1   0.00000   0.00000
      5381 OAC      141      OAC      C1       CD2O2A   3.181700       11.6110           0   -1.01600   0.899000
      5382 OAC      141      OAC      DC1      DRUD    -2.473700        0.4000           0   0.00000   0.00000
      5383 OAC      141      OAC      C2       CD33A    2.987900       11.6110           0   -1.68100   1.41400
      5384 OAC      141      OAC      DC2      DRUD    -3.181900        0.4000           0   0.00000   0.00000
      5385 OAC      141      OAC      H1       HDA3A    0.004000        1.0080           0   0.00000   0.00000
      5386 OAC      141      OAC      H2       HDA3A    0.004000        1.0080           0   0.00000   0.00000
      5387 OAC      141      OAC      H3       HDA3A    0.004000        1.0080           0   0.00000   0.00000
      5388 OAC      141      OAC      O1       OD2C2A   2.054800       15.5994           0   -0.699000   2.39900
      5389 OAC      141      OAC      DO1      DRUD    -2.051800        0.4000           0   0.00000   0.00000
      5390 OAC      141      OAC      O2       OD2C2A   2.054800       15.5994           0   -0.699000   2.39900
      5391 OAC      141      OAC      DO2      DRUD    -2.051800        0.4000           0   0.00000   0.00000
      5392 OAC      141      OAC      H        HDP1A    0.000000        1.0080           0   0.00000   0.00000
      5393 OAC      141      OAC      LPO11    LPD     -0.383000        0.0000           -1   0.00000   0.00000
      5394 OAC      141      OAC      LPO12    LPD     -0.383000        0.0000           -1   0.00000   0.00000
      5395 OAC      141      OAC      LPO21    LPD     -0.383000        0.0000           -1   0.00000   0.00000
      5396 OAC      141      OAC      LPO22    LPD     -0.383000        0.0000           -1   0.00000   0.00000
      5397 OAC      142      OAC      C1       CD2O2A   3.181700       11.6110           0   -1.01600   0.899000
      5398 OAC      142      OAC      DC1      DRUD    -2.473700        0.4000           0   0.00000   0.00000
      5399 OAC      142      OAC      C2       CD33A    2.987900       11.6110           0   -1.68100   1.41400
      5400 OAC      142      OAC      DC2      DRUD    -3.181900        0.4000           0   0.00000   0.00000
      5401 OAC      142      OAC      H1       HDA3A    0.004000        1.0080           0   0.00000   0.00000
      5402 OAC      142      OAC      H2       HDA3A    0.004000        1.0080           0   0.00000   0.00000
      5403 OAC      142      OAC      H3       HDA3A    0.004000        1.0080           0   0.00000   0.00000
      5404 OAC      142      OAC      O1       OD2C2A   2.054800       15.5994           0   -0.699000   2.39900
      5405 OAC      142      OAC      DO1      DRUD    -2.051800        0.4000           0   0.00000   0.00000
      5406 OAC      142      OAC      O2       OD2C2A   2.054800       15.5994           0   -0.699000   2.39900
      5407 OAC      142      OAC      DO2      DRUD    -2.051800        0.4000           0   0.00000   0.00000
      5408 OAC      142      OAC      H        HDP1A    0.000000        1.0080           0   0.00000   0.00000
      5409 OAC      142      OAC      LPO11    LPD     -0.383000        0.0000           -1   0.00000   0.00000
      5410 OAC      142      OAC      LPO12    LPD     -0.383000        0.0000           -1   0.00000   0.00000
      5411 OAC      142      OAC      LPO21    LPD     -0.383000        0.0000           -1   0.00000   0.00000
      5412 OAC      142      OAC      LPO22    LPD     -0.383000        0.0000           -1   0.00000   0.00000
      5413 OAC      143      OAC      C1       CD2O2A   3.181700       11.6110           0   -1.01600   0.899000
      5414 OAC      143      OAC      DC1      DRUD    -2.473700        0.4000           0   0.00000   0.00000
      5415 OAC      143      OAC      C2       CD33A    2.987900       11.6110           0   -1.68100   1.41400
      5416 OAC      143      OAC      DC2      DRUD    -3.181900        0.4000           0   0.00000   0.00000
      5417 OAC      143      OAC      H1       HDA3A    0.004000        1.0080           0   0.00000   0.00000
      5418 OAC      143      OAC      H2       HDA3A    0.004000        1.0080           0   0.00000   0.00000
      5419 OAC      143      OAC      H3       HDA3A    0.004000        1.0080           0   0.00000   0.00000
      5420 OAC      143      OAC      O1       OD2C2A   2.054800       15.5994           0   -0.699000   2.39900
      5421 OAC      143      OAC      DO1      DRUD    -2.051800        0.4000           0   0.00000   0.00000
      5422 OAC      143      OAC      O2       OD2C2A   2.054800       15.5994           0   -0.699000   2.39900
      5423 OAC      143      OAC      DO2      DRUD    -2.051800        0.4000           0   0.00000   0.00000
      5424 OAC      143      OAC      H        HDP1A    0.000000        1.0080           0   0.00000   0.00000
      5425 OAC      143      OAC      LPO11    LPD     -0.383000        0.0000           -1   0.00000   0.00000
      5426 OAC      143      OAC      LPO12    LPD     -0.383000        0.0000           -1   0.00000   0.00000
      5427 OAC      143      OAC      LPO21    LPD     -0.383000        0.0000           -1   0.00000   0.00000
      5428 OAC      143      OAC      LPO22    LPD     -0.383000        0.0000           -1   0.00000   0.00000
      5429 OAC      144      OAC      C1       CD2O2A   3.181700       11.6110           0   -1.01600   0.899000
      5430 OAC      144      OAC      DC1      DRUD    -2.473700        0.4000           0   0.00000   0.00000
      5431 OAC      144      OAC      C2       CD33A    2.987900       11.6110           0   -1.68100   1.41400
      5432 OAC      144      OAC      DC2      DRUD    -3.181900        0.4000           0   0.00000   0.00000
      5433 OAC      144      OAC      H1       HDA3A    0.004000        1.0080           0   0.00000   0.00000
      5434 OAC      144      OAC      H2       HDA3A    0.004000        1.0080           0   0.00000   0.00000
      5435 OAC      144      OAC      H3       HDA3A    0.004000        1.0080           0   0.00000   0.00000
      5436 OAC      144      OAC      O1       OD2C2A   2.054800       15.5994           0   -0.699000   2.39900
      5437 OAC      144      OAC      DO1      DRUD    -2.051800        0.4000           0   0.00000   0.00000
      5438 OAC      144      OAC      O2       OD2C2A   2.054800       15.5994           0   -0.699000   2.39900
      5439 OAC      144      OAC      DO2      DRUD    -2.051800        0.4000           0   0.00000   0.00000
      5440 OAC      144      OAC      H        HDP1A    0.000000        1.0080           0   0.00000   0.00000
      5441 OAC      144      OAC      LPO11    LPD     -0.383000        0.0000           -1   0.00000   0.00000
      5442 OAC      144      OAC      LPO12    LPD     -0.383000        0.0000           -1   0.00000   0.00000
      5443 OAC      144      OAC      LPO21    LPD     -0.383000        0.0000           -1   0.00000   0.00000
      5444 OAC      144      OAC      LPO22    LPD     -0.383000        0.0000           -1   0.00000   0.00000
      5445 OAC      145      OAC      C1       CD2O2A   3.181700       11.6110           0   -1.01600   0.899000
      5446 OAC      145      OAC      DC1      DRUD    -2.473700        0.4000           0   0.00000   0.00000
      5447 OAC      145      OAC      C2       CD33A    2.987900       11.6110           0   -1.68100   1.41400
      5448 OAC      145      OAC      DC2      DRUD    -3.181900        0.4000           0   0.00000   0.00000
      5449 OAC      145      OAC      H1       HDA3A    0.004000        1.0080           0   0.00000   0.00000
      5450 OAC      145      OAC      H2       HDA3A    0.004000        1.0080           0   0.00000   0.00000
      5451 OAC      145      OAC      H3       HDA3A    0.004000        1.0080           0   0.00000   0.00000
      5452 OAC      145      OAC      O1       OD2C2A   2.054800       15.5994           0   -0.699000   2.39900
      5453 OAC      145      OAC      DO1      DRUD    -2.051800        0.4000           0   0.00000   0.00000
      5454 OAC      145      OAC      O2       OD2C2A   2.054800       15.5994           0   -0.699000   2.39900
      5455 OAC      145      OAC      DO2      DRUD    -2.051800        0.4000           0   0.00000   0.00000
      5456 OAC      145      OAC      H        HDP1A    0.000000        1.0080           0   0.00000   0.00000
      5457 OAC      145      OAC      LPO11    LPD     -0.383000        0.0000           -1   0.00000   0.00000
      5458 OAC      145      OAC      LPO12    LPD     -0.383000        0.0000           -1   0.00000   0.00000
      5459 OAC      145      OAC      LPO21    LPD     -0.383000        0.0000           -1   0.00000   0.00000
      5460 OAC      145      OAC      LPO22    LPD     -0.383000        0.0000           -1   0.00000   0.00000
      5461 OAC      146      OAC      C1       CD2O2A   3.181700       11.6110           0   -1.01600   0.899000
      5462 OAC      146      OAC      DC1      DRUD    -2.473700        0.4000           0   0.00000   0.00000
      5463 OAC      146      OAC      C2       CD33A    2.987900       11.6110           0   -1.68100   1.41400
      5464 OAC      146      OAC      DC2      DRUD    -3.181900        0.4000           0   0.00000   0.00000
      5465 OAC      146      OAC      H1       HDA3A    0.004000        1.0080           0   0.00000   0.00000
      5466 OAC      146      OAC      H2       HDA3A    0.004000        1.0080           0   0.00000   0.00000
      5467 OAC      146      OAC      H3       HDA3A    0.004000        1.0080           0   0.00000   0.00000
      5468 OAC      146      OAC      O1       OD2C2A   2.054800       15.5994           0   -0.699000   2.39900
      5469 OAC      146      OAC      DO1      DRUD    -2.051800        0.4000           0   0.00000   0.00000
      5470 OAC      146      OAC      O2       OD2C2A   2.054800       15.5994           0   -0.699000   2.39900
      5471 OAC      146      OAC      DO2      DRUD    -2.051800        0.4000           0   0.00000   0.00000
      5472 OAC      146      OAC      H        HDP1A    0.000000        1.0080           0   0.00000   0.00000
      5473 OAC      146      OAC      LPO11    LPD     -0.383000        0.0000           -1   0.00000   0.00000
      5474 OAC      146      OAC      LPO12    LPD     -0.383000        0.0000           -1   0.00000   0.00000
      5475 OAC      146      OAC      LPO21    LPD     -0.383000        0.0000           -1   0.00000   0.00000
      5476 OAC      146      OAC      LPO22    LPD     -0.383000        0.0000           -1   0.00000   0.00000
      5477 OAC      147      OAC      C1       CD2O2A   3.181700       11.6110           0   -1.01600   0.899000
      5478 OAC      147      OAC      DC1      DRUD    -2.473700        0.4000           0   0.00000   0.00000
      5479 OAC      147      OAC      C2       CD33A    2.987900       11.6110           0   -1.68100   1.41400
      5480 OAC      147      OAC      DC2      DRUD    -3.181900        0.4000           0   0.00000   0.00000
      5481 OAC      147      OAC      H1       HDA3A    0.004000        1.0080           0   0.00000   0.00000
      5482 OAC      147      OAC      H2       HDA3A    0.004000        1.0080           0   0.00000   0.00000
      5483 OAC      147      OAC      H3       HDA3A    0.004000        1.0080           0   0.00000   0.00000
      5484 OAC      147      OAC      O1       OD2C2A   2.054800       15.5994           0   -0.699000   2.39900
      5485 OAC      147      OAC      DO1      DRUD    -2.051800        0.4000           0   0.00000   0.00000
      5486 OAC      147      OAC      O2       OD2C2A   2.054800       15.5994           0   -0.699000   2.39900
      5487 OAC      147      OAC      DO2      DRUD    -2.051800        0.4000           0   0.00000   0.00000
      5488 OAC      147      OAC      H        HDP1A    0.000000        1.0080           0   0.00000   0.00000
      5489 OAC      147      OAC      LPO11    LPD     -0.383000        0.0000           -1   0.00000   0.00000
      5490 OAC      147      OAC      LPO12    LPD     -0.383000        0.0000           -1   0.00000   0.00000
      5491 OAC      147      OAC      LPO21    LPD     -0.383000        0.0000           -1   0.00000   0.00000
      5492 OAC      147      OAC      LPO22    LPD     -0.383000        0.0000           -1   0.00000   0.00000
      5493 OAC      148      OAC      C1       CD2O2A   3.181700       11.6110           0   -1.01600   0.899000
      5494 OAC      148      OAC      DC1      DRUD    -2.473700        0.4000           0   0.00000   0.00000
      5495 OAC      148      OAC      C2       CD33A    2.987900       11.6110           0   -1.68100   1.41400
      5496 OAC      148      OAC      DC2      DRUD    -3.181900        0.4000           0   0.00000   0.00000
      5497 OAC      148      OAC      H1       HDA3A    0.004000        1.0080           0   0.00000   0.00000
      5498 OAC      148      OAC      H2       HDA3A    0.004000        1.0080           0   0.00000   0.00000
      5499 OAC      148      OAC      H3       HDA3A    0.004000        1.0080           0   0.00000   0.00000
      5500 OAC      148      OAC      O1       OD2C2A   2.054800       15.5994           0   -0.699000   2.39900
      5501 OAC      148      OAC      DO1      DRUD    -2.051800        0.4000           0   0.00000   0.00000
      5502 OAC      148      OAC      O2       OD2C2A   2.054800       15.5994           0   -0.699000   2.39900
      5503 OAC      148      OAC      DO2      DRUD    -2.051800        0.4000           0   0.00000   0.00000
      5504 OAC      148      OAC      H        HDP1A    0.000000        1.0080           0   0.00000   0.00000
      5505 OAC      148      OAC      LPO11    LPD     -0.383000        0.0000           -1   0.00000   0.00000
      5506 OAC      148      OAC      LPO12    LPD     -0.383000        0.0000           -1   0.00000   0.00000
      5507 OAC      148      OAC      LPO21    LPD     -0.383000        0.0000           -1   0.00000   0.00000
      5508 OAC      148      OAC      LPO22    LPD     -0.383000        0.0000           -1   0.00000   0.00000
      5509 OAC      149      OAC      C1       CD2O2A   3.181700       11.6110           0   -1.01600   0.899000
      5510 OAC      149      OAC      DC1      DRUD    -2.473700        0.4000           0   0.00000   0.00000
      5511 OAC      149      OAC      C2       CD33A    2.987900       11.6110           0   -1.68100   1.41400
      5512 OAC      149      OAC      DC2      DRUD    -3.181900        0.4000           0   0.00000   0.00000
      5513 OAC      149      OAC      H1       HDA3A    0.004000        1.0080           0   0.00000   0.00000
      5514 OAC      149      OAC      H2       HDA3A    0.004000        1.0080           0   0.00000   0.00000
      5515 OAC      149      OAC      H3       HDA3A    0.004000        1.0080           0   0.00000   0.00000
      5516 OAC      149      OAC      O1       OD2C2A   2.054800       15.5994           0   -0.699000   2.39900
      5517 OAC      149      OAC      DO1      DRUD    -2.051800        0.4000           0   0.00000   0.00000
      5518 OAC      149      OAC      O2       OD2C2A   2.054800       15.5994           0   -0.699000   2.39900
      5519 OAC      149      OAC      DO2      DRUD    -2.051800        0.4000           0   0.00000   0.00000
      5520 OAC      149      OAC      H        HDP1A    0.000000        1.0080           0   0.00000   0.00000
      5521 OAC      149      OAC      LPO11    LPD     -0.383000        0.0000           -1   0.00000   0.00000
      5522 OAC      149      OAC      LPO12    LPD     -0.383000        0.0000           -1   0.00000   0.00000
      5523 OAC      149      OAC      LPO21    LPD     -0.383000        0.0000           -1   0.00000   0.00000
      5524 OAC      149      OAC      LPO22    LPD     -0.383000        0.0000           -1   0.00000   0.00000
      5525 OAC      150      OAC      C1       CD2O2A   3.181700       11.6110           0   -1.01600   0.899000
      5526 OAC      150      OAC      DC1      DRUD    -2.473700        0.4000           0   0.00000   0.00000
      5527 OAC      150      OAC      C2       CD33A    2.987900       11.6110           0   -1.68100   1.41400
      5528 OAC      150      OAC      DC2      DRUD    -3.181900        0.4000           0   0.00000   0.00000
      5529 OAC      150      OAC      H1       HDA3A    0.004000        1.0080           0   0.00000   0.00000
      5530 OAC      150      OAC      H2       HDA3A    0.004000        1.0080           0   0.00000   0.00000
      5531 OAC      150      OAC      H3       HDA3A    0.004000        1.0080           0   0.00000   0.00000
      5532 OAC      150      OAC      O1       OD2C2A   2.054800       15.5994           0   -0.699000   2.39900
      5533 OAC      150      OAC      DO1      DRUD    -2.051800        0.4000           0   0.00000   0.00000
      5534 OAC      150      OAC      O2       OD2C2A   2.054800       15.5994           0   -0.699000   2.39900
      5535 OAC      150      OAC      DO2      DRUD    -2.051800        0.4000           0   0.00000   0.00000
      5536 OAC      150      OAC      H        HDP1A    0.000000        1.0080           0   0.00000   0.00000
      5537 OAC      150      OAC      LPO11    LPD     -0.383000        0.0000           -1   0.00000   0.00000
      5538 OAC      150      OAC      LPO12    LPD     -0.383000        0.0000           -1   0.00000   0.00000
      5539 OAC      150      OAC      LPO21    LPD     -0.383000        0.0000           -1   0.00000   0.00000
      5540 OAC      150      OAC      LPO22    LPD     -0.383000        0.0000           -1   0.00000   0.00000
      5541 IM1      1        IM1      C1       CD33G    2.390600       11.6110           0   -1.08100   1.00000
      5542 IM1      1        IM1      DC1      DRUD    -2.551600        0.4000           0   0.00000   0.00000
      5543 IM1      1        IM1      H1       HDA3A    0.094000        1.0080           0   0.00000   0.00000
      5544 IM1      1        IM1      H2       HDA3A    0.094000        1.0080           0   0.00000   0.00000
      5545 IM1      1        IM1      H3       HDA3A    0.094000        1.0080           0   0.00000   0.00000
      5546 IM1      1        IM1      N1       ND2R5A   2.670300       13.6070           0   -1.06300   1.30000
      5547 IM1      1        IM1      DN1      DRUD    -2.530300        0.4000           0   0.00000   0.00000
      5548 IM1      1        IM1      C2       CD2R5A   2.511900       11.6110           0   -1.37800   1.30000
      5549 IM1      1        IM1      DC2      DRUD    -2.880900        0.4000           0   0.00000   0.00000
      5550 IM1      1        IM1      H4       HDR5A    0.150000        1.0080           0   0.00000   0.00000
      5551 IM1      1        IM1      C3       CD2R5A   3.068900       11.6110           0   -1.37800   1.30000
      5552 IM1      1        IM1      DC3      DRUD    -2.880900        0.4000           0   0.00000   0.00000
      5553 IM1      1        IM1      H5       HDR5A    0.053000        1.0080           0   0.00000   0.00000
      5554 IM1      1        IM1      C4       CD2R5B   2.404400       11.6110           0   -0.868000   1.30000
      5555 IM1      1        IM1      DC4      DRUD    -2.286400        0.4000           0   0.00000   0.00000
      5556 IM1      1        IM1      H6       HDR5B    0.073000        1.0080           0   0.00000   0.00000
      5557 IM1      1        IM1      N2       ND2R5B   2.249300       13.6070           0   -0.840000   1.00000
      5558 IM1      1        IM1      DN2      DRUD    -2.249300        0.4000           0   0.00000   0.00000
      5559 IM1      1        IM1      H7       HDP1A    0.000000        1.0080           0   0.00000   0.00000
      5560 IM1      1        IM1      LPN21    LPD     -0.474000        0.0000           -1   0.00000   0.00000
      5561 IM1      2        IM1      C1       CD33G    2.390600       11.6110           0   -1.08100   1.00000
      5562 IM1      2        IM1      DC1      DRUD    -2.551600        0.4000           0   0.00000   0.00000
      5563 IM1      2        IM1      H1       HDA3A    0.094000        1.0080           0   0.00000   0.00000
      5564 IM1      2        IM1      H2       HDA3A    0.094000        1.0080           0   0.00000   0.00000
      5565 IM1      2        IM1      H3       HDA3A    0.094000        1.0080           0   0.00000   0.00000
      5566 IM1      2        IM1      N1       ND2R5A   2.670300       13.6070           0   -1.06300   1.30000
      5567 IM1      2        IM1      DN1      DRUD    -2.530300        0.4000           0   0.00000   0.00000
      5568 IM1      2        IM1      C2       CD2R5A   2.511900       11.6110           0   -1.37800   1.30000
      5569 IM1      2        IM1      DC2      DRUD    -2.880900        0.4000           0   0.00000   0.00000
      5570 IM1      2        IM1      H4       HDR5A    0.150000        1.0080           0   0.00000   0.00000
      5571 IM1      2        IM1      C3       CD2R5A   3.068900       11.6110           0   -1.37800   1.30000
      5572 IM1      2        IM1      DC3      DRUD    -2.880900        0.4000           0   0.00000   0.00000
      5573 IM1      2        IM1      H5       HDR5A    0.053000        1.0080           0   0.00000   0.00000
      5574 IM1      2        IM1      C4       CD2R5B   2.404400       11.6110           0   -0.868000   1.30000
      5575 IM1      2        IM1      DC4      DRUD    -2.286400        0.4000           0   0.00000   0.00000
      5576 IM1      2        IM1      H6       HDR5B    0.073000        1.0080           0   0.00000   0.00000
      5577 IM1      2        IM1      N2       ND2R5B   2.249300       13.6070           0   -0.840000   1.00000
      5578 IM1      2        IM1      DN2      DRUD    -2.249300        0.4000           0   0.00000   0.00000
      5579 IM1      2        IM1      H7       HDP1A    0.000000        1.0080           0   0.00000   0.00000
      5580 IM1      2        IM1      LPN21    LPD     -0.474000        0.0000           -1   0.00000   0.00000
      5581 IM1      3        IM1      C1       CD33G    2.390600       11.6110           0   -1.08100   1.00000
      5582 IM1      3        IM1      DC1      DRUD    -2.551600        0.4000           0   0.00000   0.00000
      5583 IM1      3        IM1      H1       HDA3A    0.094000        1.0080           0   0.00000   0.00000
      5584 IM1      3        IM1      H2       HDA3A    0.094000        1.0080           0   0.00000   0.00000
      5585 IM1      3        IM1      H3       HDA3A    0.094000        1.0080           0   0.00000   0.00000
      5586 IM1      3        IM1      N1       ND2R5A   2.670300       13.6070           0   -1.06300   1.30000
      5587 IM1      3        IM1      DN1      DRUD    -2.530300        0.4000           0   0.00000   0.00000
      5588 IM1      3        IM1      C2       CD2R5A   2.511900       11.6110           0   -1.37800   1.30000
      5589 IM1      3        IM1      DC2      DRUD    -2.880900        0.4000           0   0.00000   0.00000
      5590 IM1      3        IM1      H4       HDR5A    0.150000        1.0080           0   0.00000   0.00000
      5591 IM1      3        IM1      C3       CD2R5A   3.068900       11.6110           0   -1.37800   1.30000
      5592 IM1      3        IM1      DC3      DRUD    -2.880900        0.4000           0   0.00000   0.00000
      5593 IM1      3        IM1      H5       HDR5A    0.053000        1.0080           0   0.00000   0.00000
      5594 IM1      3        IM1      C4       CD2R5B   2.404400       11.6110           0   -0.868000   1.30000
      5595 IM1      3        IM1      DC4      DRUD    -2.286400        0.4000           0   0.00000   0.00000
      5596 IM1      3        IM1      H6       HDR5B    0.073000        1.0080           0   0.00000   0.00000
      5597 IM1      3        IM1      N2       ND2R5B   2.249300       13.6070           0   -0.840000   1.00000
      5598 IM1      3        IM1      DN2      DRUD    -2.249300        0.4000           0   0.00000   0.00000
      5599 IM1      3        IM1      H7       HDP1A    0.000000        1.0080           0   0.00000   0.00000
      5600 IM1      3        IM1      LPN21    LPD     -0.474000        0.0000           -1   0.00000   0.00000
      5601 IM1      4        IM1      C1       CD33G    2.390600       11.6110           0   -1.08100   1.00000
      5602 IM1      4        IM1      DC1      DRUD    -2.551600        0.4000           0   0.00000   0.00000
      5603 IM1      4        IM1      H1       HDA3A    0.094000        1.0080           0   0.00000   0.00000
      5604 IM1      4        IM1      H2       HDA3A    0.094000        1.0080           0   0.00000   0.00000
      5605 IM1      4        IM1      H3       HDA3A    0.094000        1.0080           0   0.00000   0.00000
      5606 IM1      4        IM1      N1       ND2R5A   2.670300       13.6070           0   -1.06300   1.30000
      5607 IM1      4        IM1      DN1      DRUD    -2.530300        0.4000           0   0.00000   0.00000
      5608 IM1      4        IM1      C2       CD2R5A   2.511900       11.6110           0   -1.37800   1.30000
      5609 IM1      4        IM1      DC2      DRUD    -2.880900        0.4000           0   0.00000   0.00000
      5610 IM1      4        IM1      H4       HDR5A    0.150000        1.0080           0   0.00000   0.00000
      5611 IM1      4        IM1      C3       CD2R5A   3.068900       11.6110           0   -1.37800   1.30000
      5612 IM1      4        IM1      DC3      DRUD    -2.880900        0.4000           0   0.00000   0.00000
      5613 IM1      4        IM1      H5       HDR5A    0.053000        1.0080           0   0.00000   0.00000
      5614 IM1      4        IM1      C4       CD2R5B   2.404400       11.6110           0   -0.868000   1.30000
      5615 IM1      4        IM1      DC4      DRUD    -2.286400        0.4000           0   0.00000   0.00000
      5616 IM1      4        IM1      H6       HDR5B    0.073000        1.0080           0   0.00000   0.00000
      5617 IM1      4        IM1      N2       ND2R5B   2.249300       13.6070           0   -0.840000   1.00000
      5618 IM1      4        IM1      DN2      DRUD    -2.249300        0.4000           0   0.00000   0.00000
      5619 IM1      4        IM1      H7       HDP1A    0.000000        1.0080           0   0.00000   0.00000
      5620 IM1      4        IM1      LPN21    LPD     -0.474000        0.0000           -1   0.00000   0.00000
      5621 IM1      5        IM1      C1       CD33G    2.390600       11.6110           0   -1.08100   1.00000
      5622 IM1      5        IM1      DC1      DRUD    -2.551600        0.4000           0   0.00000   0.00000
      5623 IM1      5        IM1      H1       HDA3A    0.094000        1.0080           0   0.00000   0.00000
      5624 IM1      5        IM1      H2       HDA3A    0.094000        1.0080           0   0.00000   0.00000
      5625 IM1      5        IM1      H3       HDA3A    0.094000        1.0080           0   0.00000   0.00000
      5626 IM1      5        IM1      N1       ND2R5A   2.670300       13.6070           0   -1.06300   1.30000
      5627 IM1      5        IM1      DN1      DRUD    -2.530300        0.4000           0   0.00000   0.00000
      5628 IM1      5        IM1      C2       CD2R5A   2.511900       11.6110           0   -1.37800   1.30000
      5629 IM1      5        IM1      DC2      DRUD    -2.880900        0.4000           0   0.00000   0.00000
      5630 IM1      5        IM1      H4       HDR5A    0.150000        1.0080           0   0.00000   0.00000
      5631 IM1      5        IM1      C3       CD2R5A   3.068900       11.6110           0   -1.37800   1.30000
      5632 IM1      5        IM1      DC3      DRUD    -2.880900        0.4000           0   0.00000   0.00000
      5633 IM1      5        IM1      H5       HDR5A    0.053000        1.0080           0   0.00000   0.00000
      5634 IM1      5        IM1      C4       CD2R5B   2.404400       11.6110           0   -0.868000   1.30000
      5635 IM1      5        IM1      DC4      DRUD    -2.286400        0.4000           0   0.00000   0.00000
      5636 IM1      5        IM1      H6       HDR5B    0.073000        1.0080           0   0.00000   0.00000
      5637 IM1      5        IM1      N2       ND2R5B   2.249300       13.6070           0   -0.840000   1.00000
      5638 IM1      5        IM1      DN2      DRUD    -2.249300        0.4000           0   0.00000   0.00000
      5639 IM1      5        IM1      H7       HDP1A    0.000000        1.0080           0   0.00000   0.00000
      5640 IM1      5        IM1      LPN21    LPD     -0.474000        0.0000           -1   0.00000   0.00000
      5641 IM1      6        IM1      C1       CD33G    2.390600       11.6110           0   -1.08100   1.00000
      5642 IM1      6        IM1      DC1      DRUD    -2.551600        0.4000           0   0.00000   0.00000
      5643 IM1      6        IM1      H1       HDA3A    0.094000        1.0080           0   0.00000   0.00000
      5644 IM1      6        IM1      H2       HDA3A    0.094000        1.0080           0   0.00000   0.00000
      5645 IM1      6        IM1      H3       HDA3A    0.094000        1.0080           0   0.00000   0.00000
      5646 IM1      6        IM1      N1       ND2R5A   2.670300       13.6070           0   -1.06300   1.30000
      5647 IM1      6        IM1      DN1      DRUD    -2.530300        0.4000           0   0.00000   0.00000
      5648 IM1      6        IM1      C2       CD2R5A   2.511900       11.6110           0   -1.37800   1.30000
      5649 IM1      6        IM1      DC2      DRUD    -2.880900        0.4000           0   0.00000   0.00000
      5650 IM1      6        IM1      H4       HDR5A    0.150000        1.0080           0   0.00000   0.00000
      5651 IM1      6        IM1      C3       CD2R5A   3.068900       11.6110           0   -1.37800   1.30000
      5652 IM1      6        IM1      DC3      DRUD    -2.880900        0.4000           0   0.00000   0.00000
      5653 IM1      6        IM1      H5       HDR5A    0.053000        1.0080           0   0.00000   0.00000
      5654 IM1      6        IM1      C4       CD2R5B   2.404400       11.6110           0   -0.868000   1.30000
      5655 IM1      6        IM1      DC4      DRUD    -2.286400        0.4000           0   0.00000   0.00000
      5656 IM1      6        IM1      H6       HDR5B    0.073000        1.0080           0   0.00000   0.00000
      5657 IM1      6        IM1      N2       ND2R5B   2.249300       13.6070           0   -0.840000   1.00000
      5658 IM1      6        IM1      DN2      DRUD    -2.249300        0.4000           0   0.00000   0.00000
      5659 IM1      6        IM1      H7       HDP1A    0.000000        1.0080           0   0.00000   0.00000
      5660 IM1      6        IM1      LPN21    LPD     -0.474000        0.0000           -1   0.00000   0.00000
      5661 IM1      7        IM1      C1       CD33G    2.390600       11.6110           0   -1.08100   1.00000
      5662 IM1      7        IM1      DC1      DRUD    -2.551600        0.4000           0   0.00000   0.00000
      5663 IM1      7        IM1      H1       HDA3A    0.094000        1.0080           0   0.00000   0.00000
      5664 IM1      7        IM1      H2       HDA3A    0.094000        1.0080           0   0.00000   0.00000
      5665 IM1      7        IM1      H3       HDA3A    0.094000        1.0080           0   0.00000   0.00000
      5666 IM1      7        IM1      N1       ND2R5A   2.670300       13.6070           0   -1.06300   1.30000
      5667 IM1      7        IM1      DN1      DRUD    -2.530300        0.4000           0   0.00000   0.00000
      5668 IM1      7        IM1      C2       CD2R5A   2.511900       11.6110           0   -1.37800   1.30000
      5669 IM1      7        IM1      DC2      DRUD    -2.880900        0.4000           0   0.00000   0.00000
      5670 IM1      7        IM1      H4       HDR5A    0.150000        1.0080           0   0.00000   0.00000
      5671 IM1      7        IM1      C3       CD2R5A   3.068900       11.6110           0   -1.37800   1.30000
      5672 IM1      7        IM1      DC3      DRUD    -2.880900        0.4000           0   0.00000   0.00000
      5673 IM1      7        IM1      H5       HDR5A    0.053000        1.0080           0   0.00000   0.00000
      5674 IM1      7        IM1      C4       CD2R5B   2.404400       11.6110           0   -0.868000   1.30000
      5675 IM1      7        IM1      DC4      DRUD    -2.286400        0.4000           0   0.00000   0.00000
      5676 IM1      7        IM1      H6       HDR5B    0.073000        1.0080           0   0.00000   0.00000
      5677 IM1      7        IM1      N2       ND2R5B   2.249300       13.6070           0   -0.840000   1.00000
      5678 IM1      7        IM1      DN2      DRUD    -2.249300        0.4000           0   0.00000   0.00000
      5679 IM1      7        IM1      H7       HDP1A    0.000000        1.0080           0   0.00000   0.00000
      5680 IM1      7        IM1      LPN21    LPD     -0.474000        0.0000           -1   0.00000   0.00000
      5681 IM1      8        IM1      C1       CD33G    2.390600       11.6110           0   -1.08100   1.00000
      5682 IM1      8        IM1      DC1      DRUD    -2.551600        0.4000           0   0.00000   0.00000
      5683 IM1      8        IM1      H1       HDA3A    0.094000        1.0080           0   0.00000   0.00000
      5684 IM1      8        IM1      H2       HDA3A    0.094000        1.0080           0   0.00000   0.00000
      5685 IM1      8        IM1      H3       HDA3A    0.094000        1.0080           0   0.00000   0.00000
      5686 IM1      8        IM1      N1       ND2R5A   2.670300       13.6070           0   -1.06300   1.30000
      5687 IM1      8        IM1      DN1      DRUD    -2.530300        0.4000           0   0.00000   0.00000
      5688 IM1      8        IM1      C2       CD2R5A   2.511900       11.6110           0   -1.37800   1.30000
      5689 IM1      8        IM1      DC2      DRUD    -2.880900        0.4000           0   0.00000   0.00000
      5690 IM1      8        IM1      H4       HDR5A    0.150000        1.0080           0   0.00000   0.00000
      5691 IM1      8        IM1      C3       CD2R5A   3.068900       11.6110           0   -1.37800   1.30000
      5692 IM1      8        IM1      DC3      DRUD    -2.880900        0.4000           0   0.00000   0.00000
      5693 IM1      8        IM1      H5       HDR5A    0.053000        1.0080           0   0.00000   0.00000
      5694 IM1      8        IM1      C4       CD2R5B   2.404400       11.6110           0   -0.868000   1.30000
      5695 IM1      8        IM1      DC4      DRUD    -2.286400        0.4000           0   0.00000   0.00000
      5696 IM1      8        IM1      H6       HDR5B    0.073000        1.0080           0   0.00000   0.00000
      5697 IM1      8        IM1      N2       ND2R5B   2.249300       13.6070           0   -0.840000   1.00000
      5698 IM1      8        IM1      DN2      DRUD    -2.249300        0.4000           0   0.00000   0.00000
      5699 IM1      8        IM1      H7       HDP1A    0.000000        1.0080           0   0.00000   0.00000
      5700 IM1      8        IM1      LPN21    LPD     -0.474000        0.0000           -1   0.00000   0.00000
      5701 IM1      9        IM1      C1       CD33G    2.390600       11.6110           0   -1.08100   1.00000
      5702 IM1      9        IM1      DC1      DRUD    -2.551600        0.4000           0   0.00000   0.00000
      5703 IM1      9        IM1      H1       HDA3A    0.094000        1.0080           0   0.00000   0.00000
      5704 IM1      9        IM1      H2       HDA3A    0.094000        1.0080           0   0.00000   0.00000
      5705 IM1      9        IM1      H3       HDA3A    0.094000        1.0080           0   0.00000   0.00000
      5706 IM1      9        IM1      N1       ND2R5A   2.670300       13.6070           0   -1.06300   1.30000
      5707 IM1      9        IM1      DN1      DRUD    -2.530300        0.4000           0   0.00000   0.00000
      5708 IM1      9        IM1      C2       CD2R5A   2.511900       11.6110           0   -1.37800   1.30000
      5709 IM1      9        IM1      DC2      DRUD    -2.880900        0.4000           0   0.00000   0.00000
      5710 IM1      9        IM1      H4       HDR5A    0.150000        1.0080           0   0.00000   0.00000
      5711 IM1      9        IM1      C3       CD2R5A   3.068900       11.6110           0   -1.37800   1.30000
      5712 IM1      9        IM1      DC3      DRUD    -2.880900        0.4000           0   0.00000   0.00000
      5713 IM1      9        IM1      H5       HDR5A    0.053000        1.0080           0   0.00000   0.00000
      5714 IM1      9        IM1      C4       CD2R5B   2.404400       11.6110           0   -0.868000   1.30000
      5715 IM1      9        IM1      DC4      DRUD    -2.286400        0.4000           0   0.00000   0.00000
      5716 IM1      9        IM1      H6       HDR5B    0.073000        1.0080           0   0.00000   0.00000
      5717 IM1      9        IM1      N2       ND2R5B   2.249300       13.6070           0   -0.840000   1.00000
      5718 IM1      9        IM1      DN2      DRUD    -2.249300        0.4000           0   0.00000   0.00000
      5719 IM1      9        IM1      H7       HDP1A    0.000000        1.0080           0   0.00000   0.00000
      5720 IM1      9        IM1      LPN21    LPD     -0.474000        0.0000           -1   0.00000   0.00000
      5721 IM1      10       IM1      C1       CD33G    2.390600       11.6110           0   -1.08100   1.00000
      5722 IM1      10       IM1      DC1      DRUD    -2.551600        0.4000           0   0.00000   0.00000
      5723 IM1      10       IM1      H1       HDA3A    0.094000        1.0080           0   0.00000   0.00000
      5724 IM1      10       IM1      H2       HDA3A    0.094000        1.0080           0   0.00000   0.00000
      5725 IM1      10       IM1      H3       HDA3A    0.094000        1.0080           0   0.00000   0.00000
      5726 IM1      10       IM1      N1       ND2R5A   2.670300       13.6070           0   -1.06300   1.30000
      5727 IM1      10       IM1      DN1      DRUD    -2.530300        0.4000           0   0.00000   0.00000
      5728 IM1      10       IM1      C2       CD2R5A   2.511900       11.6110           0   -1.37800   1.30000
      5729 IM1      10       IM1      DC2      DRUD    -2.880900        0.4000           0   0.00000   0.00000
      5730 IM1      10       IM1      H4       HDR5A    0.150000        1.0080           0   0.00000   0.00000
      5731 IM1      10       IM1      C3       CD2R5A   3.068900       11.6110           0   -1.37800   1.30000
      5732 IM1      10       IM1      DC3      DRUD    -2.880900        0.4000           0   0.00000   0.00000
      5733 IM1      10       IM1      H5       HDR5A    0.053000        1.0080           0   0.00000   0.00000
      5734 IM1      10       IM1      C4       CD2R5B   2.404400       11.6110           0   -0.868000   1.30000
      5735 IM1      10       IM1      DC4      DRUD    -2.286400        0.4000           0   0.00000   0.00000
      5736 IM1      10       IM1      H6       HDR5B    0.073000        1.0080           0   0.00000   0.00000
      5737 IM1      10       IM1      N2       ND2R5B   2.249300       13.6070           0   -0.840000   1.00000
      5738 IM1      10       IM1      DN2      DRUD    -2.249300        0.4000           0   0.00000   0.00000
      5739 IM1      10       IM1      H7       HDP1A    0.000000        1.0080           0   0.00000   0.00000
      5740 IM1      10       IM1      LPN21    LPD     -0.474000        0.0000           -1   0.00000   0.00000
      5741 IM1      11       IM1      C1       CD33G    2.390600       11.6110           0   -1.08100   1.00000
      5742 IM1      11       IM1      DC1      DRUD    -2.551600        0.4000           0   0.00000   0.00000
      5743 IM1      11       IM1      H1       HDA3A    0.094000        1.0080           0   0.00000   0.00000
      5744 IM1      11       IM1      H2       HDA3A    0.094000        1.0080           0   0.00000   0.00000
      5745 IM1      11       IM1      H3       HDA3A    0.094000        1.0080           0   0.00000   0.00000
      5746 IM1      11       IM1      N1       ND2R5A   2.670300       13.6070           0   -1.06300   1.30000
      5747 IM1      11       IM1      DN1      DRUD    -2.530300        0.4000           0   0.00000   0.00000
      5748 IM1      11       IM1      C2       CD2R5A   2.511900       11.6110           0   -1.37800   1.30000
      5749 IM1      11       IM1      DC2      DRUD    -2.880900        0.4000           0   0.00000   0.00000
      5750 IM1      11       IM1      H4       HDR5A    0.150000        1.0080           0   0.00000   0.00000
      5751 IM1      11       IM1      C3       CD2R5A   3.068900       11.6110           0   -1.37800   1.30000
      5752 IM1      11       IM1      DC3      DRUD    -2.880900        0.4000           0   0.00000   0.00000
      5753 IM1      11       IM1      H5       HDR5A    0.053000        1.0080           0   0.00000   0.00000
      5754 IM1      11       IM1      C4       CD2R5B   2.404400       11.6110           0   -0.868000   1.30000
      5755 IM1      11       IM1      DC4      DRUD    -2.286400        0.4000           0   0.00000   0.00000
      5756 IM1      11       IM1      H6       HDR5B    0.073000        1.0080           0   0.00000   0.00000
      5757 IM1      11       IM1      N2       ND2R5B   2.249300       13.6070           0   -0.840000   1.00000
      5758 IM1      11       IM1      DN2      DRUD    -2.249300        0.4000           0   0.00000   0.00000
      5759 IM1      11       IM1      H7       HDP1A    0.000000        1.0080           0   0.00000   0.00000
      5760 IM1      11       IM1      LPN21    LPD     -0.474000        0.0000           -1   0.00000   0.00000
      5761 IM1      12       IM1      C1       CD33G    2.390600       11.6110           0   -1.08100   1.00000
      5762 IM1      12       IM1      DC1      DRUD    -2.551600        0.4000           0   0.00000   0.00000
      5763 IM1      12       IM1      H1       HDA3A    0.094000        1.0080           0   0.00000   0.00000
      5764 IM1      12       IM1      H2       HDA3A    0.094000        1.0080           0   0.00000   0.00000
      5765 IM1      12       IM1      H3       HDA3A    0.094000        1.0080           0   0.00000   0.00000
      5766 IM1      12       IM1      N1       ND2R5A   2.670300       13.6070           0   -1.06300   1.30000
      5767 IM1      12       IM1      DN1      DRUD    -2.530300        0.4000           0   0.00000   0.00000
      5768 IM1      12       IM1      C2       CD2R5A   2.511900       11.6110           0   -1.37800   1.30000
      5769 IM1      12       IM1      DC2      DRUD    -2.880900        0.4000           0   0.00000   0.00000
      5770 IM1      12       IM1      H4       HDR5A    0.150000        1.0080           0   0.00000   0.00000
      5771 IM1      12       IM1      C3       CD2R5A   3.068900       11.6110           0   -1.37800   1.30000
      5772 IM1      12       IM1      DC3      DRUD    -2.880900        0.4000           0   0.00000   0.00000
      5773 IM1      12       IM1      H5       HDR5A    0.053000        1.0080           0   0.00000   0.00000
      5774 IM1      12       IM1      C4       CD2R5B   2.404400       11.6110           0   -0.868000   1.30000
      5775 IM1      12       IM1      DC4      DRUD    -2.286400        0.4000           0   0.00000   0.00000
      5776 IM1      12       IM1      H6       HDR5B    0.073000        1.0080           0   0.00000   0.00000
      5777 IM1      12       IM1      N2       ND2R5B   2.249300       13.6070           0   -0.840000   1.00000
      5778 IM1      12       IM1      DN2      DRUD    -2.249300        0.4000           0   0.00000   0.00000
      5779 IM1      12       IM1      H7       HDP1A    0.000000        1.0080           0   0.00000   0.00000
      5780 IM1      12       IM1      LPN21    LPD     -0.474000        0.0000           -1   0.00000   0.00000
      5781 IM1      13       IM1      C1       CD33G    2.390600       11.6110           0   -1.08100   1.00000
      5782 IM1      13       IM1      DC1      DRUD    -2.551600        0.4000           0   0.00000   0.00000
      5783 IM1      13       IM1      H1       HDA3A    0.094000        1.0080           0   0.00000   0.00000
      5784 IM1      13       IM1      H2       HDA3A    0.094000        1.0080           0   0.00000   0.00000
      5785 IM1      13       IM1      H3       HDA3A    0.094000        1.0080           0   0.00000   0.00000
      5786 IM1      13       IM1      N1       ND2R5A   2.670300       13.6070           0   -1.06300   1.30000
      5787 IM1      13       IM1      DN1      DRUD    -2.530300        0.4000           0   0.00000   0.00000
      5788 IM1      13       IM1      C2       CD2R5A   2.511900       11.6110           0   -1.37800   1.30000
      5789 IM1      13       IM1      DC2      DRUD    -2.880900        0.4000           0   0.00000   0.00000
      5790 IM1      13       IM1      H4       HDR5A    0.150000        1.0080           0   0.00000   0.00000
      5791 IM1      13       IM1      C3       CD2R5A   3.068900       11.6110           0   -1.37800   1.30000
      5792 IM1      13       IM1      DC3      DRUD    -2.880900        0.4000           0   0.00000   0.00000
      5793 IM1      13       IM1      H5       HDR5A    0.053000        1.0080           0   0.00000   0.00000
      5794 IM1      13       IM1      C4       CD2R5B   2.404400       11.6110           0   -0.868000   1.30000
      5795 IM1      13       IM1      DC4      DRUD    -2.286400        0.4000           0   0.00000   0.00000
      5796 IM1      13       IM1      H6       HDR5B    0.073000        1.0080           0   0.00000   0.00000
      5797 IM1      13       IM1      N2       ND2R5B   2.249300       13.6070           0   -0.840000   1.00000
      5798 IM1      13       IM1      DN2      DRUD    -2.249300        0.4000           0   0.00000   0.00000
      5799 IM1      13       IM1      H7       HDP1A    0.000000        1.0080           0   0.00000   0.00000
      5800 IM1      13       IM1      LPN21    LPD     -0.474000        0.0000           -1   0.00000   0.00000
      5801 IM1      14       IM1      C1       CD33G    2.390600       11.6110           0   -1.08100   1.00000
      5802 IM1      14       IM1      DC1      DRUD    -2.551600        0.4000           0   0.00000   0.00000
      5803 IM1      14       IM1      H1       HDA3A    0.094000        1.0080           0   0.00000   0.00000
      5804 IM1      14       IM1      H2       HDA3A    0.094000        1.0080           0   0.00000   0.00000
      5805 IM1      14       IM1      H3       HDA3A    0.094000        1.0080           0   0.00000   0.00000
      5806 IM1      14       IM1      N1       ND2R5A   2.670300       13.6070           0   -1.06300   1.30000
      5807 IM1      14       IM1      DN1      DRUD    -2.530300        0.4000           0   0.00000   0.00000
      5808 IM1      14       IM1      C2       CD2R5A   2.511900       11.6110           0   -1.37800   1.30000
      5809 IM1      14       IM1      DC2      DRUD    -2.880900        0.4000           0   0.00000   0.00000
      5810 IM1      14       IM1      H4       HDR5A    0.150000        1.0080           0   0.00000   0.00000
      5811 IM1      14       IM1      C3       CD2R5A   3.068900       11.6110           0   -1.37800   1.30000
      5812 IM1      14       IM1      DC3      DRUD    -2.880900        0.4000           0   0.00000   0.00000
      5813 IM1      14       IM1      H5       HDR5A    0.053000        1.0080           0   0.00000   0.00000
      5814 IM1      14       IM1      C4       CD2R5B   2.404400       11.6110           0   -0.868000   1.30000
      5815 IM1      14       IM1      DC4      DRUD    -2.286400        0.4000           0   0.00000   0.00000
      5816 IM1      14       IM1      H6       HDR5B    0.073000        1.0080           0   0.00000   0.00000
      5817 IM1      14       IM1      N2       ND2R5B   2.249300       13.6070           0   -0.840000   1.00000
      5818 IM1      14       IM1      DN2      DRUD    -2.249300        0.4000           0   0.00000   0.00000
      5819 IM1      14       IM1      H7       HDP1A    0.000000        1.0080           0   0.00000   0.00000
      5820 IM1      14       IM1      LPN21    LPD     -0.474000        0.0000           -1   0.00000   0.00000
      5821 IM1      15       IM1      C1       CD33G    2.390600       11.6110           0   -1.08100   1.00000
      5822 IM1      15       IM1      DC1      DRUD    -2.551600        0.4000           0   0.00000   0.00000
      5823 IM1      15       IM1      H1       HDA3A    0.094000        1.0080           0   0.00000   0.00000
      5824 IM1      15       IM1      H2       HDA3A    0.094000        1.0080           0   0.00000   0.00000
      5825 IM1      15       IM1      H3       HDA3A    0.094000        1.0080           0   0.00000   0.00000
      5826 IM1      15       IM1      N1       ND2R5A   2.670300       13.6070           0   -1.06300   1.30000
      5827 IM1      15       IM1      DN1      DRUD    -2.530300        0.4000           0   0.00000   0.00000
      5828 IM1      15       IM1      C2       CD2R5A   2.511900       11.6110           0   -1.37800   1.30000
      5829 IM1      15       IM1      DC2      DRUD    -2.880900        0.4000           0   0.00000   0.00000
      5830 IM1      15       IM1      H4       HDR5A    0.150000        1.0080           0   0.00000   0.00000
      5831 IM1      15       IM1      C3       CD2R5A   3.068900       11.6110           0   -1.37800   1.30000
      5832 IM1      15       IM1      DC3      DRUD    -2.880900        0.4000           0   0.00000   0.00000
      5833 IM1      15       IM1      H5       HDR5A    0.053000        1.0080           0   0.00000   0.00000
      5834 IM1      15       IM1      C4       CD2R5B   2.404400       11.6110           0   -0.868000   1.30000
      5835 IM1      15       IM1      DC4      DRUD    -2.286400        0.4000           0   0.00000   0.00000
      5836 IM1      15       IM1      H6       HDR5B    0.073000        1.0080           0   0.00000   0.00000
      5837 IM1      15       IM1      N2       ND2R5B   2.249300       13.6070           0   -0.840000   1.00000
      5838 IM1      15       IM1      DN2      DRUD    -2.249300        0.4000           0   0.00000   0.00000
      5839 IM1      15       IM1      H7       HDP1A    0.000000        1.0080           0   0.00000   0.00000
      5840 IM1      15       IM1      LPN21    LPD     -0.474000        0.0000           -1   0.00000   0.00000
      5841 IM1      16       IM1      C1       CD33G    2.390600       11.6110           0   -1.08100   1.00000
      5842 IM1      16       IM1      DC1      DRUD    -2.551600        0.4000           0   0.00000   0.00000
      5843 IM1      16       IM1      H1       HDA3A    0.094000        1.0080           0   0.00000   0.00000
      5844 IM1      16       IM1      H2       HDA3A    0.094000        1.0080           0   0.00000   0.00000
      5845 IM1      16       IM1      H3       HDA3A    0.094000        1.0080           0   0.00000   0.00000
      5846 IM1      16       IM1      N1       ND2R5A   2.670300       13.6070           0   -1.06300   1.30000
      5847 IM1      16       IM1      DN1      DRUD    -2.530300        0.4000           0   0.00000   0.00000
      5848 IM1      16       IM1      C2       CD2R5A   2.511900       11.6110           0   -1.37800   1.30000
      5849 IM1      16       IM1      DC2      DRUD    -2.880900        0.4000           0   0.00000   0.00000
      5850 IM1      16       IM1      H4       HDR5A    0.150000        1.0080           0   0.00000   0.00000
      5851 IM1      16       IM1      C3       CD2R5A   3.068900       11.6110           0   -1.37800   1.30000
      5852 IM1      16       IM1      DC3      DRUD    -2.880900        0.4000           0   0.00000   0.00000
      5853 IM1      16       IM1      H5       HDR5A    0.053000        1.0080           0   0.00000   0.00000
      5854 IM1      16       IM1      C4       CD2R5B   2.404400       11.6110           0   -0.868000   1.30000
      5855 IM1      16       IM1      DC4      DRUD    -2.286400        0.4000           0   0.00000   0.00000
      5856 IM1      16       IM1      H6       HDR5B    0.073000        1.0080           0   0.00000   0.00000
      5857 IM1      16       IM1      N2       ND2R5B   2.249300       13.6070           0   -0.840000   1.00000
      5858 IM1      16       IM1      DN2      DRUD    -2.249300        0.4000           0   0.00000   0.00000
      5859 IM1      16       IM1      H7       HDP1A    0.000000        1.0080           0   0.00000   0.00000
      5860 IM1      16       IM1      LPN21    LPD     -0.474000        0.0000           -1   0.00000   0.00000
      5861 IM1      17       IM1      C1       CD33G    2.390600       11.6110           0   -1.08100   1.00000
      5862 IM1      17       IM1      DC1      DRUD    -2.551600        0.4000           0   0.00000   0.00000
      5863 IM1      17       IM1      H1       HDA3A    0.094000        1.0080           0   0.00000   0.00000
      5864 IM1      17       IM1      H2       HDA3A    0.094000        1.0080           0   0.00000   0.00000
      5865 IM1      17       IM1      H3       HDA3A    0.094000        1.0080           0   0.00000   0.00000
      5866 IM1      17       IM1      N1       ND2R5A   2.670300       13.6070           0   -1.06300   1.30000
      5867 IM1      17       IM1      DN1      DRUD    -2.530300        0.4000           0   0.00000   0.00000
      5868 IM1      17       IM1      C2       CD2R5A   2.511900       11.6110           0   -1.37800   1.30000
      5869 IM1      17       IM1      DC2      DRUD    -2.880900        0.4000           0   0.00000   0.00000
      5870 IM1      17       IM1      H4       HDR5A    0.150000        1.0080           0   0.00000   0.00000
      5871 IM1      17       IM1      C3       CD2R5A   3.068900       11.6110           0   -1.37800   1.30000
      5872 IM1      17       IM1      DC3      DRUD    -2.880900        0.4000           0   0.00000   0.00000
      5873 IM1      17       IM1      H5       HDR5A    0.053000        1.0080           0   0.00000   0.00000
      5874 IM1      17       IM1      C4       CD2R5B   2.404400       11.6110           0   -0.868000   1.30000
      5875 IM1      17       IM1      DC4      DRUD    -2.286400        0.4000           0   0.00000   0.00000
      5876 IM1      17       IM1      H6       HDR5B    0.073000        1.0080           0   0.00000   0.00000
      5877 IM1      17       IM1      N2       ND2R5B   2.249300       13.6070           0   -0.840000   1.00000
      5878 IM1      17       IM1      DN2      DRUD    -2.249300        0.4000           0   0.00000   0.00000
      5879 IM1      17       IM1      H7       HDP1A    0.000000        1.0080           0   0.00000   0.00000
      5880 IM1      17       IM1      LPN21    LPD     -0.474000        0.0000           -1   0.00000   0.00000
      5881 IM1      18       IM1      C1       CD33G    2.390600       11.6110           0   -1.08100   1.00000
      5882 IM1      18       IM1      DC1      DRUD    -2.551600        0.4000           0   0.00000   0.00000
      5883 IM1      18       IM1      H1       HDA3A    0.094000        1.0080           0   0.00000   0.00000
      5884 IM1      18       IM1      H2       HDA3A    0.094000        1.0080           0   0.00000   0.00000
      5885 IM1      18       IM1      H3       HDA3A    0.094000        1.0080           0   0.00000   0.00000
      5886 IM1      18       IM1      N1       ND2R5A   2.670300       13.6070           0   -1.06300   1.30000
      5887 IM1      18       IM1      DN1      DRUD    -2.530300        0.4000           0   0.00000   0.00000
      5888 IM1      18       IM1      C2       CD2R5A   2.511900       11.6110           0   -1.37800   1.30000
      5889 IM1      18       IM1      DC2      DRUD    -2.880900        0.4000           0   0.00000   0.00000
      5890 IM1      18       IM1      H4       HDR5A    0.150000        1.0080           0   0.00000   0.00000
      5891 IM1      18       IM1      C3       CD2R5A   3.068900       11.6110           0   -1.37800   1.30000
      5892 IM1      18       IM1      DC3      DRUD    -2.880900        0.4000           0   0.00000   0.00000
      5893 IM1      18       IM1      H5       HDR5A    0.053000        1.0080           0   0.00000   0.00000
      5894 IM1      18       IM1      C4       CD2R5B   2.404400       11.6110           0   -0.868000   1.30000
      5895 IM1      18       IM1      DC4      DRUD    -2.286400        0.4000           0   0.00000   0.00000
      5896 IM1      18       IM1      H6       HDR5B    0.073000        1.0080           0   0.00000   0.00000
      5897 IM1      18       IM1      N2       ND2R5B   2.249300       13.6070           0   -0.840000   1.00000
      5898 IM1      18       IM1      DN2      DRUD    -2.249300        0.4000           0   0.00000   0.00000
      5899 IM1      18       IM1      H7       HDP1A    0.000000        1.0080           0   0.00000   0.00000
      5900 IM1      18       IM1      LPN21    LPD     -0.474000        0.0000           -1   0.00000   0.00000
      5901 IM1      19       IM1      C1       CD33G    2.390600       11.6110           0   -1.08100   1.00000
      5902 IM1      19       IM1      DC1      DRUD    -2.551600        0.4000           0   0.00000   0.00000
      5903 IM1      19       IM1      H1       HDA3A    0.094000        1.0080           0   0.00000   0.00000
      5904 IM1      19       IM1      H2       HDA3A    0.094000        1.0080           0   0.00000   0.00000
      5905 IM1      19       IM1      H3       HDA3A    0.094000        1.0080           0   0.00000   0.00000
      5906 IM1      19       IM1      N1       ND2R5A   2.670300       13.6070           0   -1.06300   1.30000
      5907 IM1      19       IM1      DN1      DRUD    -2.530300        0.4000           0   0.00000   0.00000
      5908 IM1      19       IM1      C2       CD2R5A   2.511900       11.6110           0   -1.37800   1.30000
      5909 IM1      19       IM1      DC2      DRUD    -2.880900        0.4000           0   0.00000   0.00000
      5910 IM1      19       IM1      H4       HDR5A    0.150000        1.0080           0   0.00000   0.00000
      5911 IM1      19       IM1      C3       CD2R5A   3.068900       11.6110           0   -1.37800   1.30000
      5912 IM1      19       IM1      DC3      DRUD    -2.880900        0.4000           0   0.00000   0.00000
      5913 IM1      19       IM1      H5       HDR5A    0.053000        1.0080           0   0.00000   0.00000
      5914 IM1      19       IM1      C4       CD2R5B   2.404400       11.6110           0   -0.868000   1.30000
      5915 IM1      19       IM1      DC4      DRUD    -2.286400        0.4000           0   0.00000   0.00000
      5916 IM1      19       IM1      H6       HDR5B    0.073000        1.0080           0   0.00000   0.00000
      5917 IM1      19       IM1      N2       ND2R5B   2.249300       13.6070           0   -0.840000   1.00000
      5918 IM1      19       IM1      DN2      DRUD    -2.249300        0.4000           0   0.00000   0.00000
      5919 IM1      19       IM1      H7       HDP1A    0.000000        1.0080           0   0.00000   0.00000
      5920 IM1      19       IM1      LPN21    LPD     -0.474000        0.0000           -1   0.00000   0.00000
      5921 IM1      20       IM1      C1       CD33G    2.390600       11.6110           0   -1.08100   1.00000
      5922 IM1      20       IM1      DC1      DRUD    -2.551600        0.4000           0   0.00000   0.00000
      5923 IM1      20       IM1      H1       HDA3A    0.094000        1.0080           0   0.00000   0.00000
      5924 IM1      20       IM1      H2       HDA3A    0.094000        1.0080           0   0.00000   0.00000
      5925 IM1      20       IM1      H3       HDA3A    0.094000        1.0080           0   0.00000   0.00000
      5926 IM1      20       IM1      N1       ND2R5A   2.670300       13.6070           0   -1.06300   1.30000
      5927 IM1      20       IM1      DN1      DRUD    -2.530300        0.4000           0   0.00000   0.00000
      5928 IM1      20       IM1      C2       CD2R5A   2.511900       11.6110           0   -1.37800   1.30000
      5929 IM1      20       IM1      DC2      DRUD    -2.880900        0.4000           0   0.00000   0.00000
      5930 IM1      20       IM1      H4       HDR5A    0.150000        1.0080           0   0.00000   0.00000
      5931 IM1      20       IM1      C3       CD2R5A   3.068900       11.6110           0   -1.37800   1.30000
      5932 IM1      20       IM1      DC3      DRUD    -2.880900        0.4000           0   0.00000   0.00000
      5933 IM1      20       IM1      H5       HDR5A    0.053000        1.0080           0   0.00000   0.00000
      5934 IM1      20       IM1      C4       CD2R5B   2.404400       11.6110           0   -0.868000   1.30000
      5935 IM1      20       IM1      DC4      DRUD    -2.286400        0.4000           0   0.00000   0.00000
      5936 IM1      20       IM1      H6       HDR5B    0.073000        1.0080           0   0.00000   0.00000
      5937 IM1      20       IM1      N2       ND2R5B   2.249300       13.6070           0   -0.840000   1.00000
      5938 IM1      20       IM1      DN2      DRUD    -2.249300        0.4000           0   0.00000   0.00000
      5939 IM1      20       IM1      H7       HDP1A    0.000000        1.0080           0   0.00000   0.00000
      5940 IM1      20       IM1      LPN21    LPD     -0.474000        0.0000           -1   0.00000   0.00000
      5941 IM1      21       IM1      C1       CD33G    2.390600       11.6110           0   -1.08100   1.00000
      5942 IM1      21       IM1      DC1      DRUD    -2.551600        0.4000           0   0.00000   0.00000
      5943 IM1      21       IM1      H1       HDA3A    0.094000        1.0080           0   0.00000   0.00000
      5944 IM1      21       IM1      H2       HDA3A    0.094000        1.0080           0   0.00000   0.00000
      5945 IM1      21       IM1      H3       HDA3A    0.094000        1.0080           0   0.00000   0.00000
      5946 IM1      21       IM1      N1       ND2R5A   2.670300       13.6070           0   -1.06300   1.30000
      5947 IM1      21       IM1      DN1      DRUD    -2.530300        0.4000           0   0.00000   0.00000
      5948 IM1      21       IM1      C2       CD2R5A   2.511900       11.6110           0   -1.37800   1.30000
      5949 IM1      21       IM1      DC2      DRUD    -2.880900        0.4000           0   0.00000   0.00000
      5950 IM1      21       IM1      H4       HDR5A    0.150000        1.0080           0   0.00000   0.00000
      5951 IM1      21       IM1      C3       CD2R5A   3.068900       11.6110           0   -1.37800   1.30000
      5952 IM1      21       IM1      DC3      DRUD    -2.880900        0.4000           0   0.00000   0.00000
      5953 IM1      21       IM1      H5       HDR5A    0.053000        1.0080           0   0.00000   0.00000
      5954 IM1      21       IM1      C4       CD2R5B   2.404400       11.6110           0   -0.868000   1.30000
      5955 IM1      21       IM1      DC4      DRUD    -2.286400        0.4000           0   0.00000   0.00000
      5956 IM1      21       IM1      H6       HDR5B    0.073000        1.0080           0   0.00000   0.00000
      5957 IM1      21       IM1      N2       ND2R5B   2.249300       13.6070           0   -0.840000   1.00000
      5958 IM1      21       IM1      DN2      DRUD    -2.249300        0.4000           0   0.00000   0.00000
      5959 IM1      21       IM1      H7       HDP1A    0.000000        1.0080           0   0.00000   0.00000
      5960 IM1      21       IM1      LPN21    LPD     -0.474000        0.0000           -1   0.00000   0.00000
      5961 IM1      22       IM1      C1       CD33G    2.390600       11.6110           0   -1.08100   1.00000
      5962 IM1      22       IM1      DC1      DRUD    -2.551600        0.4000           0   0.00000   0.00000
      5963 IM1      22       IM1      H1       HDA3A    0.094000        1.0080           0   0.00000   0.00000
      5964 IM1      22       IM1      H2       HDA3A    0.094000        1.0080           0   0.00000   0.00000
      5965 IM1      22       IM1      H3       HDA3A    0.094000        1.0080           0   0.00000   0.00000
      5966 IM1      22       IM1      N1       ND2R5A   2.670300       13.6070           0   -1.06300   1.30000
      5967 IM1      22       IM1      DN1      DRUD    -2.530300        0.4000           0   0.00000   0.00000
      5968 IM1      22       IM1      C2       CD2R5A   2.511900       11.6110           0   -1.37800   1.30000
      5969 IM1      22       IM1      DC2      DRUD    -2.880900        0.4000           0   0.00000   0.00000
      5970 IM1      22       IM1      H4       HDR5A    0.150000        1.0080           0   0.00000   0.00000
      5971 IM1      22       IM1      C3       CD2R5A   3.068900       11.6110           0   -1.37800   1.30000
      5972 IM1      22       IM1      DC3      DRUD    -2.880900        0.4000           0   0.00000   0.00000
      5973 IM1      22       IM1      H5       HDR5A    0.053000        1.0080           0   0.00000   0.00000
      5974 IM1      22       IM1      C4       CD2R5B   2.404400       11.6110           0   -0.868000   1.30000
      5975 IM1      22       IM1      DC4      DRUD    -2.286400        0.4000           0   0.00000   0.00000
      5976 IM1      22       IM1      H6       HDR5B    0.073000        1.0080           0   0.00000   0.00000
      5977 IM1      22       IM1      N2       ND2R5B   2.249300       13.6070           0   -0.840000   1.00000
      5978 IM1      22       IM1      DN2      DRUD    -2.249300        0.4000           0   0.00000   0.00000
      5979 IM1      22       IM1      H7       HDP1A    0.000000        1.0080           0   0.00000   0.00000
      5980 IM1      22       IM1      LPN21    LPD     -0.474000        0.0000           -1   0.00000   0.00000
      5981 IM1      23       IM1      C1       CD33G    2.390600       11.6110           0   -1.08100   1.00000
      5982 IM1      23       IM1      DC1      DRUD    -2.551600        0.4000           0   0.00000   0.00000
      5983 IM1      23       IM1      H1       HDA3A    0.094000        1.0080           0   0.00000   0.00000
      5984 IM1      23       IM1      H2       HDA3A    0.094000        1.0080           0   0.00000   0.00000
      5985 IM1      23       IM1      H3       HDA3A    0.094000        1.0080           0   0.00000   0.00000
      5986 IM1      23       IM1      N1       ND2R5A   2.670300       13.6070           0   -1.06300   1.30000
      5987 IM1      23       IM1      DN1      DRUD    -2.530300        0.4000           0   0.00000   0.00000
      5988 IM1      23       IM1      C2       CD2R5A   2.511900       11.6110           0   -1.37800   1.30000
      5989 IM1      23       IM1      DC2      DRUD    -2.880900        0.4000           0   0.00000   0.00000
      5990 IM1      23       IM1      H4       HDR5A    0.150000        1.0080           0   0.00000   0.00000
      5991 IM1      23       IM1      C3       CD2R5A   3.068900       11.6110           0   -1.37800   1.30000
      5992 IM1      23       IM1      DC3      DRUD    -2.880900        0.4000           0   0.00000   0.00000
      5993 IM1      23       IM1      H5       HDR5A    0.053000        1.0080           0   0.00000   0.00000
      5994 IM1      23       IM1      C4       CD2R5B   2.404400       11.6110           0   -0.868000   1.30000
      5995 IM1      23       IM1      DC4      DRUD    -2.286400        0.4000           0   0.00000   0.00000
      5996 IM1      23       IM1      H6       HDR5B    0.073000        1.0080           0   0.00000   0.00000
      5997 IM1      23       IM1      N2       ND2R5B   2.249300       13.6070           0   -0.840000   1.00000
      5998 IM1      23       IM1      DN2      DRUD    -2.249300        0.4000           0   0.00000   0.00000
      5999 IM1      23       IM1      H7       HDP1A    0.000000        1.0080           0   0.00000   0.00000
      6000 IM1      23       IM1      LPN21    LPD     -0.474000        0.0000           -1   0.00000   0.00000
      6001 IM1      24       IM1      C1       CD33G    2.390600       11.6110           0   -1.08100   1.00000
      6002 IM1      24       IM1      DC1      DRUD    -2.551600        0.4000           0   0.00000   0.00000
      6003 IM1      24       IM1      H1       HDA3A    0.094000        1.0080           0   0.00000   0.00000
      6004 IM1      24       IM1      H2       HDA3A    0.094000        1.0080           0   0.00000   0.00000
      6005 IM1      24       IM1      H3       HDA3A    0.094000        1.0080           0   0.00000   0.00000
      6006 IM1      24       IM1      N1       ND2R5A   2.670300       13.6070           0   -1.06300   1.30000
      6007 IM1      24       IM1      DN1      DRUD    -2.530300        0.4000           0   0.00000   0.00000
      6008 IM1      24       IM1      C2       CD2R5A   2.511900       11.6110           0   -1.37800   1.30000
      6009 IM1      24       IM1      DC2      DRUD    -2.880900        0.4000           0   0.00000   0.00000
      6010 IM1      24       IM1      H4       HDR5A    0.150000        1.0080           0   0.00000   0.00000
      6011 IM1      24       IM1      C3       CD2R5A   3.068900       11.6110           0   -1.37800   1.30000
      6012 IM1      24       IM1      DC3      DRUD    -2.880900        0.4000           0   0.00000   0.00000
      6013 IM1      24       IM1      H5       HDR5A    0.053000        1.0080           0   0.00000   0.00000
      6014 IM1      24       IM1      C4       CD2R5B   2.404400       11.6110           0   -0.868000   1.30000
      6015 IM1      24       IM1      DC4      DRUD    -2.286400        0.4000           0   0.00000   0.00000
      6016 IM1      24       IM1      H6       HDR5B    0.073000        1.0080           0   0.00000   0.00000
      6017 IM1      24       IM1      N2       ND2R5B   2.249300       13.6070           0   -0.840000   1.00000
      6018 IM1      24       IM1      DN2      DRUD    -2.249300        0.4000           0   0.00000   0.00000
      6019 IM1      24       IM1      H7       HDP1A    0.000000        1.0080           0   0.00000   0.00000
      6020 IM1      24       IM1      LPN21    LPD     -0.474000        0.0000           -1   0.00000   0.00000
      6021 IM1      25       IM1      C1       CD33G    2.390600       11.6110           0   -1.08100   1.00000
      6022 IM1      25       IM1      DC1      DRUD    -2.551600        0.4000           0   0.00000   0.00000
      6023 IM1      25       IM1      H1       HDA3A    0.094000        1.0080           0   0.00000   0.00000
      6024 IM1      25       IM1      H2       HDA3A    0.094000        1.0080           0   0.00000   0.00000
      6025 IM1      25       IM1      H3       HDA3A    0.094000        1.0080           0   0.00000   0.00000
      6026 IM1      25       IM1      N1       ND2R5A   2.670300       13.6070           0   -1.06300   1.30000
      6027 IM1      25       IM1      DN1      DRUD    -2.530300        0.4000           0   0.00000   0.00000
      6028 IM1      25       IM1      C2       CD2R5A   2.511900       11.6110           0   -1.37800   1.30000
      6029 IM1      25       IM1      DC2      DRUD    -2.880900        0.4000           0   0.00000   0.00000
      6030 IM1      25       IM1      H4       HDR5A    0.150000        1.0080           0   0.00000   0.00000
      6031 IM1      25       IM1      C3       CD2R5A   3.068900       11.6110           0   -1.37800   1.30000
      6032 IM1      25       IM1      DC3      DRUD    -2.880900        0.4000           0   0.00000   0.00000
      6033 IM1      25       IM1      H5       HDR5A    0.053000        1.0080           0   0.00000   0.00000
      6034 IM1      25       IM1      C4       CD2R5B   2.404400       11.6110           0   -0.868000   1.30000
      6035 IM1      25       IM1      DC4      DRUD    -2.286400        0.4000           0   0.00000   0.00000
      6036 IM1      25       IM1      H6       HDR5B    0.073000        1.0080           0   0.00000   0.00000
      6037 IM1      25       IM1      N2       ND2R5B   2.249300       13.6070           0   -0.840000   1.00000
      6038 IM1      25       IM1      DN2      DRUD    -2.249300        0.4000           0   0.00000   0.00000
      6039 IM1      25       IM1      H7       HDP1A    0.000000        1.0080           0   0.00000   0.00000
      6040 IM1      25       IM1      LPN21    LPD     -0.474000        0.0000           -1   0.00000   0.00000
      6041 IM1      26       IM1      C1       CD33G    2.390600       11.6110           0   -1.08100   1.00000
      6042 IM1      26       IM1      DC1      DRUD    -2.551600        0.4000           0   0.00000   0.00000
      6043 IM1      26       IM1      H1       HDA3A    0.094000        1.0080           0   0.00000   0.00000
      6044 IM1      26       IM1      H2       HDA3A    0.094000        1.0080           0   0.00000   0.00000
      6045 IM1      26       IM1      H3       HDA3A    0.094000        1.0080           0   0.00000   0.00000
      6046 IM1      26       IM1      N1       ND2R5A   2.670300       13.6070           0   -1.06300   1.30000
      6047 IM1      26       IM1      DN1      DRUD    -2.530300        0.4000           0   0.00000   0.00000
      6048 IM1      26       IM1      C2       CD2R5A   2.511900       11.6110           0   -1.37800   1.30000
      6049 IM1      26       IM1      DC2      DRUD    -2.880900        0.4000           0   0.00000   0.00000
      6050 IM1      26       IM1      H4       HDR5A    0.150000        1.0080           0   0.00000   0.00000
      6051 IM1      26       IM1      C3       CD2R5A   3.068900       11.6110           0   -1.37800   1.30000
      6052 IM1      26       IM1      DC3      DRUD    -2.880900        0.4000           0   0.00000   0.00000
      6053 IM1      26       IM1      H5       HDR5A    0.053000        1.0080           0   0.00000   0.00000
      6054 IM1      26       IM1      C4       CD2R5B   2.404400       11.6110           0   -0.868000   1.30000
      6055 IM1      26       IM1      DC4      DRUD    -2.286400        0.4000           0   0.00000   0.00000
      6056 IM1      26       IM1      H6       HDR5B    0.073000        1.0080           0   0.00000   0.00000
      6057 IM1      26       IM1      N2       ND2R5B   2.249300       13.6070           0   -0.840000   1.00000
      6058 IM1      26       IM1      DN2      DRUD    -2.249300        0.4000           0   0.00000   0.00000
      6059 IM1      26       IM1      H7       HDP1A    0.000000        1.0080           0   0.00000   0.00000
      6060 IM1      26       IM1      LPN21    LPD     -0.474000        0.0000           -1   0.00000   0.00000
      6061 IM1      27       IM1      C1       CD33G    2.390600       11.6110           0   -1.08100   1.00000
      6062 IM1      27       IM1      DC1      DRUD    -2.551600        0.4000           0   0.00000   0.00000
      6063 IM1      27       IM1      H1       HDA3A    0.094000        1.0080           0   0.00000   0.00000
      6064 IM1      27       IM1      H2       HDA3A    0.094000        1.0080           0   0.00000   0.00000
      6065 IM1      27       IM1      H3       HDA3A    0.094000        1.0080           0   0.00000   0.00000
      6066 IM1      27       IM1      N1       ND2R5A   2.670300       13.6070           0   -1.06300   1.30000
      6067 IM1      27       IM1      DN1      DRUD    -2.530300        0.4000           0   0.00000   0.00000
      6068 IM1      27       IM1      C2       CD2R5A   2.511900       11.6110           0   -1.37800   1.30000
      6069 IM1      27       IM1      DC2      DRUD    -2.880900        0.4000           0   0.00000   0.00000
      6070 IM1      27       IM1      H4       HDR5A    0.150000        1.0080           0   0.00000   0.00000
      6071 IM1      27       IM1      C3       CD2R5A   3.068900       11.6110           0   -1.37800   1.30000
      6072 IM1      27       IM1      DC3      DRUD    -2.880900        0.4000           0   0.00000   0.00000
      6073 IM1      27       IM1      H5       HDR5A    0.053000        1.0080           0   0.00000   0.00000
      6074 IM1      27       IM1      C4       CD2R5B   2.404400       11.6110           0   -0.868000   1.30000
      6075 IM1      27       IM1      DC4      DRUD    -2.286400        0.4000           0   0.00000   0.00000
      6076 IM1      27       IM1      H6       HDR5B    0.073000        1.0080           0   0.00000   0.00000
      6077 IM1      27       IM1      N2       ND2R5B   2.249300       13.6070           0   -0.840000   1.00000
      6078 IM1      27       IM1      DN2      DRUD    -2.249300        0.4000           0   0.00000   0.00000
      6079 IM1      27       IM1      H7       HDP1A    0.000000        1.0080           0   0.00000   0.00000
      6080 IM1      27       IM1      LPN21    LPD     -0.474000        0.0000           -1   0.00000   0.00000
      6081 IM1      28       IM1      C1       CD33G    2.390600       11.6110           0   -1.08100   1.00000
      6082 IM1      28       IM1      DC1      DRUD    -2.551600        0.4000           0   0.00000   0.00000
      6083 IM1      28       IM1      H1       HDA3A    0.094000        1.0080           0   0.00000   0.00000
      6084 IM1      28       IM1      H2       HDA3A    0.094000        1.0080           0   0.00000   0.00000
      6085 IM1      28       IM1      H3       HDA3A    0.094000        1.0080           0   0.00000   0.00000
      6086 IM1      28       IM1      N1       ND2R5A   2.670300       13.6070           0   -1.06300   1.30000
      6087 IM1      28       IM1      DN1      DRUD    -2.530300        0.4000           0   0.00000   0.00000
      6088 IM1      28       IM1      C2       CD2R5A   2.511900       11.6110           0   -1.37800   1.30000
      6089 IM1      28       IM1      DC2      DRUD    -2.880900        0.4000           0   0.00000   0.00000
      6090 IM1      28       IM1      H4       HDR5A    0.150000        1.0080           0   0.00000   0.00000
      6091 IM1      28       IM1      C3       CD2R5A   3.068900       11.6110           0   -1.37800   1.30000
      6092 IM1      28       IM1      DC3      DRUD    -2.880900        0.4000           0   0.00000   0.00000
      6093 IM1      28       IM1      H5       HDR5A    0.053000        1.0080           0   0.00000   0.00000
      6094 IM1      28       IM1      C4       CD2R5B   2.404400       11.6110           0   -0.868000   1.30000
      6095 IM1      28       IM1      DC4      DRUD    -2.286400        0.4000           0   0.00000   0.00000
      6096 IM1      28       IM1      H6       HDR5B    0.073000        1.0080           0   0.00000   0.00000
      6097 IM1      28       IM1      N2       ND2R5B   2.249300       13.6070           0   -0.840000   1.00000
      6098 IM1      28       IM1      DN2      DRUD    -2.249300        0.4000           0   0.00000   0.00000
      6099 IM1      28       IM1      H7       HDP1A    0.000000        1.0080           0   0.00000   0.00000
      6100 IM1      28       IM1      LPN21    LPD     -0.474000        0.0000           -1   0.00000   0.00000
      6101 IM1      29       IM1      C1       CD33G    2.390600       11.6110           0   -1.08100   1.00000
      6102 IM1      29       IM1      DC1      DRUD    -2.551600        0.4000           0   0.00000   0.00000
      6103 IM1      29       IM1      H1       HDA3A    0.094000        1.0080           0   0.00000   0.00000
      6104 IM1      29       IM1      H2       HDA3A    0.094000        1.0080           0   0.00000   0.00000
      6105 IM1      29       IM1      H3       HDA3A    0.094000        1.0080           0   0.00000   0.00000
      6106 IM1      29       IM1      N1       ND2R5A   2.670300       13.6070           0   -1.06300   1.30000
      6107 IM1      29       IM1      DN1      DRUD    -2.530300        0.4000           0   0.00000   0.00000
      6108 IM1      29       IM1      C2       CD2R5A   2.511900       11.6110           0   -1.37800   1.30000
      6109 IM1      29       IM1      DC2      DRUD    -2.880900        0.4000           0   0.00000   0.00000
      6110 IM1      29       IM1      H4       HDR5A    0.150000        1.0080           0   0.00000   0.00000
      6111 IM1      29       IM1      C3       CD2R5A   3.068900       11.6110           0   -1.37800   1.30000
      6112 IM1      29       IM1      DC3      DRUD    -2.880900        0.4000           0   0.00000   0.00000
      6113 IM1      29       IM1      H5       HDR5A    0.053000        1.0080           0   0.00000   0.00000
      6114 IM1      29       IM1      C4       CD2R5B   2.404400       11.6110           0   -0.868000   1.30000
      6115 IM1      29       IM1      DC4      DRUD    -2.286400        0.4000           0   0.00000   0.00000
      6116 IM1      29       IM1      H6       HDR5B    0.073000        1.0080           0   0.00000   0.00000
      6117 IM1      29       IM1      N2       ND2R5B   2.249300       13.6070           0   -0.840000   1.00000
      6118 IM1      29       IM1      DN2      DRUD    -2.249300        0.4000           0   0.00000   0.00000
      6119 IM1      29       IM1      H7       HDP1A    0.000000        1.0080           0   0.00000   0.00000
      6120 IM1      29       IM1      LPN21    LPD     -0.474000        0.0000           -1   0.00000   0.00000
      6121 IM1      30       IM1      C1       CD33G    2.390600       11.6110           0   -1.08100   1.00000
      6122 IM1      30       IM1      DC1      DRUD    -2.551600        0.4000           0   0.00000   0.00000
      6123 IM1      30       IM1      H1       HDA3A    0.094000        1.0080           0   0.00000   0.00000
      6124 IM1      30       IM1      H2       HDA3A    0.094000        1.0080           0   0.00000   0.00000
      6125 IM1      30       IM1      H3       HDA3A    0.094000        1.0080           0   0.00000   0.00000
      6126 IM1      30       IM1      N1       ND2R5A   2.670300       13.6070           0   -1.06300   1.30000
      6127 IM1      30       IM1      DN1      DRUD    -2.530300        0.4000           0   0.00000   0.00000
      6128 IM1      30       IM1      C2       CD2R5A   2.511900       11.6110           0   -1.37800   1.30000
      6129 IM1      30       IM1      DC2      DRUD    -2.880900        0.4000           0   0.00000   0.00000
      6130 IM1      30       IM1      H4       HDR5A    0.150000        1.0080           0   0.00000   0.00000
      6131 IM1      30       IM1      C3       CD2R5A   3.068900       11.6110           0   -1.37800   1.30000
      6132 IM1      30       IM1      DC3      DRUD    -2.880900        0.4000           0   0.00000   0.00000
      6133 IM1      30       IM1      H5       HDR5A    0.053000        1.0080           0   0.00000   0.00000
      6134 IM1      30       IM1      C4       CD2R5B   2.404400       11.6110           0   -0.868000   1.30000
      6135 IM1      30       IM1      DC4      DRUD    -2.286400        0.4000           0   0.00000   0.00000
      6136 IM1      30       IM1      H6       HDR5B    0.073000        1.0080           0   0.00000   0.00000
      6137 IM1      30       IM1      N2       ND2R5B   2.249300       13.6070           0   -0.840000   1.00000
      6138 IM1      30       IM1      DN2      DRUD    -2.249300        0.4000           0   0.00000   0.00000
      6139 IM1      30       IM1      H7       HDP1A    0.000000        1.0080           0   0.00000   0.00000
      6140 IM1      30       IM1      LPN21    LPD     -0.474000        0.0000           -1   0.00000   0.00000
      6141 IM1      31       IM1      C1       CD33G    2.390600       11.6110           0   -1.08100   1.00000
      6142 IM1      31       IM1      DC1      DRUD    -2.551600        0.4000           0   0.00000   0.00000
      6143 IM1      31       IM1      H1       HDA3A    0.094000        1.0080           0   0.00000   0.00000
      6144 IM1      31       IM1      H2       HDA3A    0.094000        1.0080           0   0.00000   0.00000
      6145 IM1      31       IM1      H3       HDA3A    0.094000        1.0080           0   0.00000   0.00000
      6146 IM1      31       IM1      N1       ND2R5A   2.670300       13.6070           0   -1.06300   1.30000
      6147 IM1      31       IM1      DN1      DRUD    -2.530300        0.4000           0   0.00000   0.00000
      6148 IM1      31       IM1      C2       CD2R5A   2.511900       11.6110           0   -1.37800   1.30000
      6149 IM1      31       IM1      DC2      DRUD    -2.880900        0.4000           0   0.00000   0.00000
      6150 IM1      31       IM1      H4       HDR5A    0.150000        1.0080           0   0.00000   0.00000
      6151 IM1      31       IM1      C3       CD2R5A   3.068900       11.6110           0   -1.37800   1.30000
      6152 IM1      31       IM1      DC3      DRUD    -2.880900        0.4000           0   0.00000   0.00000
      6153 IM1      31       IM1      H5       HDR5A    0.053000        1.0080           0   0.00000   0.00000
      6154 IM1      31       IM1      C4       CD2R5B   2.404400       11.6110           0   -0.868000   1.30000
      6155 IM1      31       IM1      DC4      DRUD    -2.286400        0.4000           0   0.00000   0.00000
      6156 IM1      31       IM1      H6       HDR5B    0.073000        1.0080           0   0.00000   0.00000
      6157 IM1      31       IM1      N2       ND2R5B   2.249300       13.6070           0   -0.840000   1.00000
      6158 IM1      31       IM1      DN2      DRUD    -2.249300        0.4000           0   0.00000   0.00000
      6159 IM1      31       IM1      H7       HDP1A    0.000000        1.0080           0   0.00000   0.00000
      6160 IM1      31       IM1      LPN21    LPD     -0.474000        0.0000           -1   0.00000   0.00000
      6161 IM1      32       IM1      C1       CD33G    2.390600       11.6110           0   -1.08100   1.00000
      6162 IM1      32       IM1      DC1      DRUD    -2.551600        0.4000           0   0.00000   0.00000
      6163 IM1      32       IM1      H1       HDA3A    0.094000        1.0080           0   0.00000   0.00000
      6164 IM1      32       IM1      H2       HDA3A    0.094000        1.0080           0   0.00000   0.00000
      6165 IM1      32       IM1      H3       HDA3A    0.094000        1.0080           0   0.00000   0.00000
      6166 IM1      32       IM1      N1       ND2R5A   2.670300       13.6070           0   -1.06300   1.30000
      6167 IM1      32       IM1      DN1      DRUD    -2.530300        0.4000           0   0.00000   0.00000
      6168 IM1      32       IM1      C2       CD2R5A   2.511900       11.6110           0   -1.37800   1.30000
      6169 IM1      32       IM1      DC2      DRUD    -2.880900        0.4000           0   0.00000   0.00000
      6170 IM1      32       IM1      H4       HDR5A    0.150000        1.0080           0   0.00000   0.00000
      6171 IM1      32       IM1      C3       CD2R5A   3.068900       11.6110           0   -1.37800   1.30000
      6172 IM1      32       IM1      DC3      DRUD    -2.880900        0.4000           0   0.00000   0.00000
      6173 IM1      32       IM1      H5       HDR5A    0.053000        1.0080           0   0.00000   0.00000
      6174 IM1      32       IM1      C4       CD2R5B   2.404400       11.6110           0   -0.868000   1.30000
      6175 IM1      32       IM1      DC4      DRUD    -2.286400        0.4000           0   0.00000   0.00000
      6176 IM1      32       IM1      H6       HDR5B    0.073000        1.0080           0   0.00000   0.00000
      6177 IM1      32       IM1      N2       ND2R5B   2.249300       13.6070           0   -0.840000   1.00000
      6178 IM1      32       IM1      DN2      DRUD    -2.249300        0.4000           0   0.00000   0.00000
      6179 IM1      32       IM1      H7       HDP1A    0.000000        1.0080           0   0.00000   0.00000
      6180 IM1      32       IM1      LPN21    LPD     -0.474000        0.0000           -1   0.00000   0.00000
      6181 IM1      33       IM1      C1       CD33G    2.390600       11.6110           0   -1.08100   1.00000
      6182 IM1      33       IM1      DC1      DRUD    -2.551600        0.4000           0   0.00000   0.00000
      6183 IM1      33       IM1      H1       HDA3A    0.094000        1.0080           0   0.00000   0.00000
      6184 IM1      33       IM1      H2       HDA3A    0.094000        1.0080           0   0.00000   0.00000
      6185 IM1      33       IM1      H3       HDA3A    0.094000        1.0080           0   0.00000   0.00000
      6186 IM1      33       IM1      N1       ND2R5A   2.670300       13.6070           0   -1.06300   1.30000
      6187 IM1      33       IM1      DN1      DRUD    -2.530300        0.4000           0   0.00000   0.00000
      6188 IM1      33       IM1      C2       CD2R5A   2.511900       11.6110           0   -1.37800   1.30000
      6189 IM1      33       IM1      DC2      DRUD    -2.880900        0.4000           0   0.00000   0.00000
      6190 IM1      33       IM1      H4       HDR5A    0.150000        1.0080           0   0.00000   0.00000
      6191 IM1      33       IM1      C3       CD2R5A   3.068900       11.6110           0   -1.37800   1.30000
      6192 IM1      33       IM1      DC3      DRUD    -2.880900        0.4000           0   0.00000   0.00000
      6193 IM1      33       IM1      H5       HDR5A    0.053000        1.0080           0   0.00000   0.00000
      6194 IM1      33       IM1      C4       CD2R5B   2.404400       11.6110           0   -0.868000   1.30000
      6195 IM1      33       IM1      DC4      DRUD    -2.286400        0.4000           0   0.00000   0.00000
      6196 IM1      33       IM1      H6       HDR5B    0.073000        1.0080           0   0.00000   0.00000
      6197 IM1      33       IM1      N2       ND2R5B   2.249300       13.6070           0   -0.840000   1.00000
      6198 IM1      33       IM1      DN2      DRUD    -2.249300        0.4000           0   0.00000   0.00000
      6199 IM1      33       IM1      H7       HDP1A    0.000000        1.0080           0   0.00000   0.00000
      6200 IM1      33       IM1      LPN21    LPD     -0.474000        0.0000           -1   0.00000   0.00000
      6201 IM1      34       IM1      C1       CD33G    2.390600       11.6110           0   -1.08100   1.00000
      6202 IM1      34       IM1      DC1      DRUD    -2.551600        0.4000           0   0.00000   0.00000
      6203 IM1      34       IM1      H1       HDA3A    0.094000        1.0080           0   0.00000   0.00000
      6204 IM1      34       IM1      H2       HDA3A    0.094000        1.0080           0   0.00000   0.00000
      6205 IM1      34       IM1      H3       HDA3A    0.094000        1.0080           0   0.00000   0.00000
      6206 IM1      34       IM1      N1       ND2R5A   2.670300       13.6070           0   -1.06300   1.30000
      6207 IM1      34       IM1      DN1      DRUD    -2.530300        0.4000           0   0.00000   0.00000
      6208 IM1      34       IM1      C2       CD2R5A   2.511900       11.6110           0   -1.37800   1.30000
      6209 IM1      34       IM1      DC2      DRUD    -2.880900        0.4000           0   0.00000   0.00000
      6210 IM1      34       IM1      H4       HDR5A    0.150000        1.0080           0   0.00000   0.00000
      6211 IM1      34       IM1      C3       CD2R5A   3.068900       11.6110           0   -1.37800   1.30000
      6212 IM1      34       IM1      DC3      DRUD    -2.880900        0.4000           0   0.00000   0.00000
      6213 IM1      34       IM1      H5       HDR5A    0.053000        1.0080           0   0.00000   0.00000
      6214 IM1      34       IM1      C4       CD2R5B   2.404400       11.6110           0   -0.868000   1.30000
      6215 IM1      34       IM1      DC4      DRUD    -2.286400        0.4000           0   0.00000   0.00000
      6216 IM1      34       IM1      H6       HDR5B    0.073000        1.0080           0   0.00000   0.00000
      6217 IM1      34       IM1      N2       ND2R5B   2.249300       13.6070           0   -0.840000   1.00000
      6218 IM1      34       IM1      DN2      DRUD    -2.249300        0.4000           0   0.00000   0.00000
      6219 IM1      34       IM1      H7       HDP1A    0.000000        1.0080           0   0.00000   0.00000
      6220 IM1      34       IM1      LPN21    LPD     -0.474000        0.0000           -1   0.00000   0.00000
      6221 IM1      35       IM1      C1       CD33G    2.390600       11.6110           0   -1.08100   1.00000
      6222 IM1      35       IM1      DC1      DRUD    -2.551600        0.4000           0   0.00000   0.00000
      6223 IM1      35       IM1      H1       HDA3A    0.094000        1.0080           0   0.00000   0.00000
      6224 IM1      35       IM1      H2       HDA3A    0.094000        1.0080           0   0.00000   0.00000
      6225 IM1      35       IM1      H3       HDA3A    0.094000        1.0080           0   0.00000   0.00000
      6226 IM1      35       IM1      N1       ND2R5A   2.670300       13.6070           0   -1.06300   1.30000
      6227 IM1      35       IM1      DN1      DRUD    -2.530300        0.4000           0   0.00000   0.00000
      6228 IM1      35       IM1      C2       CD2R5A   2.511900       11.6110           0   -1.37800   1.30000
      6229 IM1      35       IM1      DC2      DRUD    -2.880900        0.4000           0   0.00000   0.00000
      6230 IM1      35       IM1      H4       HDR5A    0.150000        1.0080           0   0.00000   0.00000
      6231 IM1      35       IM1      C3       CD2R5A   3.068900       11.6110           0   -1.37800   1.30000
      6232 IM1      35       IM1      DC3      DRUD    -2.880900        0.4000           0   0.00000   0.00000
      6233 IM1      35       IM1      H5       HDR5A    0.053000        1.0080           0   0.00000   0.00000
      6234 IM1      35       IM1      C4       CD2R5B   2.404400       11.6110           0   -0.868000   1.30000
      6235 IM1      35       IM1      DC4      DRUD    -2.286400        0.4000           0   0.00000   0.00000
      6236 IM1      35       IM1      H6       HDR5B    0.073000        1.0080           0   0.00000   0.00000
      6237 IM1      35       IM1      N2       ND2R5B   2.249300       13.6070           0   -0.840000   1.00000
      6238 IM1      35       IM1      DN2      DRUD    -2.249300        0.4000           0   0.00000   0.00000
      6239 IM1      35       IM1      H7       HDP1A    0.000000        1.0080           0   0.00000   0.00000
      6240 IM1      35       IM1      LPN21    LPD     -0.474000        0.0000           -1   0.00000   0.00000
      6241 IM1      36       IM1      C1       CD33G    2.390600       11.6110           0   -1.08100   1.00000
      6242 IM1      36       IM1      DC1      DRUD    -2.551600        0.4000           0   0.00000   0.00000
      6243 IM1      36       IM1      H1       HDA3A    0.094000        1.0080           0   0.00000   0.00000
      6244 IM1      36       IM1      H2       HDA3A    0.094000        1.0080           0   0.00000   0.00000
      6245 IM1      36       IM1      H3       HDA3A    0.094000        1.0080           0   0.00000   0.00000
      6246 IM1      36       IM1      N1       ND2R5A   2.670300       13.6070           0   -1.06300   1.30000
      6247 IM1      36       IM1      DN1      DRUD    -2.530300        0.4000           0   0.00000   0.00000
      6248 IM1      36       IM1      C2       CD2R5A   2.511900       11.6110           0   -1.37800   1.30000
      6249 IM1      36       IM1      DC2      DRUD    -2.880900        0.4000           0   0.00000   0.00000
      6250 IM1      36       IM1      H4       HDR5A    0.150000        1.0080           0   0.00000   0.00000
      6251 IM1      36       IM1      C3       CD2R5A   3.068900       11.6110           0   -1.37800   1.30000
      6252 IM1      36       IM1      DC3      DRUD    -2.880900        0.4000           0   0.00000   0.00000
      6253 IM1      36       IM1      H5       HDR5A    0.053000        1.0080           0   0.00000   0.00000
      6254 IM1      36       IM1      C4       CD2R5B   2.404400       11.6110           0   -0.868000   1.30000
      6255 IM1      36       IM1      DC4      DRUD    -2.286400        0.4000           0   0.00000   0.00000
      6256 IM1      36       IM1      H6       HDR5B    0.073000        1.0080           0   0.00000   0.00000
      6257 IM1      36       IM1      N2       ND2R5B   2.249300       13.6070           0   -0.840000   1.00000
      6258 IM1      36       IM1      DN2      DRUD    -2.249300        0.4000           0   0.00000   0.00000
      6259 IM1      36       IM1      H7       HDP1A    0.000000        1.0080           0   0.00000   0.00000
      6260 IM1      36       IM1      LPN21    LPD     -0.474000        0.0000           -1   0.00000   0.00000
      6261 IM1      37       IM1      C1       CD33G    2.390600       11.6110           0   -1.08100   1.00000
      6262 IM1      37       IM1      DC1      DRUD    -2.551600        0.4000           0   0.00000   0.00000
      6263 IM1      37       IM1      H1       HDA3A    0.094000        1.0080           0   0.00000   0.00000
      6264 IM1      37       IM1      H2       HDA3A    0.094000        1.0080           0   0.00000   0.00000
      6265 IM1      37       IM1      H3       HDA3A    0.094000        1.0080           0   0.00000   0.00000
      6266 IM1      37       IM1      N1       ND2R5A   2.670300       13.6070           0   -1.06300   1.30000
      6267 IM1      37       IM1      DN1      DRUD    -2.530300        0.4000           0   0.00000   0.00000
      6268 IM1      37       IM1      C2       CD2R5A   2.511900       11.6110           0   -1.37800   1.30000
      6269 IM1      37       IM1      DC2      DRUD    -2.880900        0.4000           0   0.00000   0.00000
      6270 IM1      37       IM1      H4       HDR5A    0.150000        1.0080           0   0.00000   0.00000
      6271 IM1      37       IM1      C3       CD2R5A   3.068900       11.6110           0   -1.37800   1.30000
      6272 IM1      37       IM1      DC3      DRUD    -2.880900        0.4000           0   0.00000   0.00000
      6273 IM1      37       IM1      H5       HDR5A    0.053000        1.0080           0   0.00000   0.00000
      6274 IM1      37       IM1      C4       CD2R5B   2.404400       11.6110           0   -0.868000   1.30000
      6275 IM1      37       IM1      DC4      DRUD    -2.286400        0.4000           0   0.00000   0.00000
      6276 IM1      37       IM1      H6       HDR5B    0.073000        1.0080           0   0.00000   0.00000
      6277 IM1      37       IM1      N2       ND2R5B   2.249300       13.6070           0   -0.840000   1.00000
      6278 IM1      37       IM1      DN2      DRUD    -2.249300        0.4000           0   0.00000   0.00000
      6279 IM1      37       IM1      H7       HDP1A    0.000000        1.0080           0   0.00000   0.00000
      6280 IM1      37       IM1      LPN21    LPD     -0.474000        0.0000           -1   0.00000   0.00000
      6281 IM1      38       IM1      C1       CD33G    2.390600       11.6110           0   -1.08100   1.00000
      6282 IM1      38       IM1      DC1      DRUD    -2.551600        0.4000           0   0.00000   0.00000
      6283 IM1      38       IM1      H1       HDA3A    0.094000        1.0080           0   0.00000   0.00000
      6284 IM1      38       IM1      H2       HDA3A    0.094000        1.0080           0   0.00000   0.00000
      6285 IM1      38       IM1      H3       HDA3A    0.094000        1.0080           0   0.00000   0.00000
      6286 IM1      38       IM1      N1       ND2R5A   2.670300       13.6070           0   -1.06300   1.30000
      6287 IM1      38       IM1      DN1      DRUD    -2.530300        0.4000           0   0.00000   0.00000
      6288 IM1      38       IM1      C2       CD2R5A   2.511900       11.6110           0   -1.37800   1.30000
      6289 IM1      38       IM1      DC2      DRUD    -2.880900        0.4000           0   0.00000   0.00000
      6290 IM1      38       IM1      H4       HDR5A    0.150000        1.0080           0   0.00000   0.00000
      6291 IM1      38       IM1      C3       CD2R5A   3.068900       11.6110           0   -1.37800   1.30000
      6292 IM1      38       IM1      DC3      DRUD    -2.880900        0.4000           0   0.00000   0.00000
      6293 IM1      38       IM1      H5       HDR5A    0.053000        1.0080           0   0.00000   0.00000
      6294 IM1      38       IM1      C4       CD2R5B   2.404400       11.6110           0   -0.868000   1.30000
      6295 IM1      38       IM1      DC4      DRUD    -2.286400        0.4000           0   0.00000   0.00000
      6296 IM1      38       IM1      H6       HDR5B    0.073000        1.0080           0   0.00000   0.00000
      6297 IM1      38       IM1      N2       ND2R5B   2.249300       13.6070           0   -0.840000   1.00000
      6298 IM1      38       IM1      DN2      DRUD    -2.249300        0.4000           0   0.00000   0.00000
      6299 IM1      38       IM1      H7       HDP1A    0.000000        1.0080           0   0.00000   0.00000
      6300 IM1      38       IM1      LPN21    LPD     -0.474000        0.0000           -1   0.00000   0.00000
      6301 IM1      39       IM1      C1       CD33G    2.390600       11.6110           0   -1.08100   1.00000
      6302 IM1      39       IM1      DC1      DRUD    -2.551600        0.4000           0   0.00000   0.00000
      6303 IM1      39       IM1      H1       HDA3A    0.094000        1.0080           0   0.00000   0.00000
      6304 IM1      39       IM1      H2       HDA3A    0.094000        1.0080           0   0.00000   0.00000
      6305 IM1      39       IM1      H3       HDA3A    0.094000        1.0080           0   0.00000   0.00000
      6306 IM1      39       IM1      N1       ND2R5A   2.670300       13.6070           0   -1.06300   1.30000
      6307 IM1      39       IM1      DN1      DRUD    -2.530300        0.4000           0   0.00000   0.00000
      6308 IM1      39       IM1      C2       CD2R5A   2.511900       11.6110           0   -1.37800   1.30000
      6309 IM1      39       IM1      DC2      DRUD    -2.880900        0.4000           0   0.00000   0.00000
      6310 IM1      39       IM1      H4       HDR5A    0.150000        1.0080           0   0.00000   0.00000
      6311 IM1      39       IM1      C3       CD2R5A   3.068900       11.6110           0   -1.37800   1.30000
      6312 IM1      39       IM1      DC3      DRUD    -2.880900        0.4000           0   0.00000   0.00000
      6313 IM1      39       IM1      H5       HDR5A    0.053000        1.0080           0   0.00000   0.00000
      6314 IM1      39       IM1      C4       CD2R5B   2.404400       11.6110           0   -0.868000   1.30000
      6315 IM1      39       IM1      DC4      DRUD    -2.286400        0.4000           0   0.00000   0.00000
      6316 IM1      39       IM1      H6       HDR5B    0.073000        1.0080           0   0.00000   0.00000
      6317 IM1      39       IM1      N2       ND2R5B   2.249300       13.6070           0   -0.840000   1.00000
      6318 IM1      39       IM1      DN2      DRUD    -2.249300        0.4000           0   0.00000   0.00000
      6319 IM1      39       IM1      H7       HDP1A    0.000000        1.0080           0   0.00000   0.00000
      6320 IM1      39       IM1      LPN21    LPD     -0.474000        0.0000           -1   0.00000   0.00000
      6321 IM1      40       IM1      C1       CD33G    2.390600       11.6110           0   -1.08100   1.00000
      6322 IM1      40       IM1      DC1      DRUD    -2.551600        0.4000           0   0.00000   0.00000
      6323 IM1      40       IM1      H1       HDA3A    0.094000        1.0080           0   0.00000   0.00000
      6324 IM1      40       IM1      H2       HDA3A    0.094000        1.0080           0   0.00000   0.00000
      6325 IM1      40       IM1      H3       HDA3A    0.094000        1.0080           0   0.00000   0.00000
      6326 IM1      40       IM1      N1       ND2R5A   2.670300       13.6070           0   -1.06300   1.30000
      6327 IM1      40       IM1      DN1      DRUD    -2.530300        0.4000           0   0.00000   0.00000
      6328 IM1      40       IM1      C2       CD2R5A   2.511900       11.6110           0   -1.37800   1.30000
      6329 IM1      40       IM1      DC2      DRUD    -2.880900        0.4000           0   0.00000   0.00000
      6330 IM1      40       IM1      H4       HDR5A    0.150000        1.0080           0   0.00000   0.00000
      6331 IM1      40       IM1      C3       CD2R5A   3.068900       11.6110           0   -1.37800   1.30000
      6332 IM1      40       IM1      DC3      DRUD    -2.880900        0.4000           0   0.00000   0.00000
      6333 IM1      40       IM1      H5       HDR5A    0.053000        1.0080           0   0.00000   0.00000
      6334 IM1      40       IM1      C4       CD2R5B   2.404400       11.6110           0   -0.868000   1.30000
      6335 IM1      40       IM1      DC4      DRUD    -2.286400        0.4000           0   0.00000   0.00000
      6336 IM1      40       IM1      H6       HDR5B    0.073000        1.0080           0   0.00000   0.00000
      6337 IM1      40       IM1      N2       ND2R5B   2.249300       13.6070           0   -0.840000   1.00000
      6338 IM1      40       IM1      DN2      DRUD    -2.249300        0.4000           0   0.00000   0.00000
      6339 IM1      40       IM1      H7       HDP1A    0.000000        1.0080           0   0.00000   0.00000
      6340 IM1      40       IM1      LPN21    LPD     -0.474000        0.0000           -1   0.00000   0.00000
      6341 IM1      41       IM1      C1       CD33G    2.390600       11.6110           0   -1.08100   1.00000
      6342 IM1      41       IM1      DC1      DRUD    -2.551600        0.4000           0   0.00000   0.00000
      6343 IM1      41       IM1      H1       HDA3A    0.094000        1.0080           0   0.00000   0.00000
      6344 IM1      41       IM1      H2       HDA3A    0.094000        1.0080           0   0.00000   0.00000
      6345 IM1      41       IM1      H3       HDA3A    0.094000        1.0080           0   0.00000   0.00000
      6346 IM1      41       IM1      N1       ND2R5A   2.670300       13.6070           0   -1.06300   1.30000
      6347 IM1      41       IM1      DN1      DRUD    -2.530300        0.4000           0   0.00000   0.00000
      6348 IM1      41       IM1      C2       CD2R5A   2.511900       11.6110           0   -1.37800   1.30000
      6349 IM1      41       IM1      DC2      DRUD    -2.880900        0.4000           0   0.00000   0.00000
      6350 IM1      41       IM1      H4       HDR5A    0.150000        1.0080           0   0.00000   0.00000
      6351 IM1      41       IM1      C3       CD2R5A   3.068900       11.6110           0   -1.37800   1.30000
      6352 IM1      41       IM1      DC3      DRUD    -2.880900        0.4000           0   0.00000   0.00000
      6353 IM1      41       IM1      H5       HDR5A    0.053000        1.0080           0   0.00000   0.00000
      6354 IM1      41       IM1      C4       CD2R5B   2.404400       11.6110           0   -0.868000   1.30000
      6355 IM1      41       IM1      DC4      DRUD    -2.286400        0.4000           0   0.00000   0.00000
      6356 IM1      41       IM1      H6       HDR5B    0.073000        1.0080           0   0.00000   0.00000
      6357 IM1      41       IM1      N2       ND2R5B   2.249300       13.6070           0   -0.840000   1.00000
      6358 IM1      41       IM1      DN2      DRUD    -2.249300        0.4000           0   0.00000   0.00000
      6359 IM1      41       IM1      H7       HDP1A    0.000000        1.0080           0   0.00000   0.00000
      6360 IM1      41       IM1      LPN21    LPD     -0.474000        0.0000           -1   0.00000   0.00000
      6361 IM1      42       IM1      C1       CD33G    2.390600       11.6110           0   -1.08100   1.00000
      6362 IM1      42       IM1      DC1      DRUD    -2.551600        0.4000           0   0.00000   0.00000
      6363 IM1      42       IM1      H1       HDA3A    0.094000        1.0080           0   0.00000   0.00000
      6364 IM1      42       IM1      H2       HDA3A    0.094000        1.0080           0   0.00000   0.00000
      6365 IM1      42       IM1      H3       HDA3A    0.094000        1.0080           0   0.00000   0.00000
      6366 IM1      42       IM1      N1       ND2R5A   2.670300       13.6070           0   -1.06300   1.30000
      6367 IM1      42       IM1      DN1      DRUD    -2.530300        0.4000           0   0.00000   0.00000
      6368 IM1      42       IM1      C2       CD2R5A   2.511900       11.6110           0   -1.37800   1.30000
      6369 IM1      42       IM1      DC2      DRUD    -2.880900        0.4000           0   0.00000   0.00000
      6370 IM1      42       IM1      H4       HDR5A    0.150000        1.0080           0   0.00000   0.00000
      6371 IM1      42       IM1      C3       CD2R5A   3.068900       11.6110           0   -1.37800   1.30000
      6372 IM1      42       IM1      DC3      DRUD    -2.880900        0.4000           0   0.00000   0.00000
      6373 IM1      42       IM1      H5       HDR5A    0.053000        1.0080           0   0.00000   0.00000
      6374 IM1      42       IM1      C4       CD2R5B   2.404400       11.6110           0   -0.868000   1.30000
      6375 IM1      42       IM1      DC4      DRUD    -2.286400        0.4000           0   0.00000   0.00000
      6376 IM1      42       IM1      H6       HDR5B    0.073000        1.0080           0   0.00000   0.00000
      6377 IM1      42       IM1      N2       ND2R5B   2.249300       13.6070           0   -0.840000   1.00000
      6378 IM1      42       IM1      DN2      DRUD    -2.249300        0.4000           0   0.00000   0.00000
      6379 IM1      42       IM1      H7       HDP1A    0.000000        1.0080           0   0.00000   0.00000
      6380 IM1      42       IM1      LPN21    LPD     -0.474000        0.0000           -1   0.00000   0.00000
      6381 IM1      43       IM1      C1       CD33G    2.390600       11.6110           0   -1.08100   1.00000
      6382 IM1      43       IM1      DC1      DRUD    -2.551600        0.4000           0   0.00000   0.00000
      6383 IM1      43       IM1      H1       HDA3A    0.094000        1.0080           0   0.00000   0.00000
      6384 IM1      43       IM1      H2       HDA3A    0.094000        1.0080           0   0.00000   0.00000
      6385 IM1      43       IM1      H3       HDA3A    0.094000        1.0080           0   0.00000   0.00000
      6386 IM1      43       IM1      N1       ND2R5A   2.670300       13.6070           0   -1.06300   1.30000
      6387 IM1      43       IM1      DN1      DRUD    -2.530300        0.4000           0   0.00000   0.00000
      6388 IM1      43       IM1      C2       CD2R5A   2.511900       11.6110           0   -1.37800   1.30000
      6389 IM1      43       IM1      DC2      DRUD    -2.880900        0.4000           0   0.00000   0.00000
      6390 IM1      43       IM1      H4       HDR5A    0.150000        1.0080           0   0.00000   0.00000
      6391 IM1      43       IM1      C3       CD2R5A   3.068900       11.6110           0   -1.37800   1.30000
      6392 IM1      43       IM1      DC3      DRUD    -2.880900        0.4000           0   0.00000   0.00000
      6393 IM1      43       IM1      H5       HDR5A    0.053000        1.0080           0   0.00000   0.00000
      6394 IM1      43       IM1      C4       CD2R5B   2.404400       11.6110           0   -0.868000   1.30000
      6395 IM1      43       IM1      DC4      DRUD    -2.286400        0.4000           0   0.00000   0.00000
      6396 IM1      43       IM1      H6       HDR5B    0.073000        1.0080           0   0.00000   0.00000
      6397 IM1      43       IM1      N2       ND2R5B   2.249300       13.6070           0   -0.840000   1.00000
      6398 IM1      43       IM1      DN2      DRUD    -2.249300        0.4000           0   0.00000   0.00000
      6399 IM1      43       IM1      H7       HDP1A    0.000000        1.0080           0   0.00000   0.00000
      6400 IM1      43       IM1      LPN21    LPD     -0.474000        0.0000           -1   0.00000   0.00000
      6401 IM1      44       IM1      C1       CD33G    2.390600       11.6110           0   -1.08100   1.00000
      6402 IM1      44       IM1      DC1      DRUD    -2.551600        0.4000           0   0.00000   0.00000
      6403 IM1      44       IM1      H1       HDA3A    0.094000        1.0080           0   0.00000   0.00000
      6404 IM1      44       IM1      H2       HDA3A    0.094000        1.0080           0   0.00000   0.00000
      6405 IM1      44       IM1      H3       HDA3A    0.094000        1.0080           0   0.00000   0.00000
      6406 IM1      44       IM1      N1       ND2R5A   2.670300       13.6070           0   -1.06300   1.30000
      6407 IM1      44       IM1      DN1      DRUD    -2.530300        0.4000           0   0.00000   0.00000
      6408 IM1      44       IM1      C2       CD2R5A   2.511900       11.6110           0   -1.37800   1.30000
      6409 IM1      44       IM1      DC2      DRUD    -2.880900        0.4000           0   0.00000   0.00000
      6410 IM1      44       IM1      H4       HDR5A    0.150000        1.0080           0   0.00000   0.00000
      6411 IM1      44       IM1      C3       CD2R5A   3.068900       11.6110           0   -1.37800   1.30000
      6412 IM1      44       IM1      DC3      DRUD    -2.880900        0.4000           0   0.00000   0.00000
      6413 IM1      44       IM1      H5       HDR5A    0.053000        1.0080           0   0.00000   0.00000
      6414 IM1      44       IM1      C4       CD2R5B   2.404400       11.6110           0   -0.868000   1.30000
      6415 IM1      44       IM1      DC4      DRUD    -2.286400        0.4000           0   0.00000   0.00000
      6416 IM1      44       IM1      H6       HDR5B    0.073000        1.0080           0   0.00000   0.00000
      6417 IM1      44       IM1      N2       ND2R5B   2.249300       13.6070           0   -0.840000   1.00000
      6418 IM1      44       IM1      DN2      DRUD    -2.249300        0.4000           0   0.00000   0.00000
      6419 IM1      44       IM1      H7       HDP1A    0.000000        1.0080           0   0.00000   0.00000
      6420 IM1      44       IM1      LPN21    LPD     -0.474000        0.0000           -1   0.00000   0.00000
      6421 IM1      45       IM1      C1       CD33G    2.390600       11.6110           0   -1.08100   1.00000
      6422 IM1      45       IM1      DC1      DRUD    -2.551600        0.4000           0   0.00000   0.00000
      6423 IM1      45       IM1      H1       HDA3A    0.094000        1.0080           0   0.00000   0.00000
      6424 IM1      45       IM1      H2       HDA3A    0.094000        1.0080           0   0.00000   0.00000
      6425 IM1      45       IM1      H3       HDA3A    0.094000        1.0080           0   0.00000   0.00000
      6426 IM1      45       IM1      N1       ND2R5A   2.670300       13.6070           0   -1.06300   1.30000
      6427 IM1      45       IM1      DN1      DRUD    -2.530300        0.4000           0   0.00000   0.00000
      6428 IM1      45       IM1      C2       CD2R5A   2.511900       11.6110           0   -1.37800   1.30000
      6429 IM1      45       IM1      DC2      DRUD    -2.880900        0.4000           0   0.00000   0.00000
      6430 IM1      45       IM1      H4       HDR5A    0.150000        1.0080           0   0.00000   0.00000
      6431 IM1      45       IM1      C3       CD2R5A   3.068900       11.6110           0   -1.37800   1.30000
      6432 IM1      45       IM1      DC3      DRUD    -2.880900        0.4000           0   0.00000   0.00000
      6433 IM1      45       IM1      H5       HDR5A    0.053000        1.0080           0   0.00000   0.00000
      6434 IM1      45       IM1      C4       CD2R5B   2.404400       11.6110           0   -0.868000   1.30000
      6435 IM1      45       IM1      DC4      DRUD    -2.286400        0.4000           0   0.00000   0.00000
      6436 IM1      45       IM1      H6       HDR5B    0.073000        1.0080           0   0.00000   0.00000
      6437 IM1      45       IM1      N2       ND2R5B   2.249300       13.6070           0   -0.840000   1.00000
      6438 IM1      45       IM1      DN2      DRUD    -2.249300        0.4000           0   0.00000   0.00000
      6439 IM1      45       IM1      H7       HDP1A    0.000000        1.0080           0   0.00000   0.00000
      6440 IM1      45       IM1      LPN21    LPD     -0.474000        0.0000           -1   0.00000   0.00000
      6441 IM1      46       IM1      C1       CD33G    2.390600       11.6110           0   -1.08100   1.00000
      6442 IM1      46       IM1      DC1      DRUD    -2.551600        0.4000           0   0.00000   0.00000
      6443 IM1      46       IM1      H1       HDA3A    0.094000        1.0080           0   0.00000   0.00000
      6444 IM1      46       IM1      H2       HDA3A    0.094000        1.0080           0   0.00000   0.00000
      6445 IM1      46       IM1      H3       HDA3A    0.094000        1.0080           0   0.00000   0.00000
      6446 IM1      46       IM1      N1       ND2R5A   2.670300       13.6070           0   -1.06300   1.30000
      6447 IM1      46       IM1      DN1      DRUD    -2.530300        0.4000           0   0.00000   0.00000
      6448 IM1      46       IM1      C2       CD2R5A   2.511900       11.6110           0   -1.37800   1.30000
      6449 IM1      46       IM1      DC2      DRUD    -2.880900        0.4000           0   0.00000   0.00000
      6450 IM1      46       IM1      H4       HDR5A    0.150000        1.0080           0   0.00000   0.00000
      6451 IM1      46       IM1      C3       CD2R5A   3.068900       11.6110           0   -1.37800   1.30000
      6452 IM1      46       IM1      DC3      DRUD    -2.880900        0.4000           0   0.00000   0.00000
      6453 IM1      46       IM1      H5       HDR5A    0.053000        1.0080           0   0.00000   0.00000
      6454 IM1      46       IM1      C4       CD2R5B   2.404400       11.6110           0   -0.868000   1.30000
      6455 IM1      46       IM1      DC4      DRUD    -2.286400        0.4000           0   0.00000   0.00000
      6456 IM1      46       IM1      H6       HDR5B    0.073000        1.0080           0   0.00000   0.00000
      6457 IM1      46       IM1      N2       ND2R5B   2.249300       13.6070           0   -0.840000   1.00000
      6458 IM1      46       IM1      DN2      DRUD    -2.249300        0.4000           0   0.00000   0.00000
      6459 IM1      46       IM1      H7       HDP1A    0.000000        1.0080           0   0.00000   0.00000
      6460 IM1      46       IM1      LPN21    LPD     -0.474000        0.0000           -1   0.00000   0.00000
      6461 IM1      47       IM1      C1       CD33G    2.390600       11.6110           0   -1.08100   1.00000
      6462 IM1      47       IM1      DC1      DRUD    -2.551600        0.4000           0   0.00000   0.00000
      6463 IM1      47       IM1      H1       HDA3A    0.094000        1.0080           0   0.00000   0.00000
      6464 IM1      47       IM1      H2       HDA3A    0.094000        1.0080           0   0.00000   0.00000
      6465 IM1      47       IM1      H3       HDA3A    0.094000        1.0080           0   0.00000   0.00000
      6466 IM1      47       IM1      N1       ND2R5A   2.670300       13.6070           0   -1.06300   1.30000
      6467 IM1      47       IM1      DN1      DRUD    -2.530300        0.4000           0   0.00000   0.00000
      6468 IM1      47       IM1      C2       CD2R5A   2.511900       11.6110           0   -1.37800   1.30000
      6469 IM1      47       IM1      DC2      DRUD    -2.880900        0.4000           0   0.00000   0.00000
      6470 IM1      47       IM1      H4       HDR5A    0.150000        1.0080           0   0.00000   0.00000
      6471 IM1      47       IM1      C3       CD2R5A   3.068900       11.6110           0   -1.37800   1.30000
      6472 IM1      47       IM1      DC3      DRUD    -2.880900        0.4000           0   0.00000   0.00000
      6473 IM1      47       IM1      H5       HDR5A    0.053000        1.0080           0   0.00000   0.00000
      6474 IM1      47       IM1      C4       CD2R5B   2.404400       11.6110           0   -0.868000   1.30000
      6475 IM1      47       IM1      DC4      DRUD    -2.286400        0.4000           0   0.00000   0.00000
      6476 IM1      47       IM1      H6       HDR5B    0.073000        1.0080           0   0.00000   0.00000
      6477 IM1      47       IM1      N2       ND2R5B   2.249300       13.6070           0   -0.840000   1.00000
      6478 IM1      47       IM1      DN2      DRUD    -2.249300        0.4000           0   0.00000   0.00000
      6479 IM1      47       IM1      H7       HDP1A    0.000000        1.0080           0   0.00000   0.00000
      6480 IM1      47       IM1      LPN21    LPD     -0.474000        0.0000           -1   0.00000   0.00000
      6481 IM1      48       IM1      C1       CD33G    2.390600       11.6110           0   -1.08100   1.00000
      6482 IM1      48       IM1      DC1      DRUD    -2.551600        0.4000           0   0.00000   0.00000
      6483 IM1      48       IM1      H1       HDA3A    0.094000        1.0080           0   0.00000   0.00000
      6484 IM1      48       IM1      H2       HDA3A    0.094000        1.0080           0   0.00000   0.00000
      6485 IM1      48       IM1      H3       HDA3A    0.094000        1.0080           0   0.00000   0.00000
      6486 IM1      48       IM1      N1       ND2R5A   2.670300       13.6070           0   -1.06300   1.30000
      6487 IM1      48       IM1      DN1      DRUD    -2.530300        0.4000           0   0.00000   0.00000
      6488 IM1      48       IM1      C2       CD2R5A   2.511900       11.6110           0   -1.37800   1.30000
      6489 IM1      48       IM1      DC2      DRUD    -2.880900        0.4000           0   0.00000   0.00000
      6490 IM1      48       IM1      H4       HDR5A    0.150000        1.0080           0   0.00000   0.00000
      6491 IM1      48       IM1      C3       CD2R5A   3.068900       11.6110           0   -1.37800   1.30000
      6492 IM1      48       IM1      DC3      DRUD    -2.880900        0.4000           0   0.00000   0.00000
      6493 IM1      48       IM1      H5       HDR5A    0.053000        1.0080           0   0.00000   0.00000
      6494 IM1      48       IM1      C4       CD2R5B   2.404400       11.6110           0   -0.868000   1.30000
      6495 IM1      48       IM1      DC4      DRUD    -2.286400        0.4000           0   0.00000   0.00000
      6496 IM1      48       IM1      H6       HDR5B    0.073000        1.0080           0   0.00000   0.00000
      6497 IM1      48       IM1      N2       ND2R5B   2.249300       13.6070           0   -0.840000   1.00000
      6498 IM1      48       IM1      DN2      DRUD    -2.249300        0.4000           0   0.00000   0.00000
      6499 IM1      48       IM1      H7       HDP1A    0.000000        1.0080           0   0.00000   0.00000
      6500 IM1      48       IM1      LPN21    LPD     -0.474000        0.0000           -1   0.00000   0.00000
      6501 IM1      49       IM1      C1       CD33G    2.390600       11.6110           0   -1.08100   1.00000
      6502 IM1      49       IM1      DC1      DRUD    -2.551600        0.4000           0   0.00000   0.00000
      6503 IM1      49       IM1      H1       HDA3A    0.094000        1.0080           0   0.00000   0.00000
      6504 IM1      49       IM1      H2       HDA3A    0.094000        1.0080           0   0.00000   0.00000
      6505 IM1      49       IM1      H3       HDA3A    0.094000        1.0080           0   0.00000   0.00000
      6506 IM1      49       IM1      N1       ND2R5A   2.670300       13.6070           0   -1.06300   1.30000
      6507 IM1      49       IM1      DN1      DRUD    -2.530300        0.4000           0   0.00000   0.00000
      6508 IM1      49       IM1      C2       CD2R5A   2.511900       11.6110           0   -1.37800   1.30000
      6509 IM1      49       IM1      DC2      DRUD    -2.880900        0.4000           0   0.00000   0.00000
      6510 IM1      49       IM1      H4       HDR5A    0.150000        1.0080           0   0.00000   0.00000
      6511 IM1      49       IM1      C3       CD2R5A   3.068900       11.6110           0   -1.37800   1.30000
      6512 IM1      49       IM1      DC3      DRUD    -2.880900        0.4000           0   0.00000   0.00000
      6513 IM1      49       IM1      H5       HDR5A    0.053000        1.0080           0   0.00000   0.00000
      6514 IM1      49       IM1      C4       CD2R5B   2.404400       11.6110           0   -0.868000   1.30000
      6515 IM1      49       IM1      DC4      DRUD    -2.286400        0.4000           0   0.00000   0.00000
      6516 IM1      49       IM1      H6       HDR5B    0.073000        1.0080           0   0.00000   0.00000
      6517 IM1      49       IM1      N2       ND2R5B   2.249300       13.6070           0   -0.840000   1.00000
      6518 IM1      49       IM1      DN2      DRUD    -2.249300        0.4000           0   0.00000   0.00000
      6519 IM1      49       IM1      H7       HDP1A    0.000000        1.0080           0   0.00000   0.00000
      6520 IM1      49       IM1      LPN21    LPD     -0.474000        0.0000           -1   0.00000   0.00000
      6521 IM1      50       IM1      C1       CD33G    2.390600       11.6110           0   -1.08100   1.00000
      6522 IM1      50       IM1      DC1      DRUD    -2.551600        0.4000           0   0.00000   0.00000
      6523 IM1      50       IM1      H1       HDA3A    0.094000        1.0080           0   0.00000   0.00000
      6524 IM1      50       IM1      H2       HDA3A    0.094000        1.0080           0   0.00000   0.00000
      6525 IM1      50       IM1      H3       HDA3A    0.094000        1.0080           0   0.00000   0.00000
      6526 IM1      50       IM1      N1       ND2R5A   2.670300       13.6070           0   -1.06300   1.30000
      6527 IM1      50       IM1      DN1      DRUD    -2.530300        0.4000           0   0.00000   0.00000
      6528 IM1      50       IM1      C2       CD2R5A   2.511900       11.6110           0   -1.37800   1.30000
      6529 IM1      50       IM1      DC2      DRUD    -2.880900        0.4000           0   0.00000   0.00000
      6530 IM1      50       IM1      H4       HDR5A    0.150000        1.0080           0   0.00000   0.00000
      6531 IM1      50       IM1      C3       CD2R5A   3.068900       11.6110           0   -1.37800   1.30000
      6532 IM1      50       IM1      DC3      DRUD    -2.880900        0.4000           0   0.00000   0.00000
      6533 IM1      50       IM1      H5       HDR5A    0.053000        1.0080           0   0.00000   0.00000
      6534 IM1      50       IM1      C4       CD2R5B   2.404400       11.6110           0   -0.868000   1.30000
      6535 IM1      50       IM1      DC4      DRUD    -2.286400        0.4000           0   0.00000   0.00000
      6536 IM1      50       IM1      H6       HDR5B    0.073000        1.0080           0   0.00000   0.00000
      6537 IM1      50       IM1      N2       ND2R5B   2.249300       13.6070           0   -0.840000   1.00000
      6538 IM1      50       IM1      DN2      DRUD    -2.249300        0.4000           0   0.00000   0.00000
      6539 IM1      50       IM1      H7       HDP1A    0.000000        1.0080           0   0.00000   0.00000
      6540 IM1      50       IM1      LPN21    LPD     -0.474000        0.0000           -1   0.00000   0.00000
      6541 IM1      51       IM1      C1       CD33G    2.390600       11.6110           0   -1.08100   1.00000
      6542 IM1      51       IM1      DC1      DRUD    -2.551600        0.4000           0   0.00000   0.00000
      6543 IM1      51       IM1      H1       HDA3A    0.094000        1.0080           0   0.00000   0.00000
      6544 IM1      51       IM1      H2       HDA3A    0.094000        1.0080           0   0.00000   0.00000
      6545 IM1      51       IM1      H3       HDA3A    0.094000        1.0080           0   0.00000   0.00000
      6546 IM1      51       IM1      N1       ND2R5A   2.670300       13.6070           0   -1.06300   1.30000
      6547 IM1      51       IM1      DN1      DRUD    -2.530300        0.4000           0   0.00000   0.00000
      6548 IM1      51       IM1      C2       CD2R5A   2.511900       11.6110           0   -1.37800   1.30000
      6549 IM1      51       IM1      DC2      DRUD    -2.880900        0.4000           0   0.00000   0.00000
      6550 IM1      51       IM1      H4       HDR5A    0.150000        1.0080           0   0.00000   0.00000
      6551 IM1      51       IM1      C3       CD2R5A   3.068900       11.6110           0   -1.37800   1.30000
      6552 IM1      51       IM1      DC3      DRUD    -2.880900        0.4000           0   0.00000   0.00000
      6553 IM1      51       IM1      H5       HDR5A    0.053000        1.0080           0   0.00000   0.00000
      6554 IM1      51       IM1      C4       CD2R5B   2.404400       11.6110           0   -0.868000   1.30000
      6555 IM1      51       IM1      DC4      DRUD    -2.286400        0.4000           0   0.00000   0.00000
      6556 IM1      51       IM1      H6       HDR5B    0.073000        1.0080           0   0.00000   0.00000
      6557 IM1      51       IM1      N2       ND2R5B   2.249300       13.6070           0   -0.840000   1.00000
      6558 IM1      51       IM1      DN2      DRUD    -2.249300        0.4000           0   0.00000   0.00000
      6559 IM1      51       IM1      H7       HDP1A    0.000000        1.0080           0   0.00000   0.00000
      6560 IM1      51       IM1      LPN21    LPD     -0.474000        0.0000           -1   0.00000   0.00000
      6561 IM1      52       IM1      C1       CD33G    2.390600       11.6110           0   -1.08100   1.00000
      6562 IM1      52       IM1      DC1      DRUD    -2.551600        0.4000           0   0.00000   0.00000
      6563 IM1      52       IM1      H1       HDA3A    0.094000        1.0080           0   0.00000   0.00000
      6564 IM1      52       IM1      H2       HDA3A    0.094000        1.0080           0   0.00000   0.00000
      6565 IM1      52       IM1      H3       HDA3A    0.094000        1.0080           0   0.00000   0.00000
      6566 IM1      52       IM1      N1       ND2R5A   2.670300       13.6070           0   -1.06300   1.30000
      6567 IM1      52       IM1      DN1      DRUD    -2.530300        0.4000           0   0.00000   0.00000
      6568 IM1      52       IM1      C2       CD2R5A   2.511900       11.6110           0   -1.37800   1.30000
      6569 IM1      52       IM1      DC2      DRUD    -2.880900        0.4000           0   0.00000   0.00000
      6570 IM1      52       IM1      H4       HDR5A    0.150000        1.0080           0   0.00000   0.00000
      6571 IM1      52       IM1      C3       CD2R5A   3.068900       11.6110           0   -1.37800   1.30000
      6572 IM1      52       IM1      DC3      DRUD    -2.880900        0.4000           0   0.00000   0.00000
      6573 IM1      52       IM1      H5       HDR5A    0.053000        1.0080           0   0.00000   0.00000
      6574 IM1      52       IM1      C4       CD2R5B   2.404400       11.6110           0   -0.868000   1.30000
      6575 IM1      52       IM1      DC4      DRUD    -2.286400        0.4000           0   0.00000   0.00000
      6576 IM1      52       IM1      H6       HDR5B    0.073000        1.0080           0   0.00000   0.00000
      6577 IM1      52       IM1      N2       ND2R5B   2.249300       13.6070           0   -0.840000   1.00000
      6578 IM1      52       IM1      DN2      DRUD    -2.249300        0.4000           0   0.00000   0.00000
      6579 IM1      52       IM1      H7       HDP1A    0.000000        1.0080           0   0.00000   0.00000
      6580 IM1      52       IM1      LPN21    LPD     -0.474000        0.0000           -1   0.00000   0.00000
      6581 IM1      53       IM1      C1       CD33G    2.390600       11.6110           0   -1.08100   1.00000
      6582 IM1      53       IM1      DC1      DRUD    -2.551600        0.4000           0   0.00000   0.00000
      6583 IM1      53       IM1      H1       HDA3A    0.094000        1.0080           0   0.00000   0.00000
      6584 IM1      53       IM1      H2       HDA3A    0.094000        1.0080           0   0.00000   0.00000
      6585 IM1      53       IM1      H3       HDA3A    0.094000        1.0080           0   0.00000   0.00000
      6586 IM1      53       IM1      N1       ND2R5A   2.670300       13.6070           0   -1.06300   1.30000
      6587 IM1      53       IM1      DN1      DRUD    -2.530300        0.4000           0   0.00000   0.00000
      6588 IM1      53       IM1      C2       CD2R5A   2.511900       11.6110           0   -1.37800   1.30000
      6589 IM1      53       IM1      DC2      DRUD    -2.880900        0.4000           0   0.00000   0.00000
      6590 IM1      53       IM1      H4       HDR5A    0.150000        1.0080           0   0.00000   0.00000
      6591 IM1      53       IM1      C3       CD2R5A   3.068900       11.6110           0   -1.37800   1.30000
      6592 IM1      53       IM1      DC3      DRUD    -2.880900        0.4000           0   0.00000   0.00000
      6593 IM1      53       IM1      H5       HDR5A    0.053000        1.0080           0   0.00000   0.00000
      6594 IM1      53       IM1      C4       CD2R5B   2.404400       11.6110           0   -0.868000   1.30000
      6595 IM1      53       IM1      DC4      DRUD    -2.286400        0.4000           0   0.00000   0.00000
      6596 IM1      53       IM1      H6       HDR5B    0.073000        1.0080           0   0.00000   0.00000
      6597 IM1      53       IM1      N2       ND2R5B   2.249300       13.6070           0   -0.840000   1.00000
      6598 IM1      53       IM1      DN2      DRUD    -2.249300        0.4000           0   0.00000   0.00000
      6599 IM1      53       IM1      H7       HDP1A    0.000000        1.0080           0   0.00000   0.00000
      6600 IM1      53       IM1      LPN21    LPD     -0.474000        0.0000           -1   0.00000   0.00000
      6601 IM1      54       IM1      C1       CD33G    2.390600       11.6110           0   -1.08100   1.00000
      6602 IM1      54       IM1      DC1      DRUD    -2.551600        0.4000           0   0.00000   0.00000
      6603 IM1      54       IM1      H1       HDA3A    0.094000        1.0080           0   0.00000   0.00000
      6604 IM1      54       IM1      H2       HDA3A    0.094000        1.0080           0   0.00000   0.00000
      6605 IM1      54       IM1      H3       HDA3A    0.094000        1.0080           0   0.00000   0.00000
      6606 IM1      54       IM1      N1       ND2R5A   2.670300       13.6070           0   -1.06300   1.30000
      6607 IM1      54       IM1      DN1      DRUD    -2.530300        0.4000           0   0.00000   0.00000
      6608 IM1      54       IM1      C2       CD2R5A   2.511900       11.6110           0   -1.37800   1.30000
      6609 IM1      54       IM1      DC2      DRUD    -2.880900        0.4000           0   0.00000   0.00000
      6610 IM1      54       IM1      H4       HDR5A    0.150000        1.0080           0   0.00000   0.00000
      6611 IM1      54       IM1      C3       CD2R5A   3.068900       11.6110           0   -1.37800   1.30000
      6612 IM1      54       IM1      DC3      DRUD    -2.880900        0.4000           0   0.00000   0.00000
      6613 IM1      54       IM1      H5       HDR5A    0.053000        1.0080           0   0.00000   0.00000
      6614 IM1      54       IM1      C4       CD2R5B   2.404400       11.6110           0   -0.868000   1.30000
      6615 IM1      54       IM1      DC4      DRUD    -2.286400        0.4000           0   0.00000   0.00000
      6616 IM1      54       IM1      H6       HDR5B    0.073000        1.0080           0   0.00000   0.00000
      6617 IM1      54       IM1      N2       ND2R5B   2.249300       13.6070           0   -0.840000   1.00000
      6618 IM1      54       IM1      DN2      DRUD    -2.249300        0.4000           0   0.00000   0.00000
      6619 IM1      54       IM1      H7       HDP1A    0.000000        1.0080           0   0.00000   0.00000
      6620 IM1      54       IM1      LPN21    LPD     -0.474000        0.0000           -1   0.00000   0.00000
      6621 IM1      55       IM1      C1       CD33G    2.390600       11.6110           0   -1.08100   1.00000
      6622 IM1      55       IM1      DC1      DRUD    -2.551600        0.4000           0   0.00000   0.00000
      6623 IM1      55       IM1      H1       HDA3A    0.094000        1.0080           0   0.00000   0.00000
      6624 IM1      55       IM1      H2       HDA3A    0.094000        1.0080           0   0.00000   0.00000
      6625 IM1      55       IM1      H3       HDA3A    0.094000        1.0080           0   0.00000   0.00000
      6626 IM1      55       IM1      N1       ND2R5A   2.670300       13.6070           0   -1.06300   1.30000
      6627 IM1      55       IM1      DN1      DRUD    -2.530300        0.4000           0   0.00000   0.00000
      6628 IM1      55       IM1      C2       CD2R5A   2.511900       11.6110           0   -1.37800   1.30000
      6629 IM1      55       IM1      DC2      DRUD    -2.880900        0.4000           0   0.00000   0.00000
      6630 IM1      55       IM1      H4       HDR5A    0.150000        1.0080           0   0.00000   0.00000
      6631 IM1      55       IM1      C3       CD2R5A   3.068900       11.6110           0   -1.37800   1.30000
      6632 IM1      55       IM1      DC3      DRUD    -2.880900        0.4000           0   0.00000   0.00000
      6633 IM1      55       IM1      H5       HDR5A    0.053000        1.0080           0   0.00000   0.00000
      6634 IM1      55       IM1      C4       CD2R5B   2.404400       11.6110           0   -0.868000   1.30000
      6635 IM1      55       IM1      DC4      DRUD    -2.286400        0.4000           0   0.00000   0.00000
      6636 IM1      55       IM1      H6       HDR5B    0.073000        1.0080           0   0.00000   0.00000
      6637 IM1      55       IM1      N2       ND2R5B   2.249300       13.6070           0   -0.840000   1.00000
      6638 IM1      55       IM1      DN2      DRUD    -2.249300        0.4000           0   0.00000   0.00000
      6639 IM1      55       IM1      H7       HDP1A    0.000000        1.0080           0   0.00000   0.00000
      6640 IM1      55       IM1      LPN21    LPD     -0.474000        0.0000           -1   0.00000   0.00000
      6641 IM1      56       IM1      C1       CD33G    2.390600       11.6110           0   -1.08100   1.00000
      6642 IM1      56       IM1      DC1      DRUD    -2.551600        0.4000           0   0.00000   0.00000
      6643 IM1      56       IM1      H1       HDA3A    0.094000        1.0080           0   0.00000   0.00000
      6644 IM1      56       IM1      H2       HDA3A    0.094000        1.0080           0   0.00000   0.00000
      6645 IM1      56       IM1      H3       HDA3A    0.094000        1.0080           0   0.00000   0.00000
      6646 IM1      56       IM1      N1       ND2R5A   2.670300       13.6070           0   -1.06300   1.30000
      6647 IM1      56       IM1      DN1      DRUD    -2.530300        0.4000           0   0.00000   0.00000
      6648 IM1      56       IM1      C2       CD2R5A   2.511900       11.6110           0   -1.37800   1.30000
      6649 IM1      56       IM1      DC2      DRUD    -2.880900        0.4000           0   0.00000   0.00000
      6650 IM1      56       IM1      H4       HDR5A    0.150000        1.0080           0   0.00000   0.00000
      6651 IM1      56       IM1      C3       CD2R5A   3.068900       11.6110           0   -1.37800   1.30000
      6652 IM1      56       IM1      DC3      DRUD    -2.880900        0.4000           0   0.00000   0.00000
      6653 IM1      56       IM1      H5       HDR5A    0.053000        1.0080           0   0.00000   0.00000
      6654 IM1      56       IM1      C4       CD2R5B   2.404400       11.6110           0   -0.868000   1.30000
      6655 IM1      56       IM1      DC4      DRUD    -2.286400        0.4000           0   0.00000   0.00000
      6656 IM1      56       IM1      H6       HDR5B    0.073000        1.0080           0   0.00000   0.00000
      6657 IM1      56       IM1      N2       ND2R5B   2.249300       13.6070           0   -0.840000   1.00000
      6658 IM1      56       IM1      DN2      DRUD    -2.249300        0.4000           0   0.00000   0.00000
      6659 IM1      56       IM1      H7       HDP1A    0.000000        1.0080           0   0.00000   0.00000
      6660 IM1      56       IM1      LPN21    LPD     -0.474000        0.0000           -1   0.00000   0.00000
      6661 IM1      57       IM1      C1       CD33G    2.390600       11.6110           0   -1.08100   1.00000
      6662 IM1      57       IM1      DC1      DRUD    -2.551600        0.4000           0   0.00000   0.00000
      6663 IM1      57       IM1      H1       HDA3A    0.094000        1.0080           0   0.00000   0.00000
      6664 IM1      57       IM1      H2       HDA3A    0.094000        1.0080           0   0.00000   0.00000
      6665 IM1      57       IM1      H3       HDA3A    0.094000        1.0080           0   0.00000   0.00000
      6666 IM1      57       IM1      N1       ND2R5A   2.670300       13.6070           0   -1.06300   1.30000
      6667 IM1      57       IM1      DN1      DRUD    -2.530300        0.4000           0   0.00000   0.00000
      6668 IM1      57       IM1      C2       CD2R5A   2.511900       11.6110           0   -1.37800   1.30000
      6669 IM1      57       IM1      DC2      DRUD    -2.880900        0.4000           0   0.00000   0.00000
      6670 IM1      57       IM1      H4       HDR5A    0.150000        1.0080           0   0.00000   0.00000
      6671 IM1      57       IM1      C3       CD2R5A   3.068900       11.6110           0   -1.37800   1.30000
      6672 IM1      57       IM1      DC3      DRUD    -2.880900        0.4000           0   0.00000   0.00000
      6673 IM1      57       IM1      H5       HDR5A    0.053000        1.0080           0   0.00000   0.00000
      6674 IM1      57       IM1      C4       CD2R5B   2.404400       11.6110           0   -0.868000   1.30000
      6675 IM1      57       IM1      DC4      DRUD    -2.286400        0.4000           0   0.00000   0.00000
      6676 IM1      57       IM1      H6       HDR5B    0.073000        1.0080           0   0.00000   0.00000
      6677 IM1      57       IM1      N2       ND2R5B   2.249300       13.6070           0   -0.840000   1.00000
      6678 IM1      57       IM1      DN2      DRUD    -2.249300        0.4000           0   0.00000   0.00000
      6679 IM1      57       IM1      H7       HDP1A    0.000000        1.0080           0   0.00000   0.00000
      6680 IM1      57       IM1      LPN21    LPD     -0.474000        0.0000           -1   0.00000   0.00000
      6681 IM1      58       IM1      C1       CD33G    2.390600       11.6110           0   -1.08100   1.00000
      6682 IM1      58       IM1      DC1      DRUD    -2.551600        0.4000           0   0.00000   0.00000
      6683 IM1      58       IM1      H1       HDA3A    0.094000        1.0080           0   0.00000   0.00000
      6684 IM1      58       IM1      H2       HDA3A    0.094000        1.0080           0   0.00000   0.00000
      6685 IM1      58       IM1      H3       HDA3A    0.094000        1.0080           0   0.00000   0.00000
      6686 IM1      58       IM1      N1       ND2R5A   2.670300       13.6070           0   -1.06300   1.30000
      6687 IM1      58       IM1      DN1      DRUD    -2.530300        0.4000           0   0.00000   0.00000
      6688 IM1      58       IM1      C2       CD2R5A   2.511900       11.6110           0   -1.37800   1.30000
      6689 IM1      58       IM1      DC2      DRUD    -2.880900        0.4000           0   0.00000   0.00000
      6690 IM1      58       IM1      H4       HDR5A    0.150000        1.0080           0   0.00000   0.00000
      6691 IM1      58       IM1      C3       CD2R5A   3.068900       11.6110           0   -1.37800   1.30000
      6692 IM1      58       IM1      DC3      DRUD    -2.880900        0.4000           0   0.00000   0.00000
      6693 IM1      58       IM1      H5       HDR5A    0.053000        1.0080           0   0.00000   0.00000
      6694 IM1      58       IM1      C4       CD2R5B   2.404400       11.6110           0   -0.868000   1.30000
      6695 IM1      58       IM1      DC4      DRUD    -2.286400        0.4000           0   0.00000   0.00000
      6696 IM1      58       IM1      H6       HDR5B    0.073000        1.0080           0   0.00000   0.00000
      6697 IM1      58       IM1      N2       ND2R5B   2.249300       13.6070           0   -0.840000   1.00000
      6698 IM1      58       IM1      DN2      DRUD    -2.249300        0.4000           0   0.00000   0.00000
      6699 IM1      58       IM1      H7       HDP1A    0.000000        1.0080           0   0.00000   0.00000
      6700 IM1      58       IM1      LPN21    LPD     -0.474000        0.0000           -1   0.00000   0.00000
      6701 IM1      59       IM1      C1       CD33G    2.390600       11.6110           0   -1.08100   1.00000
      6702 IM1      59       IM1      DC1      DRUD    -2.551600        0.4000           0   0.00000   0.00000
      6703 IM1      59       IM1      H1       HDA3A    0.094000        1.0080           0   0.00000   0.00000
      6704 IM1      59       IM1      H2       HDA3A    0.094000        1.0080           0   0.00000   0.00000
      6705 IM1      59       IM1      H3       HDA3A    0.094000        1.0080           0   0.00000   0.00000
      6706 IM1      59       IM1      N1       ND2R5A   2.670300       13.6070           0   -1.06300   1.30000
      6707 IM1      59       IM1      DN1      DRUD    -2.530300        0.4000           0   0.00000   0.00000
      6708 IM1      59       IM1      C2       CD2R5A   2.511900       11.6110           0   -1.37800   1.30000
      6709 IM1      59       IM1      DC2      DRUD    -2.880900        0.4000           0   0.00000   0.00000
      6710 IM1      59       IM1      H4       HDR5A    0.150000        1.0080           0   0.00000   0.00000
      6711 IM1      59       IM1      C3       CD2R5A   3.068900       11.6110           0   -1.37800   1.30000
      6712 IM1      59       IM1      DC3      DRUD    -2.880900        0.4000           0   0.00000   0.00000
      6713 IM1      59       IM1      H5       HDR5A    0.053000        1.0080           0   0.00000   0.00000
      6714 IM1      59       IM1      C4       CD2R5B   2.404400       11.6110           0   -0.868000   1.30000
      6715 IM1      59       IM1      DC4      DRUD    -2.286400        0.4000           0   0.00000   0.00000
      6716 IM1      59       IM1      H6       HDR5B    0.073000        1.0080           0   0.00000   0.00000
      6717 IM1      59       IM1      N2       ND2R5B   2.249300       13.6070           0   -0.840000   1.00000
      6718 IM1      59       IM1      DN2      DRUD    -2.249300        0.4000           0   0.00000   0.00000
      6719 IM1      59       IM1      H7       HDP1A    0.000000        1.0080           0   0.00000   0.00000
      6720 IM1      59       IM1      LPN21    LPD     -0.474000        0.0000           -1   0.00000   0.00000
      6721 IM1      60       IM1      C1       CD33G    2.390600       11.6110           0   -1.08100   1.00000
      6722 IM1      60       IM1      DC1      DRUD    -2.551600        0.4000           0   0.00000   0.00000
      6723 IM1      60       IM1      H1       HDA3A    0.094000        1.0080           0   0.00000   0.00000
      6724 IM1      60       IM1      H2       HDA3A    0.094000        1.0080           0   0.00000   0.00000
      6725 IM1      60       IM1      H3       HDA3A    0.094000        1.0080           0   0.00000   0.00000
      6726 IM1      60       IM1      N1       ND2R5A   2.670300       13.6070           0   -1.06300   1.30000
      6727 IM1      60       IM1      DN1      DRUD    -2.530300        0.4000           0   0.00000   0.00000
      6728 IM1      60       IM1      C2       CD2R5A   2.511900       11.6110           0   -1.37800   1.30000
      6729 IM1      60       IM1      DC2      DRUD    -2.880900        0.4000           0   0.00000   0.00000
      6730 IM1      60       IM1      H4       HDR5A    0.150000        1.0080           0   0.00000   0.00000
      6731 IM1      60       IM1      C3       CD2R5A   3.068900       11.6110           0   -1.37800   1.30000
      6732 IM1      60       IM1      DC3      DRUD    -2.880900        0.4000           0   0.00000   0.00000
      6733 IM1      60       IM1      H5       HDR5A    0.053000        1.0080           0   0.00000   0.00000
      6734 IM1      60       IM1      C4       CD2R5B   2.404400       11.6110           0   -0.868000   1.30000
      6735 IM1      60       IM1      DC4      DRUD    -2.286400        0.4000           0   0.00000   0.00000
      6736 IM1      60       IM1      H6       HDR5B    0.073000        1.0080           0   0.00000   0.00000
      6737 IM1      60       IM1      N2       ND2R5B   2.249300       13.6070           0   -0.840000   1.00000
      6738 IM1      60       IM1      DN2      DRUD    -2.249300        0.4000           0   0.00000   0.00000
      6739 IM1      60       IM1      H7       HDP1A    0.000000        1.0080           0   0.00000   0.00000
      6740 IM1      60       IM1      LPN21    LPD     -0.474000        0.0000           -1   0.00000   0.00000
      6741 IM1      61       IM1      C1       CD33G    2.390600       11.6110           0   -1.08100   1.00000
      6742 IM1      61       IM1      DC1      DRUD    -2.551600        0.4000           0   0.00000   0.00000
      6743 IM1      61       IM1      H1       HDA3A    0.094000        1.0080           0   0.00000   0.00000
      6744 IM1      61       IM1      H2       HDA3A    0.094000        1.0080           0   0.00000   0.00000
      6745 IM1      61       IM1      H3       HDA3A    0.094000        1.0080           0   0.00000   0.00000
      6746 IM1      61       IM1      N1       ND2R5A   2.670300       13.6070           0   -1.06300   1.30000
      6747 IM1      61       IM1      DN1      DRUD    -2.530300        0.4000           0   0.00000   0.00000
      6748 IM1      61       IM1      C2       CD2R5A   2.511900       11.6110           0   -1.37800   1.30000
      6749 IM1      61       IM1      DC2      DRUD    -2.880900        0.4000           0   0.00000   0.00000
      6750 IM1      61       IM1      H4       HDR5A    0.150000        1.0080           0   0.00000   0.00000
      6751 IM1      61       IM1      C3       CD2R5A   3.068900       11.6110           0   -1.37800   1.30000
      6752 IM1      61       IM1      DC3      DRUD    -2.880900        0.4000           0   0.00000   0.00000
      6753 IM1      61       IM1      H5       HDR5A    0.053000        1.0080           0   0.00000   0.00000
      6754 IM1      61       IM1      C4       CD2R5B   2.404400       11.6110           0   -0.868000   1.30000
      6755 IM1      61       IM1      DC4      DRUD    -2.286400        0.4000           0   0.00000   0.00000
      6756 IM1      61       IM1      H6       HDR5B    0.073000        1.0080           0   0.00000   0.00000
      6757 IM1      61       IM1      N2       ND2R5B   2.249300       13.6070           0   -0.840000   1.00000
      6758 IM1      61       IM1      DN2      DRUD    -2.249300        0.4000           0   0.00000   0.00000
      6759 IM1      61       IM1      H7       HDP1A    0.000000        1.0080           0   0.00000   0.00000
      6760 IM1      61       IM1      LPN21    LPD     -0.474000        0.0000           -1   0.00000   0.00000
      6761 IM1      62       IM1      C1       CD33G    2.390600       11.6110           0   -1.08100   1.00000
      6762 IM1      62       IM1      DC1      DRUD    -2.551600        0.4000           0   0.00000   0.00000
      6763 IM1      62       IM1      H1       HDA3A    0.094000        1.0080           0   0.00000   0.00000
      6764 IM1      62       IM1      H2       HDA3A    0.094000        1.0080           0   0.00000   0.00000
      6765 IM1      62       IM1      H3       HDA3A    0.094000        1.0080           0   0.00000   0.00000
      6766 IM1      62       IM1      N1       ND2R5A   2.670300       13.6070           0   -1.06300   1.30000
      6767 IM1      62       IM1      DN1      DRUD    -2.530300        0.4000           0   0.00000   0.00000
      6768 IM1      62       IM1      C2       CD2R5A   2.511900       11.6110           0   -1.37800   1.30000
      6769 IM1      62       IM1      DC2      DRUD    -2.880900        0.4000           0   0.00000   0.00000
      6770 IM1      62       IM1      H4       HDR5A    0.150000        1.0080           0   0.00000   0.00000
      6771 IM1      62       IM1      C3       CD2R5A   3.068900       11.6110           0   -1.37800   1.30000
      6772 IM1      62       IM1      DC3      DRUD    -2.880900        0.4000           0   0.00000   0.00000
      6773 IM1      62       IM1      H5       HDR5A    0.053000        1.0080           0   0.00000   0.00000
      6774 IM1      62       IM1      C4       CD2R5B   2.404400       11.6110           0   -0.868000   1.30000
      6775 IM1      62       IM1      DC4      DRUD    -2.286400        0.4000           0   0.00000   0.00000
      6776 IM1      62       IM1      H6       HDR5B    0.073000        1.0080           0   0.00000   0.00000
      6777 IM1      62       IM1      N2       ND2R5B   2.249300       13.6070           0   -0.840000   1.00000
      6778 IM1      62       IM1      DN2      DRUD    -2.249300        0.4000           0   0.00000   0.00000
      6779 IM1      62       IM1      H7       HDP1A    0.000000        1.0080           0   0.00000   0.00000
      6780 IM1      62       IM1      LPN21    LPD     -0.474000        0.0000           -1   0.00000   0.00000
      6781 IM1      63       IM1      C1       CD33G    2.390600       11.6110           0   -1.08100   1.00000
      6782 IM1      63       IM1      DC1      DRUD    -2.551600        0.4000           0   0.00000   0.00000
      6783 IM1      63       IM1      H1       HDA3A    0.094000        1.0080           0   0.00000   0.00000
      6784 IM1      63       IM1      H2       HDA3A    0.094000        1.0080           0   0.00000   0.00000
      6785 IM1      63       IM1      H3       HDA3A    0.094000        1.0080           0   0.00000   0.00000
      6786 IM1      63       IM1      N1       ND2R5A   2.670300       13.6070           0   -1.06300   1.30000
      6787 IM1      63       IM1      DN1      DRUD    -2.530300        0.4000           0   0.00000   0.00000
      6788 IM1      63       IM1      C2       CD2R5A   2.511900       11.6110           0   -1.37800   1.30000
      6789 IM1      63       IM1      DC2      DRUD    -2.880900        0.4000           0   0.00000   0.00000
      6790 IM1      63       IM1      H4       HDR5A    0.150000        1.0080           0   0.00000   0.00000
      6791 IM1      63       IM1      C3       CD2R5A   3.068900       11.6110           0   -1.37800   1.30000
      6792 IM1      63       IM1      DC3      DRUD    -2.880900        0.4000           0   0.00000   0.00000
      6793 IM1      63       IM1      H5       HDR5A    0.053000        1.0080           0   0.00000   0.00000
      6794 IM1      63       IM1      C4       CD2R5B   2.404400       11.6110           0   -0.868000   1.30000
      6795 IM1      63       IM1      DC4      DRUD    -2.286400        0.4000           0   0.00000   0.00000
      6796 IM1      63       IM1      H6       HDR5B    0.073000        1.0080           0   0.00000   0.00000
      6797 IM1      63       IM1      N2       ND2R5B   2.249300       13.6070           0   -0.840000   1.00000
      6798 IM1      63       IM1      DN2      DRUD    -2.249300        0.4000           0   0.00000   0.00000
      6799 IM1      63       IM1      H7       HDP1A    0.000000        1.0080           0   0.00000   0.00000
      6800 IM1      63       IM1      LPN21    LPD     -0.474000        0.0000           -1   0.00000   0.00000
      6801 IM1      64       IM1      C1       CD33G    2.390600       11.6110           0   -1.08100   1.00000
      6802 IM1      64       IM1      DC1      DRUD    -2.551600        0.4000           0   0.00000   0.00000
      6803 IM1      64       IM1      H1       HDA3A    0.094000        1.0080           0   0.00000   0.00000
      6804 IM1      64       IM1      H2       HDA3A    0.094000        1.0080           0   0.00000   0.00000
      6805 IM1      64       IM1      H3       HDA3A    0.094000        1.0080           0   0.00000   0.00000
      6806 IM1      64       IM1      N1       ND2R5A   2.670300       13.6070           0   -1.06300   1.30000
      6807 IM1      64       IM1      DN1      DRUD    -2.530300        0.4000           0   0.00000   0.00000
      6808 IM1      64       IM1      C2       CD2R5A   2.511900       11.6110           0   -1.37800   1.30000
      6809 IM1      64       IM1      DC2      DRUD    -2.880900        0.4000           0   0.00000   0.00000
      6810 IM1      64       IM1      H4       HDR5A    0.150000        1.0080           0   0.00000   0.00000
      6811 IM1      64       IM1      C3       CD2R5A   3.068900       11.6110           0   -1.37800   1.30000
      6812 IM1      64       IM1      DC3      DRUD    -2.880900        0.4000           0   0.00000   0.00000
      6813 IM1      64       IM1      H5       HDR5A    0.053000        1.0080           0   0.00000   0.00000
      6814 IM1      64       IM1      C4       CD2R5B   2.404400       11.6110           0   -0.868000   1.30000
      6815 IM1      64       IM1      DC4      DRUD    -2.286400        0.4000           0   0.00000   0.00000
      6816 IM1      64       IM1      H6       HDR5B    0.073000        1.0080           0   0.00000   0.00000
      6817 IM1      64       IM1      N2       ND2R5B   2.249300       13.6070           0   -0.840000   1.00000
      6818 IM1      64       IM1      DN2      DRUD    -2.249300        0.4000           0   0.00000   0.00000
      6819 IM1      64       IM1      H7       HDP1A    0.000000        1.0080           0   0.00000   0.00000
      6820 IM1      64       IM1      LPN21    LPD     -0.474000        0.0000           -1   0.00000   0.00000
      6821 IM1      65       IM1      C1       CD33G    2.390600       11.6110           0   -1.08100   1.00000
      6822 IM1      65       IM1      DC1      DRUD    -2.551600        0.4000           0   0.00000   0.00000
      6823 IM1      65       IM1      H1       HDA3A    0.094000        1.0080           0   0.00000   0.00000
      6824 IM1      65       IM1      H2       HDA3A    0.094000        1.0080           0   0.00000   0.00000
      6825 IM1      65       IM1      H3       HDA3A    0.094000        1.0080           0   0.00000   0.00000
      6826 IM1      65       IM1      N1       ND2R5A   2.670300       13.6070           0   -1.06300   1.30000
      6827 IM1      65       IM1      DN1      DRUD    -2.530300        0.4000           0   0.00000   0.00000
      6828 IM1      65       IM1      C2       CD2R5A   2.511900       11.6110           0   -1.37800   1.30000
      6829 IM1      65       IM1      DC2      DRUD    -2.880900        0.4000           0   0.00000   0.00000
      6830 IM1      65       IM1      H4       HDR5A    0.150000        1.0080           0   0.00000   0.00000
      6831 IM1      65       IM1      C3       CD2R5A   3.068900       11.6110           0   -1.37800   1.30000
      6832 IM1      65       IM1      DC3      DRUD    -2.880900        0.4000           0   0.00000   0.00000
      6833 IM1      65       IM1      H5       HDR5A    0.053000        1.0080           0   0.00000   0.00000
      6834 IM1      65       IM1      C4       CD2R5B   2.404400       11.6110           0   -0.868000   1.30000
      6835 IM1      65       IM1      DC4      DRUD    -2.286400        0.4000           0   0.00000   0.00000
      6836 IM1      65       IM1      H6       HDR5B    0.073000        1.0080           0   0.00000   0.00000
      6837 IM1      65       IM1      N2       ND2R5B   2.249300       13.6070           0   -0.840000   1.00000
      6838 IM1      65       IM1      DN2      DRUD    -2.249300        0.4000           0   0.00000   0.00000
      6839 IM1      65       IM1      H7       HDP1A    0.000000        1.0080           0   0.00000   0.00000
      6840 IM1      65       IM1      LPN21    LPD     -0.474000        0.0000           -1   0.00000   0.00000
      6841 IM1      66       IM1      C1       CD33G    2.390600       11.6110           0   -1.08100   1.00000
      6842 IM1      66       IM1      DC1      DRUD    -2.551600        0.4000           0   0.00000   0.00000
      6843 IM1      66       IM1      H1       HDA3A    0.094000        1.0080           0   0.00000   0.00000
      6844 IM1      66       IM1      H2       HDA3A    0.094000        1.0080           0   0.00000   0.00000
      6845 IM1      66       IM1      H3       HDA3A    0.094000        1.0080           0   0.00000   0.00000
      6846 IM1      66       IM1      N1       ND2R5A   2.670300       13.6070           0   -1.06300   1.30000
      6847 IM1      66       IM1      DN1      DRUD    -2.530300        0.4000           0   0.00000   0.00000
      6848 IM1      66       IM1      C2       CD2R5A   2.511900       11.6110           0   -1.37800   1.30000
      6849 IM1      66       IM1      DC2      DRUD    -2.880900        0.4000           0   0.00000   0.00000
      6850 IM1      66       IM1      H4       HDR5A    0.150000        1.0080           0   0.00000   0.00000
      6851 IM1      66       IM1      C3       CD2R5A   3.068900       11.6110           0   -1.37800   1.30000
      6852 IM1      66       IM1      DC3      DRUD    -2.880900        0.4000           0   0.00000   0.00000
      6853 IM1      66       IM1      H5       HDR5A    0.053000        1.0080           0   0.00000   0.00000
      6854 IM1      66       IM1      C4       CD2R5B   2.404400       11.6110           0   -0.868000   1.30000
      6855 IM1      66       IM1      DC4      DRUD    -2.286400        0.4000           0   0.00000   0.00000
      6856 IM1      66       IM1      H6       HDR5B    0.073000        1.0080           0   0.00000   0.00000
      6857 IM1      66       IM1      N2       ND2R5B   2.249300       13.6070           0   -0.840000   1.00000
      6858 IM1      66       IM1      DN2      DRUD    -2.249300        0.4000           0   0.00000   0.00000
      6859 IM1      66       IM1      H7       HDP1A    0.000000        1.0080           0   0.00000   0.00000
      6860 IM1      66       IM1      LPN21    LPD     -0.474000        0.0000           -1   0.00000   0.00000
      6861 IM1      67       IM1      C1       CD33G    2.390600       11.6110           0   -1.08100   1.00000
      6862 IM1      67       IM1      DC1      DRUD    -2.551600        0.4000           0   0.00000   0.00000
      6863 IM1      67       IM1      H1       HDA3A    0.094000        1.0080           0   0.00000   0.00000
      6864 IM1      67       IM1      H2       HDA3A    0.094000        1.0080           0   0.00000   0.00000
      6865 IM1      67       IM1      H3       HDA3A    0.094000        1.0080           0   0.00000   0.00000
      6866 IM1      67       IM1      N1       ND2R5A   2.670300       13.6070           0   -1.06300   1.30000
      6867 IM1      67       IM1      DN1      DRUD    -2.530300        0.4000           0   0.00000   0.00000
      6868 IM1      67       IM1      C2       CD2R5A   2.511900       11.6110           0   -1.37800   1.30000
      6869 IM1      67       IM1      DC2      DRUD    -2.880900        0.4000           0   0.00000   0.00000
      6870 IM1      67       IM1      H4       HDR5A    0.150000        1.0080           0   0.00000   0.00000
      6871 IM1      67       IM1      C3       CD2R5A   3.068900       11.6110           0   -1.37800   1.30000
      6872 IM1      67       IM1      DC3      DRUD    -2.880900        0.4000           0   0.00000   0.00000
      6873 IM1      67       IM1      H5       HDR5A    0.053000        1.0080           0   0.00000   0.00000
      6874 IM1      67       IM1      C4       CD2R5B   2.404400       11.6110           0   -0.868000   1.30000
      6875 IM1      67       IM1      DC4      DRUD    -2.286400        0.4000           0   0.00000   0.00000
      6876 IM1      67       IM1      H6       HDR5B    0.073000        1.0080           0   0.00000   0.00000
      6877 IM1      67       IM1      N2       ND2R5B   2.249300       13.6070           0   -0.840000   1.00000
      6878 IM1      67       IM1      DN2      DRUD    -2.249300        0.4000           0   0.00000   0.00000
      6879 IM1      67       IM1      H7       HDP1A    0.000000        1.0080           0   0.00000   0.00000
      6880 IM1      67       IM1      LPN21    LPD     -0.474000        0.0000           -1   0.00000   0.00000
      6881 IM1      68       IM1      C1       CD33G    2.390600       11.6110           0   -1.08100   1.00000
      6882 IM1      68       IM1      DC1      DRUD    -2.551600        0.4000           0   0.00000   0.00000
      6883 IM1      68       IM1      H1       HDA3A    0.094000        1.0080           0   0.00000   0.00000
      6884 IM1      68       IM1      H2       HDA3A    0.094000        1.0080           0   0.00000   0.00000
      6885 IM1      68       IM1      H3       HDA3A    0.094000        1.0080           0   0.00000   0.00000
      6886 IM1      68       IM1      N1       ND2R5A   2.670300       13.6070           0   -1.06300   1.30000
      6887 IM1      68       IM1      DN1      DRUD    -2.530300        0.4000           0   0.00000   0.00000
      6888 IM1      68       IM1      C2       CD2R5A   2.511900       11.6110           0   -1.37800   1.30000
      6889 IM1      68       IM1      DC2      DRUD    -2.880900        0.4000           0   0.00000   0.00000
      6890 IM1      68       IM1      H4       HDR5A    0.150000        1.0080           0   0.00000   0.00000
      6891 IM1      68       IM1      C3       CD2R5A   3.068900       11.6110           0   -1.37800   1.30000
      6892 IM1      68       IM1      DC3      DRUD    -2.880900        0.4000           0   0.00000   0.00000
      6893 IM1      68       IM1      H5       HDR5A    0.053000        1.0080           0   0.00000   0.00000
      6894 IM1      68       IM1      C4       CD2R5B   2.404400       11.6110           0   -0.868000   1.30000
      6895 IM1      68       IM1      DC4      DRUD    -2.286400        0.4000           0   0.00000   0.00000
      6896 IM1      68       IM1      H6       HDR5B    0.073000        1.0080           0   0.00000   0.00000
      6897 IM1      68       IM1      N2       ND2R5B   2.249300       13.6070           0   -0.840000   1.00000
      6898 IM1      68       IM1      DN2      DRUD    -2.249300        0.4000           0   0.00000   0.00000
      6899 IM1      68       IM1      H7       HDP1A    0.000000        1.0080           0   0.00000   0.00000
      6900 IM1      68       IM1      LPN21    LPD     -0.474000        0.0000           -1   0.00000   0.00000
      6901 IM1      69       IM1      C1       CD33G    2.390600       11.6110           0   -1.08100   1.00000
      6902 IM1      69       IM1      DC1      DRUD    -2.551600        0.4000           0   0.00000   0.00000
      6903 IM1      69       IM1      H1       HDA3A    0.094000        1.0080           0   0.00000   0.00000
      6904 IM1      69       IM1      H2       HDA3A    0.094000        1.0080           0   0.00000   0.00000
      6905 IM1      69       IM1      H3       HDA3A    0.094000        1.0080           0   0.00000   0.00000
      6906 IM1      69       IM1      N1       ND2R5A   2.670300       13.6070           0   -1.06300   1.30000
      6907 IM1      69       IM1      DN1      DRUD    -2.530300        0.4000           0   0.00000   0.00000
      6908 IM1      69       IM1      C2       CD2R5A   2.511900       11.6110           0   -1.37800   1.30000
      6909 IM1      69       IM1      DC2      DRUD    -2.880900        0.4000           0   0.00000   0.00000
      6910 IM1      69       IM1      H4       HDR5A    0.150000        1.0080           0   0.00000   0.00000
      6911 IM1      69       IM1      C3       CD2R5A   3.068900       11.6110           0   -1.37800   1.30000
      6912 IM1      69       IM1      DC3      DRUD    -2.880900        0.4000           0   0.00000   0.00000
      6913 IM1      69       IM1      H5       HDR5A    0.053000        1.0080           0   0.00000   0.00000
      6914 IM1      69       IM1      C4       CD2R5B   2.404400       11.6110           0   -0.868000   1.30000
      6915 IM1      69       IM1      DC4      DRUD    -2.286400        0.4000           0   0.00000   0.00000
      6916 IM1      69       IM1      H6       HDR5B    0.073000        1.0080           0   0.00000   0.00000
      6917 IM1      69       IM1      N2       ND2R5B   2.249300       13.6070           0   -0.840000   1.00000
      6918 IM1      69       IM1      DN2      DRUD    -2.249300        0.4000           0   0.00000   0.00000
      6919 IM1      69       IM1      H7       HDP1A    0.000000        1.0080           0   0.00000   0.00000
      6920 IM1      69       IM1      LPN21    LPD     -0.474000        0.0000           -1   0.00000   0.00000
      6921 IM1      70       IM1      C1       CD33G    2.390600       11.6110           0   -1.08100   1.00000
      6922 IM1      70       IM1      DC1      DRUD    -2.551600        0.4000           0   0.00000   0.00000
      6923 IM1      70       IM1      H1       HDA3A    0.094000        1.0080           0   0.00000   0.00000
      6924 IM1      70       IM1      H2       HDA3A    0.094000        1.0080           0   0.00000   0.00000
      6925 IM1      70       IM1      H3       HDA3A    0.094000        1.0080           0   0.00000   0.00000
      6926 IM1      70       IM1      N1       ND2R5A   2.670300       13.6070           0   -1.06300   1.30000
      6927 IM1      70       IM1      DN1      DRUD    -2.530300        0.4000           0   0.00000   0.00000
      6928 IM1      70       IM1      C2       CD2R5A   2.511900       11.6110           0   -1.37800   1.30000
      6929 IM1      70       IM1      DC2      DRUD    -2.880900        0.4000           0   0.00000   0.00000
      6930 IM1      70       IM1      H4       HDR5A    0.150000        1.0080           0   0.00000   0.00000
      6931 IM1      70       IM1      C3       CD2R5A   3.068900       11.6110           0   -1.37800   1.30000
      6932 IM1      70       IM1      DC3      DRUD    -2.880900        0.4000           0   0.00000   0.00000
      6933 IM1      70       IM1      H5       HDR5A    0.053000        1.0080           0   0.00000   0.00000
      6934 IM1      70       IM1      C4       CD2R5B   2.404400       11.6110           0   -0.868000   1.30000
      6935 IM1      70       IM1      DC4      DRUD    -2.286400        0.4000           0   0.00000   0.00000
      6936 IM1      70       IM1      H6       HDR5B    0.073000        1.0080           0   0.00000   0.00000
      6937 IM1      70       IM1      N2       ND2R5B   2.249300       13.6070           0   -0.840000   1.00000
      6938 IM1      70       IM1      DN2      DRUD    -2.249300        0.4000           0   0.00000   0.00000
      6939 IM1      70       IM1      H7       HDP1A    0.000000        1.0080           0   0.00000   0.00000
      6940 IM1      70       IM1      LPN21    LPD     -0.474000        0.0000           -1   0.00000   0.00000
      6941 IM1      71       IM1      C1       CD33G    2.390600       11.6110           0   -1.08100   1.00000
      6942 IM1      71       IM1      DC1      DRUD    -2.551600        0.4000           0   0.00000   0.00000
      6943 IM1      71       IM1      H1       HDA3A    0.094000        1.0080           0   0.00000   0.00000
      6944 IM1      71       IM1      H2       HDA3A    0.094000        1.0080           0   0.00000   0.00000
      6945 IM1      71       IM1      H3       HDA3A    0.094000        1.0080           0   0.00000   0.00000
      6946 IM1      71       IM1      N1       ND2R5A   2.670300       13.6070           0   -1.06300   1.30000
      6947 IM1      71       IM1      DN1      DRUD    -2.530300        0.4000           0   0.00000   0.00000
      6948 IM1      71       IM1      C2       CD2R5A   2.511900       11.6110           0   -1.37800   1.30000
      6949 IM1      71       IM1      DC2      DRUD    -2.880900        0.4000           0   0.00000   0.00000
      6950 IM1      71       IM1      H4       HDR5A    0.150000        1.0080           0   0.00000   0.00000
      6951 IM1      71       IM1      C3       CD2R5A   3.068900       11.6110           0   -1.37800   1.30000
      6952 IM1      71       IM1      DC3      DRUD    -2.880900        0.4000           0   0.00000   0.00000
      6953 IM1      71       IM1      H5       HDR5A    0.053000        1.0080           0   0.00000   0.00000
      6954 IM1      71       IM1      C4       CD2R5B   2.404400       11.6110           0   -0.868000   1.30000
      6955 IM1      71       IM1      DC4      DRUD    -2.286400        0.4000           0   0.00000   0.00000
      6956 IM1      71       IM1      H6       HDR5B    0.073000        1.0080           0   0.00000   0.00000
      6957 IM1      71       IM1      N2       ND2R5B   2.249300       13.6070           0   -0.840000   1.00000
      6958 IM1      71       IM1      DN2      DRUD    -2.249300        0.4000           0   0.00000   0.00000
      6959 IM1      71       IM1      H7       HDP1A    0.000000        1.0080           0   0.00000   0.00000
      6960 IM1      71       IM1      LPN21    LPD     -0.474000        0.0000           -1   0.00000   0.00000
      6961 IM1      72       IM1      C1       CD33G    2.390600       11.6110           0   -1.08100   1.00000
      6962 IM1      72       IM1      DC1      DRUD    -2.551600        0.4000           0   0.00000   0.00000
      6963 IM1      72       IM1      H1       HDA3A    0.094000        1.0080           0   0.00000   0.00000
      6964 IM1      72       IM1      H2       HDA3A    0.094000        1.0080           0   0.00000   0.00000
      6965 IM1      72       IM1      H3       HDA3A    0.094000        1.0080           0   0.00000   0.00000
      6966 IM1      72       IM1      N1       ND2R5A   2.670300       13.6070           0   -1.06300   1.30000
      6967 IM1      72       IM1      DN1      DRUD    -2.530300        0.4000           0   0.00000   0.00000
      6968 IM1      72       IM1      C2       CD2R5A   2.511900       11.6110           0   -1.37800   1.30000
      6969 IM1      72       IM1      DC2      DRUD    -2.880900        0.4000           0   0.00000   0.00000
      6970 IM1      72       IM1      H4       HDR5A    0.150000        1.0080           0   0.00000   0.00000
      6971 IM1      72       IM1      C3       CD2R5A   3.068900       11.6110           0   -1.37800   1.30000
      6972 IM1      72       IM1      DC3      DRUD    -2.880900        0.4000           0   0.00000   0.00000
      6973 IM1      72       IM1      H5       HDR5A    0.053000        1.0080           0   0.00000   0.00000
      6974 IM1      72       IM1      C4       CD2R5B   2.404400       11.6110           0   -0.868000   1.30000
      6975 IM1      72       IM1      DC4      DRUD    -2.286400        0.4000           0   0.00000   0.00000
      6976 IM1      72       IM1      H6       HDR5B    0.073000        1.0080           0   0.00000   0.00000
      6977 IM1      72       IM1      N2       ND2R5B   2.249300       13.6070           0   -0.840000   1.00000
      6978 IM1      72       IM1      DN2      DRUD    -2.249300        0.4000           0   0.00000   0.00000
      6979 IM1      72       IM1      H7       HDP1A    0.000000        1.0080           0   0.00000   0.00000
      6980 IM1      72       IM1      LPN21    LPD     -0.474000        0.0000           -1   0.00000   0.00000
      6981 IM1      73       IM1      C1       CD33G    2.390600       11.6110           0   -1.08100   1.00000
      6982 IM1      73       IM1      DC1      DRUD    -2.551600        0.4000           0   0.00000   0.00000
      6983 IM1      73       IM1      H1       HDA3A    0.094000        1.0080           0   0.00000   0.00000
      6984 IM1      73       IM1      H2       HDA3A    0.094000        1.0080           0   0.00000   0.00000
      6985 IM1      73       IM1      H3       HDA3A    0.094000        1.0080           0   0.00000   0.00000
      6986 IM1      73       IM1      N1       ND2R5A   2.670300       13.6070           0   -1.06300   1.30000
      6987 IM1      73       IM1      DN1      DRUD    -2.530300        0.4000           0   0.00000   0.00000
      6988 IM1      73       IM1      C2       CD2R5A   2.511900       11.6110           0   -1.37800   1.30000
      6989 IM1      73       IM1      DC2      DRUD    -2.880900        0.4000           0   0.00000   0.00000
      6990 IM1      73       IM1      H4       HDR5A    0.150000        1.0080           0   0.00000   0.00000
      6991 IM1      73       IM1      C3       CD2R5A   3.068900       11.6110           0   -1.37800   1.30000
      6992 IM1      73       IM1      DC3      DRUD    -2.880900        0.4000           0   0.00000   0.00000
      6993 IM1      73       IM1      H5       HDR5A    0.053000        1.0080           0   0.00000   0.00000
      6994 IM1      73       IM1      C4       CD2R5B   2.404400       11.6110           0   -0.868000   1.30000
      6995 IM1      73       IM1      DC4      DRUD    -2.286400        0.4000           0   0.00000   0.00000
      6996 IM1      73       IM1      H6       HDR5B    0.073000        1.0080           0   0.00000   0.00000
      6997 IM1      73       IM1      N2       ND2R5B   2.249300       13.6070           0   -0.840000   1.00000
      6998 IM1      73       IM1      DN2      DRUD    -2.249300        0.4000           0   0.00000   0.00000
      6999 IM1      73       IM1      H7       HDP1A    0.000000        1.0080           0   0.00000   0.00000
      7000 IM1      73       IM1      LPN21    LPD     -0.474000        0.0000           -1   0.00000   0.00000
      7001 IM1      74       IM1      C1       CD33G    2.390600       11.6110           0   -1.08100   1.00000
      7002 IM1      74       IM1      DC1      DRUD    -2.551600        0.4000           0   0.00000   0.00000
      7003 IM1      74       IM1      H1       HDA3A    0.094000        1.0080           0   0.00000   0.00000
      7004 IM1      74       IM1      H2       HDA3A    0.094000        1.0080           0   0.00000   0.00000
      7005 IM1      74       IM1      H3       HDA3A    0.094000        1.0080           0   0.00000   0.00000
      7006 IM1      74       IM1      N1       ND2R5A   2.670300       13.6070           0   -1.06300   1.30000
      7007 IM1      74       IM1      DN1      DRUD    -2.530300        0.4000           0   0.00000   0.00000
      7008 IM1      74       IM1      C2       CD2R5A   2.511900       11.6110           0   -1.37800   1.30000
      7009 IM1      74       IM1      DC2      DRUD    -2.880900        0.4000           0   0.00000   0.00000
      7010 IM1      74       IM1      H4       HDR5A    0.150000        1.0080           0   0.00000   0.00000
      7011 IM1      74       IM1      C3       CD2R5A   3.068900       11.6110           0   -1.37800   1.30000
      7012 IM1      74       IM1      DC3      DRUD    -2.880900        0.4000           0   0.00000   0.00000
      7013 IM1      74       IM1      H5       HDR5A    0.053000        1.0080           0   0.00000   0.00000
      7014 IM1      74       IM1      C4       CD2R5B   2.404400       11.6110           0   -0.868000   1.30000
      7015 IM1      74       IM1      DC4      DRUD    -2.286400        0.4000           0   0.00000   0.00000
      7016 IM1      74       IM1      H6       HDR5B    0.073000        1.0080           0   0.00000   0.00000
      7017 IM1      74       IM1      N2       ND2R5B   2.249300       13.6070           0   -0.840000   1.00000
      7018 IM1      74       IM1      DN2      DRUD    -2.249300        0.4000           0   0.00000   0.00000
      7019 IM1      74       IM1      H7       HDP1A    0.000000        1.0080           0   0.00000   0.00000
      7020 IM1      74       IM1      LPN21    LPD     -0.474000        0.0000           -1   0.00000   0.00000
      7021 IM1      75       IM1      C1       CD33G    2.390600       11.6110           0   -1.08100   1.00000
      7022 IM1      75       IM1      DC1      DRUD    -2.551600        0.4000           0   0.00000   0.00000
      7023 IM1      75       IM1      H1       HDA3A    0.094000        1.0080           0   0.00000   0.00000
      7024 IM1      75       IM1      H2       HDA3A    0.094000        1.0080           0   0.00000   0.00000
      7025 IM1      75       IM1      H3       HDA3A    0.094000        1.0080           0   0.00000   0.00000
      7026 IM1      75       IM1      N1       ND2R5A   2.670300       13.6070           0   -1.06300   1.30000
      7027 IM1      75       IM1      DN1      DRUD    -2.530300        0.4000           0   0.00000   0.00000
      7028 IM1      75       IM1      C2       CD2R5A   2.511900       11.6110           0   -1.37800   1.30000
      7029 IM1      75       IM1      DC2      DRUD    -2.880900        0.4000           0   0.00000   0.00000
      7030 IM1      75       IM1      H4       HDR5A    0.150000        1.0080           0   0.00000   0.00000
      7031 IM1      75       IM1      C3       CD2R5A   3.068900       11.6110           0   -1.37800   1.30000
      7032 IM1      75       IM1      DC3      DRUD    -2.880900        0.4000           0   0.00000   0.00000
      7033 IM1      75       IM1      H5       HDR5A    0.053000        1.0080           0   0.00000   0.00000
      7034 IM1      75       IM1      C4       CD2R5B   2.404400       11.6110           0   -0.868000   1.30000
      7035 IM1      75       IM1      DC4      DRUD    -2.286400        0.4000           0   0.00000   0.00000
      7036 IM1      75       IM1      H6       HDR5B    0.073000        1.0080           0   0.00000   0.00000
      7037 IM1      75       IM1      N2       ND2R5B   2.249300       13.6070           0   -0.840000   1.00000
      7038 IM1      75       IM1      DN2      DRUD    -2.249300        0.4000           0   0.00000   0.00000
      7039 IM1      75       IM1      H7       HDP1A    0.000000        1.0080           0   0.00000   0.00000
      7040 IM1      75       IM1      LPN21    LPD     -0.474000        0.0000           -1   0.00000   0.00000
      7041 IM1      76       IM1      C1       CD33G    2.390600       11.6110           0   -1.08100   1.00000
      7042 IM1      76       IM1      DC1      DRUD    -2.551600        0.4000           0   0.00000   0.00000
      7043 IM1      76       IM1      H1       HDA3A    0.094000        1.0080           0   0.00000   0.00000
      7044 IM1      76       IM1      H2       HDA3A    0.094000        1.0080           0   0.00000   0.00000
      7045 IM1      76       IM1      H3       HDA3A    0.094000        1.0080           0   0.00000   0.00000
      7046 IM1      76       IM1      N1       ND2R5A   2.670300       13.6070           0   -1.06300   1.30000
      7047 IM1      76       IM1      DN1      DRUD    -2.530300        0.4000           0   0.00000   0.00000
      7048 IM1      76       IM1      C2       CD2R5A   2.511900       11.6110           0   -1.37800   1.30000
      7049 IM1      76       IM1      DC2      DRUD    -2.880900        0.4000           0   0.00000   0.00000
      7050 IM1      76       IM1      H4       HDR5A    0.150000        1.0080           0   0.00000   0.00000
      7051 IM1      76       IM1      C3       CD2R5A   3.068900       11.6110           0   -1.37800   1.30000
      7052 IM1      76       IM1      DC3      DRUD    -2.880900        0.4000           0   0.00000   0.00000
      7053 IM1      76       IM1      H5       HDR5A    0.053000        1.0080           0   0.00000   0.00000
      7054 IM1      76       IM1      C4       CD2R5B   2.404400       11.6110           0   -0.868000   1.30000
      7055 IM1      76       IM1      DC4      DRUD    -2.286400        0.4000           0   0.00000   0.00000
      7056 IM1      76       IM1      H6       HDR5B    0.073000        1.0080           0   0.00000   0.00000
      7057 IM1      76       IM1      N2       ND2R5B   2.249300       13.6070           0   -0.840000   1.00000
      7058 IM1      76       IM1      DN2      DRUD    -2.249300        0.4000           0   0.00000   0.00000
      7059 IM1      76       IM1      H7       HDP1A    0.000000        1.0080           0   0.00000   0.00000
      7060 IM1      76       IM1      LPN21    LPD     -0.474000        0.0000           -1   0.00000   0.00000
      7061 IM1      77       IM1      C1       CD33G    2.390600       11.6110           0   -1.08100   1.00000
      7062 IM1      77       IM1      DC1      DRUD    -2.551600        0.4000           0   0.00000   0.00000
      7063 IM1      77       IM1      H1       HDA3A    0.094000        1.0080           0   0.00000   0.00000
      7064 IM1      77       IM1      H2       HDA3A    0.094000        1.0080           0   0.00000   0.00000
      7065 IM1      77       IM1      H3       HDA3A    0.094000        1.0080           0   0.00000   0.00000
      7066 IM1      77       IM1      N1       ND2R5A   2.670300       13.6070           0   -1.06300   1.30000
      7067 IM1      77       IM1      DN1      DRUD    -2.530300        0.4000           0   0.00000   0.00000
      7068 IM1      77       IM1      C2       CD2R5A   2.511900       11.6110           0   -1.37800   1.30000
      7069 IM1      77       IM1      DC2      DRUD    -2.880900        0.4000           0   0.00000   0.00000
      7070 IM1      77       IM1      H4       HDR5A    0.150000        1.0080           0   0.00000   0.00000
      7071 IM1      77       IM1      C3       CD2R5A   3.068900       11.6110           0   -1.37800   1.30000
      7072 IM1      77       IM1      DC3      DRUD    -2.880900        0.4000           0   0.00000   0.00000
      7073 IM1      77       IM1      H5       HDR5A    0.053000        1.0080           0   0.00000   0.00000
      7074 IM1      77       IM1      C4       CD2R5B   2.404400       11.6110           0   -0.868000   1.30000
      7075 IM1      77       IM1      DC4      DRUD    -2.286400        0.4000           0   0.00000   0.00000
      7076 IM1      77       IM1      H6       HDR5B    0.073000        1.0080           0   0.00000   0.00000
      7077 IM1      77       IM1      N2       ND2R5B   2.249300       13.6070           0   -0.840000   1.00000
      7078 IM1      77       IM1      DN2      DRUD    -2.249300        0.4000           0   0.00000   0.00000
      7079 IM1      77       IM1      H7       HDP1A    0.000000        1.0080           0   0.00000   0.00000
      7080 IM1      77       IM1      LPN21    LPD     -0.474000        0.0000           -1   0.00000   0.00000
      7081 IM1      78       IM1      C1       CD33G    2.390600       11.6110           0   -1.08100   1.00000
      7082 IM1      78       IM1      DC1      DRUD    -2.551600        0.4000           0   0.00000   0.00000
      7083 IM1      78       IM1      H1       HDA3A    0.094000        1.0080           0   0.00000   0.00000
      7084 IM1      78       IM1      H2       HDA3A    0.094000        1.0080           0   0.00000   0.00000
      7085 IM1      78       IM1      H3       HDA3A    0.094000        1.0080           0   0.00000   0.00000
      7086 IM1      78       IM1      N1       ND2R5A   2.670300       13.6070           0   -1.06300   1.30000
      7087 IM1      78       IM1      DN1      DRUD    -2.530300        0.4000           0   0.00000   0.00000
      7088 IM1      78       IM1      C2       CD2R5A   2.511900       11.6110           0   -1.37800   1.30000
      7089 IM1      78       IM1      DC2      DRUD    -2.880900        0.4000           0   0.00000   0.00000
      7090 IM1      78       IM1      H4       HDR5A    0.150000        1.0080           0   0.00000   0.00000
      7091 IM1      78       IM1      C3       CD2R5A   3.068900       11.6110           0   -1.37800   1.30000
      7092 IM1      78       IM1      DC3      DRUD    -2.880900        0.4000           0   0.00000   0.00000
      7093 IM1      78       IM1      H5       HDR5A    0.053000        1.0080           0   0.00000   0.00000
      7094 IM1      78       IM1      C4       CD2R5B   2.404400       11.6110           0   -0.868000   1.30000
      7095 IM1      78       IM1      DC4      DRUD    -2.286400        0.4000           0   0.00000   0.00000
      7096 IM1      78       IM1      H6       HDR5B    0.073000        1.0080           0   0.00000   0.00000
      7097 IM1      78       IM1      N2       ND2R5B   2.249300       13.6070           0   -0.840000   1.00000
      7098 IM1      78       IM1      DN2      DRUD    -2.249300        0.4000           0   0.00000   0.00000
      7099 IM1      78       IM1      H7       HDP1A    0.000000        1.0080           0   0.00000   0.00000
      7100 IM1      78       IM1      LPN21    LPD     -0.474000        0.0000           -1   0.00000   0.00000
      7101 IM1      79       IM1      C1       CD33G    2.390600       11.6110           0   -1.08100   1.00000
      7102 IM1      79       IM1      DC1      DRUD    -2.551600        0.4000           0   0.00000   0.00000
      7103 IM1      79       IM1      H1       HDA3A    0.094000        1.0080           0   0.00000   0.00000
      7104 IM1      79       IM1      H2       HDA3A    0.094000        1.0080           0   0.00000   0.00000
      7105 IM1      79       IM1      H3       HDA3A    0.094000        1.0080           0   0.00000   0.00000
      7106 IM1      79       IM1      N1       ND2R5A   2.670300       13.6070           0   -1.06300   1.30000
      7107 IM1      79       IM1      DN1      DRUD    -2.530300        0.4000           0   0.00000   0.00000
      7108 IM1      79       IM1      C2       CD2R5A   2.511900       11.6110           0   -1.37800   1.30000
      7109 IM1      79       IM1      DC2      DRUD    -2.880900        0.4000           0   0.00000   0.00000
      7110 IM1      79       IM1      H4       HDR5A    0.150000        1.0080           0   0.00000   0.00000
      7111 IM1      79       IM1      C3       CD2R5A   3.068900       11.6110           0   -1.37800   1.30000
      7112 IM1      79       IM1      DC3      DRUD    -2.880900        0.4000           0   0.00000   0.00000
      7113 IM1      79       IM1      H5       HDR5A    0.053000        1.0080           0   0.00000   0.00000
      7114 IM1      79       IM1      C4       CD2R5B   2.404400       11.6110           0   -0.868000   1.30000
      7115 IM1      79       IM1      DC4      DRUD    -2.286400        0.4000           0   0.00000   0.00000
      7116 IM1      79       IM1      H6       HDR5B    0.073000        1.0080           0   0.00000   0.00000
      7117 IM1      79       IM1      N2       ND2R5B   2.249300       13.6070           0   -0.840000   1.00000
      7118 IM1      79       IM1      DN2      DRUD    -2.249300        0.4000           0   0.00000   0.00000
      7119 IM1      79       IM1      H7       HDP1A    0.000000        1.0080           0   0.00000   0.00000
      7120 IM1      79       IM1      LPN21    LPD     -0.474000        0.0000           -1   0.00000   0.00000
      7121 IM1      80       IM1      C1       CD33G    2.390600       11.6110           0   -1.08100   1.00000
      7122 IM1      80       IM1      DC1      DRUD    -2.551600        0.4000           0   0.00000   0.00000
      7123 IM1      80       IM1      H1       HDA3A    0.094000        1.0080           0   0.00000   0.00000
      7124 IM1      80       IM1      H2       HDA3A    0.094000        1.0080           0   0.00000   0.00000
      7125 IM1      80       IM1      H3       HDA3A    0.094000        1.0080           0   0.00000   0.00000
      7126 IM1      80       IM1      N1       ND2R5A   2.670300       13.6070           0   -1.06300   1.30000
      7127 IM1      80       IM1      DN1      DRUD    -2.530300        0.4000           0   0.00000   0.00000
      7128 IM1      80       IM1      C2       CD2R5A   2.511900       11.6110           0   -1.37800   1.30000
      7129 IM1      80       IM1      DC2      DRUD    -2.880900        0.4000           0   0.00000   0.00000
      7130 IM1      80       IM1      H4       HDR5A    0.150000        1.0080           0   0.00000   0.00000
      7131 IM1      80       IM1      C3       CD2R5A   3.068900       11.6110           0   -1.37800   1.30000
      7132 IM1      80       IM1      DC3      DRUD    -2.880900        0.4000           0   0.00000   0.00000
      7133 IM1      80       IM1      H5       HDR5A    0.053000        1.0080           0   0.00000   0.00000
      7134 IM1      80       IM1      C4       CD2R5B   2.404400       11.6110           0   -0.868000   1.30000
      7135 IM1      80       IM1      DC4      DRUD    -2.286400        0.4000           0   0.00000   0.00000
      7136 IM1      80       IM1      H6       HDR5B    0.073000        1.0080           0   0.00000   0.00000
      7137 IM1      80       IM1      N2       ND2R5B   2.249300       13.6070           0   -0.840000   1.00000
      7138 IM1      80       IM1      DN2      DRUD    -2.249300        0.4000           0   0.00000   0.00000
      7139 IM1      80       IM1      H7       HDP1A    0.000000        1.0080           0   0.00000   0.00000
      7140 IM1      80       IM1      LPN21    LPD     -0.474000        0.0000           -1   0.00000   0.00000
      7141 IM1      81       IM1      C1       CD33G    2.390600       11.6110           0   -1.08100   1.00000
      7142 IM1      81       IM1      DC1      DRUD    -2.551600        0.4000           0   0.00000   0.00000
      7143 IM1      81       IM1      H1       HDA3A    0.094000        1.0080           0   0.00000   0.00000
      7144 IM1      81       IM1      H2       HDA3A    0.094000        1.0080           0   0.00000   0.00000
      7145 IM1      81       IM1      H3       HDA3A    0.094000        1.0080           0   0.00000   0.00000
      7146 IM1      81       IM1      N1       ND2R5A   2.670300       13.6070           0   -1.06300   1.30000
      7147 IM1      81       IM1      DN1      DRUD    -2.530300        0.4000           0   0.00000   0.00000
      7148 IM1      81       IM1      C2       CD2R5A   2.511900       11.6110           0   -1.37800   1.30000
      7149 IM1      81       IM1      DC2      DRUD    -2.880900        0.4000           0   0.00000   0.00000
      7150 IM1      81       IM1      H4       HDR5A    0.150000        1.0080           0   0.00000   0.00000
      7151 IM1      81       IM1      C3       CD2R5A   3.068900       11.6110           0   -1.37800   1.30000
      7152 IM1      81       IM1      DC3      DRUD    -2.880900        0.4000           0   0.00000   0.00000
      7153 IM1      81       IM1      H5       HDR5A    0.053000        1.0080           0   0.00000   0.00000
      7154 IM1      81       IM1      C4       CD2R5B   2.404400       11.6110           0   -0.868000   1.30000
      7155 IM1      81       IM1      DC4      DRUD    -2.286400        0.4000           0   0.00000   0.00000
      7156 IM1      81       IM1      H6       HDR5B    0.073000        1.0080           0   0.00000   0.00000
      7157 IM1      81       IM1      N2       ND2R5B   2.249300       13.6070           0   -0.840000   1.00000
      7158 IM1      81       IM1      DN2      DRUD    -2.249300        0.4000           0   0.00000   0.00000
      7159 IM1      81       IM1      H7       HDP1A    0.000000        1.0080           0   0.00000   0.00000
      7160 IM1      81       IM1      LPN21    LPD     -0.474000        0.0000           -1   0.00000   0.00000
      7161 IM1      82       IM1      C1       CD33G    2.390600       11.6110           0   -1.08100   1.00000
      7162 IM1      82       IM1      DC1      DRUD    -2.551600        0.4000           0   0.00000   0.00000
      7163 IM1      82       IM1      H1       HDA3A    0.094000        1.0080           0   0.00000   0.00000
      7164 IM1      82       IM1      H2       HDA3A    0.094000        1.0080           0   0.00000   0.00000
      7165 IM1      82       IM1      H3       HDA3A    0.094000        1.0080           0   0.00000   0.00000
      7166 IM1      82       IM1      N1       ND2R5A   2.670300       13.6070           0   -1.06300   1.30000
      7167 IM1      82       IM1      DN1      DRUD    -2.530300        0.4000           0   0.00000   0.00000
      7168 IM1      82       IM1      C2       CD2R5A   2.511900       11.6110           0   -1.37800   1.30000
      7169 IM1      82       IM1      DC2      DRUD    -2.880900        0.4000           0   0.00000   0.00000
      7170 IM1      82       IM1      H4       HDR5A    0.150000        1.0080           0   0.00000   0.00000
      7171 IM1      82       IM1      C3       CD2R5A   3.068900       11.6110           0   -1.37800   1.30000
      7172 IM1      82       IM1      DC3      DRUD    -2.880900        0.4000           0   0.00000   0.00000
      7173 IM1      82       IM1      H5       HDR5A    0.053000        1.0080           0   0.00000   0.00000
      7174 IM1      82       IM1      C4       CD2R5B   2.404400       11.6110           0   -0.868000   1.30000
      7175 IM1      82       IM1      DC4      DRUD    -2.286400        0.4000           0   0.00000   0.00000
      7176 IM1      82       IM1      H6       HDR5B    0.073000        1.0080           0   0.00000   0.00000
      7177 IM1      82       IM1      N2       ND2R5B   2.249300       13.6070           0   -0.840000   1.00000
      7178 IM1      82       IM1      DN2      DRUD    -2.249300        0.4000           0   0.00000   0.00000
      7179 IM1      82       IM1      H7       HDP1A    0.000000        1.0080           0   0.00000   0.00000
      7180 IM1      82       IM1      LPN21    LPD     -0.474000        0.0000           -1   0.00000   0.00000
      7181 IM1      83       IM1      C1       CD33G    2.390600       11.6110           0   -1.08100   1.00000
      7182 IM1      83       IM1      DC1      DRUD    -2.551600        0.4000           0   0.00000   0.00000
      7183 IM1      83       IM1      H1       HDA3A    0.094000        1.0080           0   0.00000   0.00000
      7184 IM1      83       IM1      H2       HDA3A    0.094000        1.0080           0   0.00000   0.00000
      7185 IM1      83       IM1      H3       HDA3A    0.094000        1.0080           0   0.00000   0.00000
      7186 IM1      83       IM1      N1       ND2R5A   2.670300       13.6070           0   -1.06300   1.30000
      7187 IM1      83       IM1      DN1      DRUD    -2.530300        0.4000           0   0.00000   0.00000
      7188 IM1      83       IM1      C2       CD2R5A   2.511900       11.6110           0   -1.37800   1.30000
      7189 IM1      83       IM1      DC2      DRUD    -2.880900        0.4000           0   0.00000   0.00000
      7190 IM1      83       IM1      H4       HDR5A    0.150000        1.0080           0   0.00000   0.00000
      7191 IM1      83       IM1      C3       CD2R5A   3.068900       11.6110           0   -1.37800   1.30000
      7192 IM1      83       IM1      DC3      DRUD    -2.880900        0.4000           0   0.00000   0.00000
      7193 IM1      83       IM1      H5       HDR5A    0.053000        1.0080           0   0.00000   0.00000
      7194 IM1      83       IM1      C4       CD2R5B   2.404400       11.6110           0   -0.868000   1.30000
      7195 IM1      83       IM1      DC4      DRUD    -2.286400        0.4000           0   0.00000   0.00000
      7196 IM1      83       IM1      H6       HDR5B    0.073000        1.0080           0   0.00000   0.00000
      7197 IM1      83       IM1      N2       ND2R5B   2.249300       13.6070           0   -0.840000   1.00000
      7198 IM1      83       IM1      DN2      DRUD    -2.249300        0.4000           0   0.00000   0.00000
      7199 IM1      83       IM1      H7       HDP1A    0.000000        1.0080           0   0.00000   0.00000
      7200 IM1      83       IM1      LPN21    LPD     -0.474000        0.0000           -1   0.00000   0.00000
      7201 IM1      84       IM1      C1       CD33G    2.390600       11.6110           0   -1.08100   1.00000
      7202 IM1      84       IM1      DC1      DRUD    -2.551600        0.4000           0   0.00000   0.00000
      7203 IM1      84       IM1      H1       HDA3A    0.094000        1.0080           0   0.00000   0.00000
      7204 IM1      84       IM1      H2       HDA3A    0.094000        1.0080           0   0.00000   0.00000
      7205 IM1      84       IM1      H3       HDA3A    0.094000        1.0080           0   0.00000   0.00000
      7206 IM1      84       IM1      N1       ND2R5A   2.670300       13.6070           0   -1.06300   1.30000
      7207 IM1      84       IM1      DN1      DRUD    -2.530300        0.4000           0   0.00000   0.00000
      7208 IM1      84       IM1      C2       CD2R5A   2.511900       11.6110           0   -1.37800   1.30000
      7209 IM1      84       IM1      DC2      DRUD    -2.880900        0.4000           0   0.00000   0.00000
      7210 IM1      84       IM1      H4       HDR5A    0.150000        1.0080           0   0.00000   0.00000
      7211 IM1      84       IM1      C3       CD2R5A   3.068900       11.6110           0   -1.37800   1.30000
      7212 IM1      84       IM1      DC3      DRUD    -2.880900        0.4000           0   0.00000   0.00000
      7213 IM1      84       IM1      H5       HDR5A    0.053000        1.0080           0   0.00000   0.00000
      7214 IM1      84       IM1      C4       CD2R5B   2.404400       11.6110           0   -0.868000   1.30000
      7215 IM1      84       IM1      DC4      DRUD    -2.286400        0.4000           0   0.00000   0.00000
      7216 IM1      84       IM1      H6       HDR5B    0.073000        1.0080           0   0.00000   0.00000
      7217 IM1      84       IM1      N2       ND2R5B   2.249300       13.6070           0   -0.840000   1.00000
      7218 IM1      84       IM1      DN2      DRUD    -2.249300        0.4000           0   0.00000   0.00000
      7219 IM1      84       IM1      H7       HDP1A    0.000000        1.0080           0   0.00000   0.00000
      7220 IM1      84       IM1      LPN21    LPD     -0.474000        0.0000           -1   0.00000   0.00000
      7221 IM1      85       IM1      C1       CD33G    2.390600       11.6110           0   -1.08100   1.00000
      7222 IM1      85       IM1      DC1      DRUD    -2.551600        0.4000           0   0.00000   0.00000
      7223 IM1      85       IM1      H1       HDA3A    0.094000        1.0080           0   0.00000   0.00000
      7224 IM1      85       IM1      H2       HDA3A    0.094000        1.0080           0   0.00000   0.00000
      7225 IM1      85       IM1      H3       HDA3A    0.094000        1.0080           0   0.00000   0.00000
      7226 IM1      85       IM1      N1       ND2R5A   2.670300       13.6070           0   -1.06300   1.30000
      7227 IM1      85       IM1      DN1      DRUD    -2.530300        0.4000           0   0.00000   0.00000
      7228 IM1      85       IM1      C2       CD2R5A   2.511900       11.6110           0   -1.37800   1.30000
      7229 IM1      85       IM1      DC2      DRUD    -2.880900        0.4000           0   0.00000   0.00000
      7230 IM1      85       IM1      H4       HDR5A    0.150000        1.0080           0   0.00000   0.00000
      7231 IM1      85       IM1      C3       CD2R5A   3.068900       11.6110           0   -1.37800   1.30000
      7232 IM1      85       IM1      DC3      DRUD    -2.880900        0.4000           0   0.00000   0.00000
      7233 IM1      85       IM1      H5       HDR5A    0.053000        1.0080           0   0.00000   0.00000
      7234 IM1      85       IM1      C4       CD2R5B   2.404400       11.6110           0   -0.868000   1.30000
      7235 IM1      85       IM1      DC4      DRUD    -2.286400        0.4000           0   0.00000   0.00000
      7236 IM1      85       IM1      H6       HDR5B    0.073000        1.0080           0   0.00000   0.00000
      7237 IM1      85       IM1      N2       ND2R5B   2.249300       13.6070           0   -0.840000   1.00000
      7238 IM1      85       IM1      DN2      DRUD    -2.249300        0.4000           0   0.00000   0.00000
      7239 IM1      85       IM1      H7       HDP1A    0.000000        1.0080           0   0.00000   0.00000
      7240 IM1      85       IM1      LPN21    LPD     -0.474000        0.0000           -1   0.00000   0.00000
      7241 IM1      86       IM1      C1       CD33G    2.390600       11.6110           0   -1.08100   1.00000
      7242 IM1      86       IM1      DC1      DRUD    -2.551600        0.4000           0   0.00000   0.00000
      7243 IM1      86       IM1      H1       HDA3A    0.094000        1.0080           0   0.00000   0.00000
      7244 IM1      86       IM1      H2       HDA3A    0.094000        1.0080           0   0.00000   0.00000
      7245 IM1      86       IM1      H3       HDA3A    0.094000        1.0080           0   0.00000   0.00000
      7246 IM1      86       IM1      N1       ND2R5A   2.670300       13.6070           0   -1.06300   1.30000
      7247 IM1      86       IM1      DN1      DRUD    -2.530300        0.4000           0   0.00000   0.00000
      7248 IM1      86       IM1      C2       CD2R5A   2.511900       11.6110           0   -1.37800   1.30000
      7249 IM1      86       IM1      DC2      DRUD    -2.880900        0.4000           0   0.00000   0.00000
      7250 IM1      86       IM1      H4       HDR5A    0.150000        1.0080           0   0.00000   0.00000
      7251 IM1      86       IM1      C3       CD2R5A   3.068900       11.6110           0   -1.37800   1.30000
      7252 IM1      86       IM1      DC3      DRUD    -2.880900        0.4000           0   0.00000   0.00000
      7253 IM1      86       IM1      H5       HDR5A    0.053000        1.0080           0   0.00000   0.00000
      7254 IM1      86       IM1      C4       CD2R5B   2.404400       11.6110           0   -0.868000   1.30000
      7255 IM1      86       IM1      DC4      DRUD    -2.286400        0.4000           0   0.00000   0.00000
      7256 IM1      86       IM1      H6       HDR5B    0.073000        1.0080           0   0.00000   0.00000
      7257 IM1      86       IM1      N2       ND2R5B   2.249300       13.6070           0   -0.840000   1.00000
      7258 IM1      86       IM1      DN2      DRUD    -2.249300        0.4000           0   0.00000   0.00000
      7259 IM1      86       IM1      H7       HDP1A    0.000000        1.0080           0   0.00000   0.00000
      7260 IM1      86       IM1      LPN21    LPD     -0.474000        0.0000           -1   0.00000   0.00000
      7261 IM1      87       IM1      C1       CD33G    2.390600       11.6110           0   -1.08100   1.00000
      7262 IM1      87       IM1      DC1      DRUD    -2.551600        0.4000           0   0.00000   0.00000
      7263 IM1      87       IM1      H1       HDA3A    0.094000        1.0080           0   0.00000   0.00000
      7264 IM1      87       IM1      H2       HDA3A    0.094000        1.0080           0   0.00000   0.00000
      7265 IM1      87       IM1      H3       HDA3A    0.094000        1.0080           0   0.00000   0.00000
      7266 IM1      87       IM1      N1       ND2R5A   2.670300       13.6070           0   -1.06300   1.30000
      7267 IM1      87       IM1      DN1      DRUD    -2.530300        0.4000           0   0.00000   0.00000
      7268 IM1      87       IM1      C2       CD2R5A   2.511900       11.6110           0   -1.37800   1.30000
      7269 IM1      87       IM1      DC2      DRUD    -2.880900        0.4000           0   0.00000   0.00000
      7270 IM1      87       IM1      H4       HDR5A    0.150000        1.0080           0   0.00000   0.00000
      7271 IM1      87       IM1      C3       CD2R5A   3.068900       11.6110           0   -1.37800   1.30000
      7272 IM1      87       IM1      DC3      DRUD    -2.880900        0.4000           0   0.00000   0.00000
      7273 IM1      87       IM1      H5       HDR5A    0.053000        1.0080           0   0.00000   0.00000
      7274 IM1      87       IM1      C4       CD2R5B   2.404400       11.6110           0   -0.868000   1.30000
      7275 IM1      87       IM1      DC4      DRUD    -2.286400        0.4000           0   0.00000   0.00000
      7276 IM1      87       IM1      H6       HDR5B    0.073000        1.0080           0   0.00000   0.00000
      7277 IM1      87       IM1      N2       ND2R5B   2.249300       13.6070           0   -0.840000   1.00000
      7278 IM1      87       IM1      DN2      DRUD    -2.249300        0.4000           0   0.00000   0.00000
      7279 IM1      87       IM1      H7       HDP1A    0.000000        1.0080           0   0.00000   0.00000
      7280 IM1      87       IM1      LPN21    LPD     -0.474000        0.0000           -1   0.00000   0.00000
      7281 IM1      88       IM1      C1       CD33G    2.390600       11.6110           0   -1.08100   1.00000
      7282 IM1      88       IM1      DC1      DRUD    -2.551600        0.4000           0   0.00000   0.00000
      7283 IM1      88       IM1      H1       HDA3A    0.094000        1.0080           0   0.00000   0.00000
      7284 IM1      88       IM1      H2       HDA3A    0.094000        1.0080           0   0.00000   0.00000
      7285 IM1      88       IM1      H3       HDA3A    0.094000        1.0080           0   0.00000   0.00000
      7286 IM1      88       IM1      N1       ND2R5A   2.670300       13.6070           0   -1.06300   1.30000
      7287 IM1      88       IM1      DN1      DRUD    -2.530300        0.4000           0   0.00000   0.00000
      7288 IM1      88       IM1      C2       CD2R5A   2.511900       11.6110           0   -1.37800   1.30000
      7289 IM1      88       IM1      DC2      DRUD    -2.880900        0.4000           0   0.00000   0.00000
      7290 IM1      88       IM1      H4       HDR5A    0.150000        1.0080           0   0.00000   0.00000
      7291 IM1      88       IM1      C3       CD2R5A   3.068900       11.6110           0   -1.37800   1.30000
      7292 IM1      88       IM1      DC3      DRUD    -2.880900        0.4000           0   0.00000   0.00000
      7293 IM1      88       IM1      H5       HDR5A    0.053000        1.0080           0   0.00000   0.00000
      7294 IM1      88       IM1      C4       CD2R5B   2.404400       11.6110           0   -0.868000   1.30000
      7295 IM1      88       IM1      DC4      DRUD    -2.286400        0.4000           0   0.00000   0.00000
      7296 IM1      88       IM1      H6       HDR5B    0.073000        1.0080           0   0.00000   0.00000
      7297 IM1      88       IM1      N2       ND2R5B   2.249300       13.6070           0   -0.840000   1.00000
      7298 IM1      88       IM1      DN2      DRUD    -2.249300        0.4000           0   0.00000   0.00000
      7299 IM1      88       IM1      H7       HDP1A    0.000000        1.0080           0   0.00000   0.00000
      7300 IM1      88       IM1      LPN21    LPD     -0.474000        0.0000           -1   0.00000   0.00000
      7301 IM1      89       IM1      C1       CD33G    2.390600       11.6110           0   -1.08100   1.00000
      7302 IM1      89       IM1      DC1      DRUD    -2.551600        0.4000           0   0.00000   0.00000
      7303 IM1      89       IM1      H1       HDA3A    0.094000        1.0080           0   0.00000   0.00000
      7304 IM1      89       IM1      H2       HDA3A    0.094000        1.0080           0   0.00000   0.00000
      7305 IM1      89       IM1      H3       HDA3A    0.094000        1.0080           0   0.00000   0.00000
      7306 IM1      89       IM1      N1       ND2R5A   2.670300       13.6070           0   -1.06300   1.30000
      7307 IM1      89       IM1      DN1      DRUD    -2.530300        0.4000           0   0.00000   0.00000
      7308 IM1      89       IM1      C2       CD2R5A   2.511900       11.6110           0   -1.37800   1.30000
      7309 IM1      89       IM1      DC2      DRUD    -2.880900        0.4000           0   0.00000   0.00000
      7310 IM1      89       IM1      H4       HDR5A    0.150000        1.0080           0   0.00000   0.00000
      7311 IM1      89       IM1      C3       CD2R5A   3.068900       11.6110           0   -1.37800   1.30000
      7312 IM1      89       IM1      DC3      DRUD    -2.880900        0.4000           0   0.00000   0.00000
      7313 IM1      89       IM1      H5       HDR5A    0.053000        1.0080           0   0.00000   0.00000
      7314 IM1      89       IM1      C4       CD2R5B   2.404400       11.6110           0   -0.868000   1.30000
      7315 IM1      89       IM1      DC4      DRUD    -2.286400        0.4000           0   0.00000   0.00000
      7316 IM1      89       IM1      H6       HDR5B    0.073000        1.0080           0   0.00000   0.00000
      7317 IM1      89       IM1      N2       ND2R5B   2.249300       13.6070           0   -0.840000   1.00000
      7318 IM1      89       IM1      DN2      DRUD    -2.249300        0.4000           0   0.00000   0.00000
      7319 IM1      89       IM1      H7       HDP1A    0.000000        1.0080           0   0.00000   0.00000
      7320 IM1      89       IM1      LPN21    LPD     -0.474000        0.0000           -1   0.00000   0.00000
      7321 IM1      90       IM1      C1       CD33G    2.390600       11.6110           0   -1.08100   1.00000
      7322 IM1      90       IM1      DC1      DRUD    -2.551600        0.4000           0   0.00000   0.00000
      7323 IM1      90       IM1      H1       HDA3A    0.094000        1.0080           0   0.00000   0.00000
      7324 IM1      90       IM1      H2       HDA3A    0.094000        1.0080           0   0.00000   0.00000
      7325 IM1      90       IM1      H3       HDA3A    0.094000        1.0080           0   0.00000   0.00000
      7326 IM1      90       IM1      N1       ND2R5A   2.670300       13.6070           0   -1.06300   1.30000
      7327 IM1      90       IM1      DN1      DRUD    -2.530300        0.4000           0   0.00000   0.00000
      7328 IM1      90       IM1      C2       CD2R5A   2.511900       11.6110           0   -1.37800   1.30000
      7329 IM1      90       IM1      DC2      DRUD    -2.880900        0.4000           0   0.00000   0.00000
      7330 IM1      90       IM1      H4       HDR5A    0.150000        1.0080           0   0.00000   0.00000
      7331 IM1      90       IM1      C3       CD2R5A   3.068900       11.6110           0   -1.37800   1.30000
      7332 IM1      90       IM1      DC3      DRUD    -2.880900        0.4000           0   0.00000   0.00000
      7333 IM1      90       IM1      H5       HDR5A    0.053000        1.0080           0   0.00000   0.00000
      7334 IM1      90       IM1      C4       CD2R5B   2.404400       11.6110           0   -0.868000   1.30000
      7335 IM1      90       IM1      DC4      DRUD    -2.286400        0.4000           0   0.00000   0.00000
      7336 IM1      90       IM1      H6       HDR5B    0.073000        1.0080           0   0.00000   0.00000
      7337 IM1      90       IM1      N2       ND2R5B   2.249300       13.6070           0   -0.840000   1.00000
      7338 IM1      90       IM1      DN2      DRUD    -2.249300        0.4000           0   0.00000   0.00000
      7339 IM1      90       IM1      H7       HDP1A    0.000000        1.0080           0   0.00000   0.00000
      7340 IM1      90       IM1      LPN21    LPD     -0.474000        0.0000           -1   0.00000   0.00000
      7341 IM1      91       IM1      C1       CD33G    2.390600       11.6110           0   -1.08100   1.00000
      7342 IM1      91       IM1      DC1      DRUD    -2.551600        0.4000           0   0.00000   0.00000
      7343 IM1      91       IM1      H1       HDA3A    0.094000        1.0080           0   0.00000   0.00000
      7344 IM1      91       IM1      H2       HDA3A    0.094000        1.0080           0   0.00000   0.00000
      7345 IM1      91       IM1      H3       HDA3A    0.094000        1.0080           0   0.00000   0.00000
      7346 IM1      91       IM1      N1       ND2R5A   2.670300       13.6070           0   -1.06300   1.30000
      7347 IM1      91       IM1      DN1      DRUD    -2.530300        0.4000           0   0.00000   0.00000
      7348 IM1      91       IM1      C2       CD2R5A   2.511900       11.6110           0   -1.37800   1.30000
      7349 IM1      91       IM1      DC2      DRUD    -2.880900        0.4000           0   0.00000   0.00000
      7350 IM1      91       IM1      H4       HDR5A    0.150000        1.0080           0   0.00000   0.00000
      7351 IM1      91       IM1      C3       CD2R5A   3.068900       11.6110           0   -1.37800   1.30000
      7352 IM1      91       IM1      DC3      DRUD    -2.880900        0.4000           0   0.00000   0.00000
      7353 IM1      91       IM1      H5       HDR5A    0.053000        1.0080           0   0.00000   0.00000
      7354 IM1      91       IM1      C4       CD2R5B   2.404400       11.6110           0   -0.868000   1.30000
      7355 IM1      91       IM1      DC4      DRUD    -2.286400        0.4000           0   0.00000   0.00000
      7356 IM1      91       IM1      H6       HDR5B    0.073000        1.0080           0   0.00000   0.00000
      7357 IM1      91       IM1      N2       ND2R5B   2.249300       13.6070           0   -0.840000   1.00000
      7358 IM1      91       IM1      DN2      DRUD    -2.249300        0.4000           0   0.00000   0.00000
      7359 IM1      91       IM1      H7       HDP1A    0.000000        1.0080           0   0.00000   0.00000
      7360 IM1      91       IM1      LPN21    LPD     -0.474000        0.0000           -1   0.00000   0.00000
      7361 IM1      92       IM1      C1       CD33G    2.390600       11.6110           0   -1.08100   1.00000
      7362 IM1      92       IM1      DC1      DRUD    -2.551600        0.4000           0   0.00000   0.00000
      7363 IM1      92       IM1      H1       HDA3A    0.094000        1.0080           0   0.00000   0.00000
      7364 IM1      92       IM1      H2       HDA3A    0.094000        1.0080           0   0.00000   0.00000
      7365 IM1      92       IM1      H3       HDA3A    0.094000        1.0080           0   0.00000   0.00000
      7366 IM1      92       IM1      N1       ND2R5A   2.670300       13.6070           0   -1.06300   1.30000
      7367 IM1      92       IM1      DN1      DRUD    -2.530300        0.4000           0   0.00000   0.00000
      7368 IM1      92       IM1      C2       CD2R5A   2.511900       11.6110           0   -1.37800   1.30000
      7369 IM1      92       IM1      DC2      DRUD    -2.880900        0.4000           0   0.00000   0.00000
      7370 IM1      92       IM1      H4       HDR5A    0.150000        1.0080           0   0.00000   0.00000
      7371 IM1      92       IM1      C3       CD2R5A   3.068900       11.6110           0   -1.37800   1.30000
      7372 IM1      92       IM1      DC3      DRUD    -2.880900        0.4000           0   0.00000   0.00000
      7373 IM1      92       IM1      H5       HDR5A    0.053000        1.0080           0   0.00000   0.00000
      7374 IM1      92       IM1      C4       CD2R5B   2.404400       11.6110           0   -0.868000   1.30000
      7375 IM1      92       IM1      DC4      DRUD    -2.286400        0.4000           0   0.00000   0.00000
      7376 IM1      92       IM1      H6       HDR5B    0.073000        1.0080           0   0.00000   0.00000
      7377 IM1      92       IM1      N2       ND2R5B   2.249300       13.6070           0   -0.840000   1.00000
      7378 IM1      92       IM1      DN2      DRUD    -2.249300        0.4000           0   0.00000   0.00000
      7379 IM1      92       IM1      H7       HDP1A    0.000000        1.0080           0   0.00000   0.00000
      7380 IM1      92       IM1      LPN21    LPD     -0.474000        0.0000           -1   0.00000   0.00000
      7381 IM1      93       IM1      C1       CD33G    2.390600       11.6110           0   -1.08100   1.00000
      7382 IM1      93       IM1      DC1      DRUD    -2.551600        0.4000           0   0.00000   0.00000
      7383 IM1      93       IM1      H1       HDA3A    0.094000        1.0080           0   0.00000   0.00000
      7384 IM1      93       IM1      H2       HDA3A    0.094000        1.0080           0   0.00000   0.00000
      7385 IM1      93       IM1      H3       HDA3A    0.094000        1.0080           0   0.00000   0.00000
      7386 IM1      93       IM1      N1       ND2R5A   2.670300       13.6070           0   -1.06300   1.30000
      7387 IM1      93       IM1      DN1      DRUD    -2.530300        0.4000           0   0.00000   0.00000
      7388 IM1      93       IM1      C2       CD2R5A   2.511900       11.6110           0   -1.37800   1.30000
      7389 IM1      93       IM1      DC2      DRUD    -2.880900        0.4000           0   0.00000   0.00000
      7390 IM1      93       IM1      H4       HDR5A    0.150000        1.0080           0   0.00000   0.00000
      7391 IM1      93       IM1      C3       CD2R5A   3.068900       11.6110           0   -1.37800   1.30000
      7392 IM1      93       IM1      DC3      DRUD    -2.880900        0.4000           0   0.00000   0.00000
      7393 IM1      93       IM1      H5       HDR5A    0.053000        1.0080           0   0.00000   0.00000
      7394 IM1      93       IM1      C4       CD2R5B   2.404400       11.6110           0   -0.868000   1.30000
      7395 IM1      93       IM1      DC4      DRUD    -2.286400        0.4000           0   0.00000   0.00000
      7396 IM1      93       IM1      H6       HDR5B    0.073000        1.0080           0   0.00000   0.00000
      7397 IM1      93       IM1      N2       ND2R5B   2.249300       13.6070           0   -0.840000   1.00000
      7398 IM1      93       IM1      DN2      DRUD    -2.249300        0.4000           0   0.00000   0.00000
      7399 IM1      93       IM1      H7       HDP1A    0.000000        1.0080           0   0.00000   0.00000
      7400 IM1      93       IM1      LPN21    LPD     -0.474000        0.0000           -1   0.00000   0.00000
      7401 IM1      94       IM1      C1       CD33G    2.390600       11.6110           0   -1.08100   1.00000
      7402 IM1      94       IM1      DC1      DRUD    -2.551600        0.4000           0   0.00000   0.00000
      7403 IM1      94       IM1      H1       HDA3A    0.094000        1.0080           0   0.00000   0.00000
      7404 IM1      94       IM1      H2       HDA3A    0.094000        1.0080           0   0.00000   0.00000
      7405 IM1      94       IM1      H3       HDA3A    0.094000        1.0080           0   0.00000   0.00000
      7406 IM1      94       IM1      N1       ND2R5A   2.670300       13.6070           0   -1.06300   1.30000
      7407 IM1      94       IM1      DN1      DRUD    -2.530300        0.4000           0   0.00000   0.00000
      7408 IM1      94       IM1      C2       CD2R5A   2.511900       11.6110           0   -1.37800   1.30000
      7409 IM1      94       IM1      DC2      DRUD    -2.880900        0.4000           0   0.00000   0.00000
      7410 IM1      94       IM1      H4       HDR5A    0.150000        1.0080           0   0.00000   0.00000
      7411 IM1      94       IM1      C3       CD2R5A   3.068900       11.6110           0   -1.37800   1.30000
      7412 IM1      94       IM1      DC3      DRUD    -2.880900        0.4000           0   0.00000   0.00000
      7413 IM1      94       IM1      H5       HDR5A    0.053000        1.0080           0   0.00000   0.00000
      7414 IM1      94       IM1      C4       CD2R5B   2.404400       11.6110           0   -0.868000   1.30000
      7415 IM1      94       IM1      DC4      DRUD    -2.286400        0.4000           0   0.00000   0.00000
      7416 IM1      94       IM1      H6       HDR5B    0.073000        1.0080           0   0.00000   0.00000
      7417 IM1      94       IM1      N2       ND2R5B   2.249300       13.6070           0   -0.840000   1.00000
      7418 IM1      94       IM1      DN2      DRUD    -2.249300        0.4000           0   0.00000   0.00000
      7419 IM1      94       IM1      H7       HDP1A    0.000000        1.0080           0   0.00000   0.00000
      7420 IM1      94       IM1      LPN21    LPD     -0.474000        0.0000           -1   0.00000   0.00000
      7421 IM1      95       IM1      C1       CD33G    2.390600       11.6110           0   -1.08100   1.00000
      7422 IM1      95       IM1      DC1      DRUD    -2.551600        0.4000           0   0.00000   0.00000
      7423 IM1      95       IM1      H1       HDA3A    0.094000        1.0080           0   0.00000   0.00000
      7424 IM1      95       IM1      H2       HDA3A    0.094000        1.0080           0   0.00000   0.00000
      7425 IM1      95       IM1      H3       HDA3A    0.094000        1.0080           0   0.00000   0.00000
      7426 IM1      95       IM1      N1       ND2R5A   2.670300       13.6070           0   -1.06300   1.30000
      7427 IM1      95       IM1      DN1      DRUD    -2.530300        0.4000           0   0.00000   0.00000
      7428 IM1      95       IM1      C2       CD2R5A   2.511900       11.6110           0   -1.37800   1.30000
      7429 IM1      95       IM1      DC2      DRUD    -2.880900        0.4000           0   0.00000   0.00000
      7430 IM1      95       IM1      H4       HDR5A    0.150000        1.0080           0   0.00000   0.00000
      7431 IM1      95       IM1      C3       CD2R5A   3.068900       11.6110           0   -1.37800   1.30000
      7432 IM1      95       IM1      DC3      DRUD    -2.880900        0.4000           0   0.00000   0.00000
      7433 IM1      95       IM1      H5       HDR5A    0.053000        1.0080           0   0.00000   0.00000
      7434 IM1      95       IM1      C4       CD2R5B   2.404400       11.6110           0   -0.868000   1.30000
      7435 IM1      95       IM1      DC4      DRUD    -2.286400        0.4000           0   0.00000   0.00000
      7436 IM1      95       IM1      H6       HDR5B    0.073000        1.0080           0   0.00000   0.00000
      7437 IM1      95       IM1      N2       ND2R5B   2.249300       13.6070           0   -0.840000   1.00000
      7438 IM1      95       IM1      DN2      DRUD    -2.249300        0.4000           0   0.00000   0.00000
      7439 IM1      95       IM1      H7       HDP1A    0.000000        1.0080           0   0.00000   0.00000
      7440 IM1      95       IM1      LPN21    LPD     -0.474000        0.0000           -1   0.00000   0.00000
      7441 IM1      96       IM1      C1       CD33G    2.390600       11.6110           0   -1.08100   1.00000
      7442 IM1      96       IM1      DC1      DRUD    -2.551600        0.4000           0   0.00000   0.00000
      7443 IM1      96       IM1      H1       HDA3A    0.094000        1.0080           0   0.00000   0.00000
      7444 IM1      96       IM1      H2       HDA3A    0.094000        1.0080           0   0.00000   0.00000
      7445 IM1      96       IM1      H3       HDA3A    0.094000        1.0080           0   0.00000   0.00000
      7446 IM1      96       IM1      N1       ND2R5A   2.670300       13.6070           0   -1.06300   1.30000
      7447 IM1      96       IM1      DN1      DRUD    -2.530300        0.4000           0   0.00000   0.00000
      7448 IM1      96       IM1      C2       CD2R5A   2.511900       11.6110           0   -1.37800   1.30000
      7449 IM1      96       IM1      DC2      DRUD    -2.880900        0.4000           0   0.00000   0.00000
      7450 IM1      96       IM1      H4       HDR5A    0.150000        1.0080           0   0.00000   0.00000
      7451 IM1      96       IM1      C3       CD2R5A   3.068900       11.6110           0   -1.37800   1.30000
      7452 IM1      96       IM1      DC3      DRUD    -2.880900        0.4000           0   0.00000   0.00000
      7453 IM1      96       IM1      H5       HDR5A    0.053000        1.0080           0   0.00000   0.00000
      7454 IM1      96       IM1      C4       CD2R5B   2.404400       11.6110           0   -0.868000   1.30000
      7455 IM1      96       IM1      DC4      DRUD    -2.286400        0.4000           0   0.00000   0.00000
      7456 IM1      96       IM1      H6       HDR5B    0.073000        1.0080           0   0.00000   0.00000
      7457 IM1      96       IM1      N2       ND2R5B   2.249300       13.6070           0   -0.840000   1.00000
      7458 IM1      96       IM1      DN2      DRUD    -2.249300        0.4000           0   0.00000   0.00000
      7459 IM1      96       IM1      H7       HDP1A    0.000000        1.0080           0   0.00000   0.00000
      7460 IM1      96       IM1      LPN21    LPD     -0.474000        0.0000           -1   0.00000   0.00000
      7461 IM1      97       IM1      C1       CD33G    2.390600       11.6110           0   -1.08100   1.00000
      7462 IM1      97       IM1      DC1      DRUD    -2.551600        0.4000           0   0.00000   0.00000
      7463 IM1      97       IM1      H1       HDA3A    0.094000        1.0080           0   0.00000   0.00000
      7464 IM1      97       IM1      H2       HDA3A    0.094000        1.0080           0   0.00000   0.00000
      7465 IM1      97       IM1      H3       HDA3A    0.094000        1.0080           0   0.00000   0.00000
      7466 IM1      97       IM1      N1       ND2R5A   2.670300       13.6070           0   -1.06300   1.30000
      7467 IM1      97       IM1      DN1      DRUD    -2.530300        0.4000           0   0.00000   0.00000
      7468 IM1      97       IM1      C2       CD2R5A   2.511900       11.6110           0   -1.37800   1.30000
      7469 IM1      97       IM1      DC2      DRUD    -2.880900        0.4000           0   0.00000   0.00000
      7470 IM1      97       IM1      H4       HDR5A    0.150000        1.0080           0   0.00000   0.00000
      7471 IM1      97       IM1      C3       CD2R5A   3.068900       11.6110           0   -1.37800   1.30000
      7472 IM1      97       IM1      DC3      DRUD    -2.880900        0.4000           0   0.00000   0.00000
      7473 IM1      97       IM1      H5       HDR5A    0.053000        1.0080           0   0.00000   0.00000
      7474 IM1      97       IM1      C4       CD2R5B   2.404400       11.6110           0   -0.868000   1.30000
      7475 IM1      97       IM1      DC4      DRUD    -2.286400        0.4000           0   0.00000   0.00000
      7476 IM1      97       IM1      H6       HDR5B    0.073000        1.0080           0   0.00000   0.00000
      7477 IM1      97       IM1      N2       ND2R5B   2.249300       13.6070           0   -0.840000   1.00000
      7478 IM1      97       IM1      DN2      DRUD    -2.249300        0.4000           0   0.00000   0.00000
      7479 IM1      97       IM1      H7       HDP1A    0.000000        1.0080           0   0.00000   0.00000
      7480 IM1      97       IM1      LPN21    LPD     -0.474000        0.0000           -1   0.00000   0.00000
      7481 IM1      98       IM1      C1       CD33G    2.390600       11.6110           0   -1.08100   1.00000
      7482 IM1      98       IM1      DC1      DRUD    -2.551600        0.4000           0   0.00000   0.00000
      7483 IM1      98       IM1      H1       HDA3A    0.094000        1.0080           0   0.00000   0.00000
      7484 IM1      98       IM1      H2       HDA3A    0.094000        1.0080           0   0.00000   0.00000
      7485 IM1      98       IM1      H3       HDA3A    0.094000        1.0080           0   0.00000   0.00000
      7486 IM1      98       IM1      N1       ND2R5A   2.670300       13.6070           0   -1.06300   1.30000
      7487 IM1      98       IM1      DN1      DRUD    -2.530300        0.4000           0   0.00000   0.00000
      7488 IM1      98       IM1      C2       CD2R5A   2.511900       11.6110           0   -1.37800   1.30000
      7489 IM1      98       IM1      DC2      DRUD    -2.880900        0.4000           0   0.00000   0.00000
      7490 IM1      98       IM1      H4       HDR5A    0.150000        1.0080           0   0.00000   0.00000
      7491 IM1      98       IM1      C3       CD2R5A   3.068900       11.6110           0   -1.37800   1.30000
      7492 IM1      98       IM1      DC3      DRUD    -2.880900        0.4000           0   0.00000   0.00000
      7493 IM1      98       IM1      H5       HDR5A    0.053000        1.0080           0   0.00000   0.00000
      7494 IM1      98       IM1      C4       CD2R5B   2.404400       11.6110           0   -0.868000   1.30000
      7495 IM1      98       IM1      DC4      DRUD    -2.286400        0.4000           0   0.00000   0.00000
      7496 IM1      98       IM1      H6       HDR5B    0.073000        1.0080           0   0.00000   0.00000
      7497 IM1      98       IM1      N2       ND2R5B   2.249300       13.6070           0   -0.840000   1.00000
      7498 IM1      98       IM1      DN2      DRUD    -2.249300        0.4000           0   0.00000   0.00000
      7499 IM1      98       IM1      H7       HDP1A    0.000000        1.0080           0   0.00000   0.00000
      7500 IM1      98       IM1      LPN21    LPD     -0.474000        0.0000           -1   0.00000   0.00000
      7501 IM1      99       IM1      C1       CD33G    2.390600       11.6110           0   -1.08100   1.00000
      7502 IM1      99       IM1      DC1      DRUD    -2.551600        0.4000           0   0.00000   0.00000
      7503 IM1      99       IM1      H1       HDA3A    0.094000        1.0080           0   0.00000   0.00000
      7504 IM1      99       IM1      H2       HDA3A    0.094000        1.0080           0   0.00000   0.00000
      7505 IM1      99       IM1      H3       HDA3A    0.094000        1.0080           0   0.00000   0.00000
      7506 IM1      99       IM1      N1       ND2R5A   2.670300       13.6070           0   -1.06300   1.30000
      7507 IM1      99       IM1      DN1      DRUD    -2.530300        0.4000           0   0.00000   0.00000
      7508 IM1      99       IM1      C2       CD2R5A   2.511900       11.6110           0   -1.37800   1.30000
      7509 IM1      99       IM1      DC2      DRUD    -2.880900        0.4000           0   0.00000   0.00000
      7510 IM1      99       IM1      H4       HDR5A    0.150000        1.0080           0   0.00000   0.00000
      7511 IM1      99       IM1      C3       CD2R5A   3.068900       11.6110           0   -1.37800   1.30000
      7512 IM1      99       IM1      DC3      DRUD    -2.880900        0.4000           0   0.00000   0.00000
      7513 IM1      99       IM1      H5       HDR5A    0.053000        1.0080           0   0.00000   0.00000
      7514 IM1      99       IM1      C4       CD2R5B   2.404400       11.6110           0   -0.868000   1.30000
      7515 IM1      99       IM1      DC4      DRUD    -2.286400        0.4000           0   0.00000   0.00000
      7516 IM1      99       IM1      H6       HDR5B    0.073000        1.0080           0   0.00000   0.00000
      7517 IM1      99       IM1      N2       ND2R5B   2.249300       13.6070           0   -0.840000   1.00000
      7518 IM1      99       IM1      DN2      DRUD    -2.249300        0.4000           0   0.00000   0.00000
      7519 IM1      99       IM1      H7       HDP1A    0.000000        1.0080           0   0.00000   0.00000
      7520 IM1      99       IM1      LPN21    LPD     -0.474000        0.0000           -1   0.00000   0.00000
      7521 IM1      100      IM1      C1       CD33G    2.390600       11.6110           0   -1.08100   1.00000
      7522 IM1      100      IM1      DC1      DRUD    -2.551600        0.4000           0   0.00000   0.00000
      7523 IM1      100      IM1      H1       HDA3A    0.094000        1.0080           0   0.00000   0.00000
      7524 IM1      100      IM1      H2       HDA3A    0.094000        1.0080           0   0.00000   0.00000
      7525 IM1      100      IM1      H3       HDA3A    0.094000        1.0080           0   0.00000   0.00000
      7526 IM1      100      IM1      N1       ND2R5A   2.670300       13.6070           0   -1.06300   1.30000
      7527 IM1      100      IM1      DN1      DRUD    -2.530300        0.4000           0   0.00000   0.00000
      7528 IM1      100      IM1      C2       CD2R5A   2.511900       11.6110           0   -1.37800   1.30000
      7529 IM1      100      IM1      DC2      DRUD    -2.880900        0.4000           0   0.00000   0.00000
      7530 IM1      100      IM1      H4       HDR5A    0.150000        1.0080           0   0.00000   0.00000
      7531 IM1      100      IM1      C3       CD2R5A   3.068900       11.6110           0   -1.37800   1.30000
      7532 IM1      100      IM1      DC3      DRUD    -2.880900        0.4000           0   0.00000   0.00000
      7533 IM1      100      IM1      H5       HDR5A    0.053000        1.0080           0   0.00000   0.00000
      7534 IM1      100      IM1      C4       CD2R5B   2.404400       11.6110           0   -0.868000   1.30000
      7535 IM1      100      IM1      DC4      DRUD    -2.286400        0.4000           0   0.00000   0.00000
      7536 IM1      100      IM1      H6       HDR5B    0.073000        1.0080           0   0.00000   0.00000
      7537 IM1      100      IM1      N2       ND2R5B   2.249300       13.6070           0   -0.840000   1.00000
      7538 IM1      100      IM1      DN2      DRUD    -2.249300        0.4000           0   0.00000   0.00000
      7539 IM1      100      IM1      H7       HDP1A    0.000000        1.0080           0   0.00000   0.00000
      7540 IM1      100      IM1      LPN21    LPD     -0.474000        0.0000           -1   0.00000   0.00000
      7541 IM1      101      IM1      C1       CD33G    2.390600       11.6110           0   -1.08100   1.00000
      7542 IM1      101      IM1      DC1      DRUD    -2.551600        0.4000           0   0.00000   0.00000
      7543 IM1      101      IM1      H1       HDA3A    0.094000        1.0080           0   0.00000   0.00000
      7544 IM1      101      IM1      H2       HDA3A    0.094000        1.0080           0   0.00000   0.00000
      7545 IM1      101      IM1      H3       HDA3A    0.094000        1.0080           0   0.00000   0.00000
      7546 IM1      101      IM1      N1       ND2R5A   2.670300       13.6070           0   -1.06300   1.30000
      7547 IM1      101      IM1      DN1      DRUD    -2.530300        0.4000           0   0.00000   0.00000
      7548 IM1      101      IM1      C2       CD2R5A   2.511900       11.6110           0   -1.37800   1.30000
      7549 IM1      101      IM1      DC2      DRUD    -2.880900        0.4000           0   0.00000   0.00000
      7550 IM1      101      IM1      H4       HDR5A    0.150000        1.0080           0   0.00000   0.00000
      7551 IM1      101      IM1      C3       CD2R5A   3.068900       11.6110           0   -1.37800   1.30000
      7552 IM1      101      IM1      DC3      DRUD    -2.880900        0.4000           0   0.00000   0.00000
      7553 IM1      101      IM1      H5       HDR5A    0.053000        1.0080           0   0.00000   0.00000
      7554 IM1      101      IM1      C4       CD2R5B   2.404400       11.6110           0   -0.868000   1.30000
      7555 IM1      101      IM1      DC4      DRUD    -2.286400        0.4000           0   0.00000   0.00000
      7556 IM1      101      IM1      H6       HDR5B    0.073000        1.0080           0   0.00000   0.00000
      7557 IM1      101      IM1      N2       ND2R5B   2.249300       13.6070           0   -0.840000   1.00000
      7558 IM1      101      IM1      DN2      DRUD    -2.249300        0.4000           0   0.00000   0.00000
      7559 IM1      101      IM1      H7       HDP1A    0.000000        1.0080           0   0.00000   0.00000
      7560 IM1      101      IM1      LPN21    LPD     -0.474000        0.0000           -1   0.00000   0.00000
      7561 IM1      102      IM1      C1       CD33G    2.390600       11.6110           0   -1.08100   1.00000
      7562 IM1      102      IM1      DC1      DRUD    -2.551600        0.4000           0   0.00000   0.00000
      7563 IM1      102      IM1      H1       HDA3A    0.094000        1.0080           0   0.00000   0.00000
      7564 IM1      102      IM1      H2       HDA3A    0.094000        1.0080           0   0.00000   0.00000
      7565 IM1      102      IM1      H3       HDA3A    0.094000        1.0080           0   0.00000   0.00000
      7566 IM1      102      IM1      N1       ND2R5A   2.670300       13.6070           0   -1.06300   1.30000
      7567 IM1      102      IM1      DN1      DRUD    -2.530300        0.4000           0   0.00000   0.00000
      7568 IM1      102      IM1      C2       CD2R5A   2.511900       11.6110           0   -1.37800   1.30000
      7569 IM1      102      IM1      DC2      DRUD    -2.880900        0.4000           0   0.00000   0.00000
      7570 IM1      102      IM1      H4       HDR5A    0.150000        1.0080           0   0.00000   0.00000
      7571 IM1      102      IM1      C3       CD2R5A   3.068900       11.6110           0   -1.37800   1.30000
      7572 IM1      102      IM1      DC3      DRUD    -2.880900        0.4000           0   0.00000   0.00000
      7573 IM1      102      IM1      H5       HDR5A    0.053000        1.0080           0   0.00000   0.00000
      7574 IM1      102      IM1      C4       CD2R5B   2.404400       11.6110           0   -0.868000   1.30000
      7575 IM1      102      IM1      DC4      DRUD    -2.286400        0.4000           0   0.00000   0.00000
      7576 IM1      102      IM1      H6       HDR5B    0.073000        1.0080           0   0.00000   0.00000
      7577 IM1      102      IM1      N2       ND2R5B   2.249300       13.6070           0   -0.840000   1.00000
      7578 IM1      102      IM1      DN2      DRUD    -2.249300        0.4000           0   0.00000   0.00000
      7579 IM1      102      IM1      H7       HDP1A    0.000000        1.0080           0   0.00000   0.00000
      7580 IM1      102      IM1      LPN21    LPD     -0.474000        0.0000           -1   0.00000   0.00000
      7581 IM1      103      IM1      C1       CD33G    2.390600       11.6110           0   -1.08100   1.00000
      7582 IM1      103      IM1      DC1      DRUD    -2.551600        0.4000           0   0.00000   0.00000
      7583 IM1      103      IM1      H1       HDA3A    0.094000        1.0080           0   0.00000   0.00000
      7584 IM1      103      IM1      H2       HDA3A    0.094000        1.0080           0   0.00000   0.00000
      7585 IM1      103      IM1      H3       HDA3A    0.094000        1.0080           0   0.00000   0.00000
      7586 IM1      103      IM1      N1       ND2R5A   2.670300       13.6070           0   -1.06300   1.30000
      7587 IM1      103      IM1      DN1      DRUD    -2.530300        0.4000           0   0.00000   0.00000
      7588 IM1      103      IM1      C2       CD2R5A   2.511900       11.6110           0   -1.37800   1.30000
      7589 IM1      103      IM1      DC2      DRUD    -2.880900        0.4000           0   0.00000   0.00000
      7590 IM1      103      IM1      H4       HDR5A    0.150000        1.0080           0   0.00000   0.00000
      7591 IM1      103      IM1      C3       CD2R5A   3.068900       11.6110           0   -1.37800   1.30000
      7592 IM1      103      IM1      DC3      DRUD    -2.880900        0.4000           0   0.00000   0.00000
      7593 IM1      103      IM1      H5       HDR5A    0.053000        1.0080           0   0.00000   0.00000
      7594 IM1      103      IM1      C4       CD2R5B   2.404400       11.6110           0   -0.868000   1.30000
      7595 IM1      103      IM1      DC4      DRUD    -2.286400        0.4000           0   0.00000   0.00000
      7596 IM1      103      IM1      H6       HDR5B    0.073000        1.0080           0   0.00000   0.00000
      7597 IM1      103      IM1      N2       ND2R5B   2.249300       13.6070           0   -0.840000   1.00000
      7598 IM1      103      IM1      DN2      DRUD    -2.249300        0.4000           0   0.00000   0.00000
      7599 IM1      103      IM1      H7       HDP1A    0.000000        1.0080           0   0.00000   0.00000
      7600 IM1      103      IM1      LPN21    LPD     -0.474000        0.0000           -1   0.00000   0.00000
      7601 IM1      104      IM1      C1       CD33G    2.390600       11.6110           0   -1.08100   1.00000
      7602 IM1      104      IM1      DC1      DRUD    -2.551600        0.4000           0   0.00000   0.00000
      7603 IM1      104      IM1      H1       HDA3A    0.094000        1.0080           0   0.00000   0.00000
      7604 IM1      104      IM1      H2       HDA3A    0.094000        1.0080           0   0.00000   0.00000
      7605 IM1      104      IM1      H3       HDA3A    0.094000        1.0080           0   0.00000   0.00000
      7606 IM1      104      IM1      N1       ND2R5A   2.670300       13.6070           0   -1.06300   1.30000
      7607 IM1      104      IM1      DN1      DRUD    -2.530300        0.4000           0   0.00000   0.00000
      7608 IM1      104      IM1      C2       CD2R5A   2.511900       11.6110           0   -1.37800   1.30000
      7609 IM1      104      IM1      DC2      DRUD    -2.880900        0.4000           0   0.00000   0.00000
      7610 IM1      104      IM1      H4       HDR5A    0.150000        1.0080           0   0.00000   0.00000
      7611 IM1      104      IM1      C3       CD2R5A   3.068900       11.6110           0   -1.37800   1.30000
      7612 IM1      104      IM1      DC3      DRUD    -2.880900        0.4000           0   0.00000   0.00000
      7613 IM1      104      IM1      H5       HDR5A    0.053000        1.0080           0   0.00000   0.00000
      7614 IM1      104      IM1      C4       CD2R5B   2.404400       11.6110           0   -0.868000   1.30000
      7615 IM1      104      IM1      DC4      DRUD    -2.286400        0.4000           0   0.00000   0.00000
      7616 IM1      104      IM1      H6       HDR5B    0.073000        1.0080           0   0.00000   0.00000
      7617 IM1      104      IM1      N2       ND2R5B   2.249300       13.6070           0   -0.840000   1.00000
      7618 IM1      104      IM1      DN2      DRUD    -2.249300        0.4000           0   0.00000   0.00000
      7619 IM1      104      IM1      H7       HDP1A    0.000000        1.0080           0   0.00000   0.00000
      7620 IM1      104      IM1      LPN21    LPD     -0.474000        0.0000           -1   0.00000   0.00000
      7621 IM1      105      IM1      C1       CD33G    2.390600       11.6110           0   -1.08100   1.00000
      7622 IM1      105      IM1      DC1      DRUD    -2.551600        0.4000           0   0.00000   0.00000
      7623 IM1      105      IM1      H1       HDA3A    0.094000        1.0080           0   0.00000   0.00000
      7624 IM1      105      IM1      H2       HDA3A    0.094000        1.0080           0   0.00000   0.00000
      7625 IM1      105      IM1      H3       HDA3A    0.094000        1.0080           0   0.00000   0.00000
      7626 IM1      105      IM1      N1       ND2R5A   2.670300       13.6070           0   -1.06300   1.30000
      7627 IM1      105      IM1      DN1      DRUD    -2.530300        0.4000           0   0.00000   0.00000
      7628 IM1      105      IM1      C2       CD2R5A   2.511900       11.6110           0   -1.37800   1.30000
      7629 IM1      105      IM1      DC2      DRUD    -2.880900        0.4000           0   0.00000   0.00000
      7630 IM1      105      IM1      H4       HDR5A    0.150000        1.0080           0   0.00000   0.00000
      7631 IM1      105      IM1      C3       CD2R5A   3.068900       11.6110           0   -1.37800   1.30000
      7632 IM1      105      IM1      DC3      DRUD    -2.880900        0.4000           0   0.00000   0.00000
      7633 IM1      105      IM1      H5       HDR5A    0.053000        1.0080           0   0.00000   0.00000
      7634 IM1      105      IM1      C4       CD2R5B   2.404400       11.6110           0   -0.868000   1.30000
      7635 IM1      105      IM1      DC4      DRUD    -2.286400        0.4000           0   0.00000   0.00000
      7636 IM1      105      IM1      H6       HDR5B    0.073000        1.0080           0   0.00000   0.00000
      7637 IM1      105      IM1      N2       ND2R5B   2.249300       13.6070           0   -0.840000   1.00000
      7638 IM1      105      IM1      DN2      DRUD    -2.249300        0.4000           0   0.00000   0.00000
      7639 IM1      105      IM1      H7       HDP1A    0.000000        1.0080           0   0.00000   0.00000
      7640 IM1      105      IM1      LPN21    LPD     -0.474000        0.0000           -1   0.00000   0.00000
      7641 IM1      106      IM1      C1       CD33G    2.390600       11.6110           0   -1.08100   1.00000
      7642 IM1      106      IM1      DC1      DRUD    -2.551600        0.4000           0   0.00000   0.00000
      7643 IM1      106      IM1      H1       HDA3A    0.094000        1.0080           0   0.00000   0.00000
      7644 IM1      106      IM1      H2       HDA3A    0.094000        1.0080           0   0.00000   0.00000
      7645 IM1      106      IM1      H3       HDA3A    0.094000        1.0080           0   0.00000   0.00000
      7646 IM1      106      IM1      N1       ND2R5A   2.670300       13.6070           0   -1.06300   1.30000
      7647 IM1      106      IM1      DN1      DRUD    -2.530300        0.4000           0   0.00000   0.00000
      7648 IM1      106      IM1      C2       CD2R5A   2.511900       11.6110           0   -1.37800   1.30000
      7649 IM1      106      IM1      DC2      DRUD    -2.880900        0.4000           0   0.00000   0.00000
      7650 IM1      106      IM1      H4       HDR5A    0.150000        1.0080           0   0.00000   0.00000
      7651 IM1      106      IM1      C3       CD2R5A   3.068900       11.6110           0   -1.37800   1.30000
      7652 IM1      106      IM1      DC3      DRUD    -2.880900        0.4000           0   0.00000   0.00000
      7653 IM1      106      IM1      H5       HDR5A    0.053000        1.0080           0   0.00000   0.00000
      7654 IM1      106      IM1      C4       CD2R5B   2.404400       11.6110           0   -0.868000   1.30000
      7655 IM1      106      IM1      DC4      DRUD    -2.286400        0.4000           0   0.00000   0.00000
      7656 IM1      106      IM1      H6       HDR5B    0.073000        1.0080           0   0.00000   0.00000
      7657 IM1      106      IM1      N2       ND2R5B   2.249300       13.6070           0   -0.840000   1.00000
      7658 IM1      106      IM1      DN2      DRUD    -2.249300        0.4000           0   0.00000   0.00000
      7659 IM1      106      IM1      H7       HDP1A    0.000000        1.0080           0   0.00000   0.00000
      7660 IM1      106      IM1      LPN21    LPD     -0.474000        0.0000           -1   0.00000   0.00000
      7661 IM1      107      IM1      C1       CD33G    2.390600       11.6110           0   -1.08100   1.00000
      7662 IM1      107      IM1      DC1      DRUD    -2.551600        0.4000           0   0.00000   0.00000
      7663 IM1      107      IM1      H1       HDA3A    0.094000        1.0080           0   0.00000   0.00000
      7664 IM1      107      IM1      H2       HDA3A    0.094000        1.0080           0   0.00000   0.00000
      7665 IM1      107      IM1      H3       HDA3A    0.094000        1.0080           0   0.00000   0.00000
      7666 IM1      107      IM1      N1       ND2R5A   2.670300       13.6070           0   -1.06300   1.30000
      7667 IM1      107      IM1      DN1      DRUD    -2.530300        0.4000           0   0.00000   0.00000
      7668 IM1      107      IM1      C2       CD2R5A   2.511900       11.6110           0   -1.37800   1.30000
      7669 IM1      107      IM1      DC2      DRUD    -2.880900        0.4000           0   0.00000   0.00000
      7670 IM1      107      IM1      H4       HDR5A    0.150000        1.0080           0   0.00000   0.00000
      7671 IM1      107      IM1      C3       CD2R5A   3.068900       11.6110           0   -1.37800   1.30000
      7672 IM1      107      IM1      DC3      DRUD    -2.880900        0.4000           0   0.00000   0.00000
      7673 IM1      107      IM1      H5       HDR5A    0.053000        1.0080           0   0.00000   0.00000
      7674 IM1      107      IM1      C4       CD2R5B   2.404400       11.6110           0   -0.868000   1.30000
      7675 IM1      107      IM1      DC4      DRUD    -2.286400        0.4000           0   0.00000   0.00000
      7676 IM1      107      IM1      H6       HDR5B    0.073000        1.0080           0   0.00000   0.00000
      7677 IM1      107      IM1      N2       ND2R5B   2.249300       13.6070           0   -0.840000   1.00000
      7678 IM1      107      IM1      DN2      DRUD    -2.249300        0.4000           0   0.00000   0.00000
      7679 IM1      107      IM1      H7       HDP1A    0.000000        1.0080           0   0.00000   0.00000
      7680 IM1      107      IM1      LPN21    LPD     -0.474000        0.0000           -1   0.00000   0.00000
      7681 IM1      108      IM1      C1       CD33G    2.390600       11.6110           0   -1.08100   1.00000
      7682 IM1      108      IM1      DC1      DRUD    -2.551600        0.4000           0   0.00000   0.00000
      7683 IM1      108      IM1      H1       HDA3A    0.094000        1.0080           0   0.00000   0.00000
      7684 IM1      108      IM1      H2       HDA3A    0.094000        1.0080           0   0.00000   0.00000
      7685 IM1      108      IM1      H3       HDA3A    0.094000        1.0080           0   0.00000   0.00000
      7686 IM1      108      IM1      N1       ND2R5A   2.670300       13.6070           0   -1.06300   1.30000
      7687 IM1      108      IM1      DN1      DRUD    -2.530300        0.4000           0   0.00000   0.00000
      7688 IM1      108      IM1      C2       CD2R5A   2.511900       11.6110           0   -1.37800   1.30000
      7689 IM1      108      IM1      DC2      DRUD    -2.880900        0.4000           0   0.00000   0.00000
      7690 IM1      108      IM1      H4       HDR5A    0.150000        1.0080           0   0.00000   0.00000
      7691 IM1      108      IM1      C3       CD2R5A   3.068900       11.6110           0   -1.37800   1.30000
      7692 IM1      108      IM1      DC3      DRUD    -2.880900        0.4000           0   0.00000   0.00000
      7693 IM1      108      IM1      H5       HDR5A    0.053000        1.0080           0   0.00000   0.00000
      7694 IM1      108      IM1      C4       CD2R5B   2.404400       11.6110           0   -0.868000   1.30000
      7695 IM1      108      IM1      DC4      DRUD    -2.286400        0.4000           0   0.00000   0.00000
      7696 IM1      108      IM1      H6       HDR5B    0.073000        1.0080           0   0.00000   0.00000
      7697 IM1      108      IM1      N2       ND2R5B   2.249300       13.6070           0   -0.840000   1.00000
      7698 IM1      108      IM1      DN2      DRUD    -2.249300        0.4000           0   0.00000   0.00000
      7699 IM1      108      IM1      H7       HDP1A    0.000000        1.0080           0   0.00000   0.00000
      7700 IM1      108      IM1      LPN21    LPD     -0.474000        0.0000           -1   0.00000   0.00000
      7701 IM1      109      IM1      C1       CD33G    2.390600       11.6110           0   -1.08100   1.00000
      7702 IM1      109      IM1      DC1      DRUD    -2.551600        0.4000           0   0.00000   0.00000
      7703 IM1      109      IM1      H1       HDA3A    0.094000        1.0080           0   0.00000   0.00000
      7704 IM1      109      IM1      H2       HDA3A    0.094000        1.0080           0   0.00000   0.00000
      7705 IM1      109      IM1      H3       HDA3A    0.094000        1.0080           0   0.00000   0.00000
      7706 IM1      109      IM1      N1       ND2R5A   2.670300       13.6070           0   -1.06300   1.30000
      7707 IM1      109      IM1      DN1      DRUD    -2.530300        0.4000           0   0.00000   0.00000
      7708 IM1      109      IM1      C2       CD2R5A   2.511900       11.6110           0   -1.37800   1.30000
      7709 IM1      109      IM1      DC2      DRUD    -2.880900        0.4000           0   0.00000   0.00000
      7710 IM1      109      IM1      H4       HDR5A    0.150000        1.0080           0   0.00000   0.00000
      7711 IM1      109      IM1      C3       CD2R5A   3.068900       11.6110           0   -1.37800   1.30000
      7712 IM1      109      IM1      DC3      DRUD    -2.880900        0.4000           0   0.00000   0.00000
      7713 IM1      109      IM1      H5       HDR5A    0.053000        1.0080           0   0.00000   0.00000
      7714 IM1      109      IM1      C4       CD2R5B   2.404400       11.6110           0   -0.868000   1.30000
      7715 IM1      109      IM1      DC4      DRUD    -2.286400        0.4000           0   0.00000   0.00000
      7716 IM1      109      IM1      H6       HDR5B    0.073000        1.0080           0   0.00000   0.00000
      7717 IM1      109      IM1      N2       ND2R5B   2.249300       13.6070           0   -0.840000   1.00000
      7718 IM1      109      IM1      DN2      DRUD    -2.249300        0.4000           0   0.00000   0.00000
      7719 IM1      109      IM1      H7       HDP1A    0.000000        1.0080           0   0.00000   0.00000
      7720 IM1      109      IM1      LPN21    LPD     -0.474000        0.0000           -1   0.00000   0.00000
      7721 IM1      110      IM1      C1       CD33G    2.390600       11.6110           0   -1.08100   1.00000
      7722 IM1      110      IM1      DC1      DRUD    -2.551600        0.4000           0   0.00000   0.00000
      7723 IM1      110      IM1      H1       HDA3A    0.094000        1.0080           0   0.00000   0.00000
      7724 IM1      110      IM1      H2       HDA3A    0.094000        1.0080           0   0.00000   0.00000
      7725 IM1      110      IM1      H3       HDA3A    0.094000        1.0080           0   0.00000   0.00000
      7726 IM1      110      IM1      N1       ND2R5A   2.670300       13.6070           0   -1.06300   1.30000
      7727 IM1      110      IM1      DN1      DRUD    -2.530300        0.4000           0   0.00000   0.00000
      7728 IM1      110      IM1      C2       CD2R5A   2.511900       11.6110           0   -1.37800   1.30000
      7729 IM1      110      IM1      DC2      DRUD    -2.880900        0.4000           0   0.00000   0.00000
      7730 IM1      110      IM1      H4       HDR5A    0.150000        1.0080           0   0.00000   0.00000
      7731 IM1      110      IM1      C3       CD2R5A   3.068900       11.6110           0   -1.37800   1.30000
      7732 IM1      110      IM1      DC3      DRUD    -2.880900        0.4000           0   0.00000   0.00000
      7733 IM1      110      IM1      H5       HDR5A    0.053000        1.0080           0   0.00000   0.00000
      7734 IM1      110      IM1      C4       CD2R5B   2.404400       11.6110           0   -0.868000   1.30000
      7735 IM1      110      IM1      DC4      DRUD    -2.286400        0.4000           0   0.00000   0.00000
      7736 IM1      110      IM1      H6       HDR5B    0.073000        1.0080           0   0.00000   0.00000
      7737 IM1      110      IM1      N2       ND2R5B   2.249300       13.6070           0   -0.840000   1.00000
      7738 IM1      110      IM1      DN2      DRUD    -2.249300        0.4000           0   0.00000   0.00000
      7739 IM1      110      IM1      H7       HDP1A    0.000000        1.0080           0   0.00000   0.00000
      7740 IM1      110      IM1      LPN21    LPD     -0.474000        0.0000           -1   0.00000   0.00000
      7741 IM1      111      IM1      C1       CD33G    2.390600       11.6110           0   -1.08100   1.00000
      7742 IM1      111      IM1      DC1      DRUD    -2.551600        0.4000           0   0.00000   0.00000
      7743 IM1      111      IM1      H1       HDA3A    0.094000        1.0080           0   0.00000   0.00000
      7744 IM1      111      IM1      H2       HDA3A    0.094000        1.0080           0   0.00000   0.00000
      7745 IM1      111      IM1      H3       HDA3A    0.094000        1.0080           0   0.00000   0.00000
      7746 IM1      111      IM1      N1       ND2R5A   2.670300       13.6070           0   -1.06300   1.30000
      7747 IM1      111      IM1      DN1      DRUD    -2.530300        0.4000           0   0.00000   0.00000
      7748 IM1      111      IM1      C2       CD2R5A   2.511900       11.6110           0   -1.37800   1.30000
      7749 IM1      111      IM1      DC2      DRUD    -2.880900        0.4000           0   0.00000   0.00000
      7750 IM1      111      IM1      H4       HDR5A    0.150000        1.0080           0   0.00000   0.00000
      7751 IM1      111      IM1      C3       CD2R5A   3.068900       11.6110           0   -1.37800   1.30000
      7752 IM1      111      IM1      DC3      DRUD    -2.880900        0.4000           0   0.00000   0.00000
      7753 IM1      111      IM1      H5       HDR5A    0.053000        1.0080           0   0.00000   0.00000
      7754 IM1      111      IM1      C4       CD2R5B   2.404400       11.6110           0   -0.868000   1.30000
      7755 IM1      111      IM1      DC4      DRUD    -2.286400        0.4000           0   0.00000   0.00000
      7756 IM1      111      IM1      H6       HDR5B    0.073000        1.0080           0   0.00000   0.00000
      7757 IM1      111      IM1      N2       ND2R5B   2.249300       13.6070           0   -0.840000   1.00000
      7758 IM1      111      IM1      DN2      DRUD    -2.249300        0.4000           0   0.00000   0.00000
      7759 IM1      111      IM1      H7       HDP1A    0.000000        1.0080           0   0.00000   0.00000
      7760 IM1      111      IM1      LPN21    LPD     -0.474000        0.0000           -1   0.00000   0.00000
      7761 IM1      112      IM1      C1       CD33G    2.390600       11.6110           0   -1.08100   1.00000
      7762 IM1      112      IM1      DC1      DRUD    -2.551600        0.4000           0   0.00000   0.00000
      7763 IM1      112      IM1      H1       HDA3A    0.094000        1.0080           0   0.00000   0.00000
      7764 IM1      112      IM1      H2       HDA3A    0.094000        1.0080           0   0.00000   0.00000
      7765 IM1      112      IM1      H3       HDA3A    0.094000        1.0080           0   0.00000   0.00000
      7766 IM1      112      IM1      N1       ND2R5A   2.670300       13.6070           0   -1.06300   1.30000
      7767 IM1      112      IM1      DN1      DRUD    -2.530300        0.4000           0   0.00000   0.00000
      7768 IM1      112      IM1      C2       CD2R5A   2.511900       11.6110           0   -1.37800   1.30000
      7769 IM1      112      IM1      DC2      DRUD    -2.880900        0.4000           0   0.00000   0.00000
      7770 IM1      112      IM1      H4       HDR5A    0.150000        1.0080           0   0.00000   0.00000
      7771 IM1      112      IM1      C3       CD2R5A   3.068900       11.6110           0   -1.37800   1.30000
      7772 IM1      112      IM1      DC3      DRUD    -2.880900        0.4000           0   0.00000   0.00000
      7773 IM1      112      IM1      H5       HDR5A    0.053000        1.0080           0   0.00000   0.00000
      7774 IM1      112      IM1      C4       CD2R5B   2.404400       11.6110           0   -0.868000   1.30000
      7775 IM1      112      IM1      DC4      DRUD    -2.286400        0.4000           0   0.00000   0.00000
      7776 IM1      112      IM1      H6       HDR5B    0.073000        1.0080           0   0.00000   0.00000
      7777 IM1      112      IM1      N2       ND2R5B   2.249300       13.6070           0   -0.840000   1.00000
      7778 IM1      112      IM1      DN2      DRUD    -2.249300        0.4000           0   0.00000   0.00000
      7779 IM1      112      IM1      H7       HDP1A    0.000000        1.0080           0   0.00000   0.00000
      7780 IM1      112      IM1      LPN21    LPD     -0.474000        0.0000           -1   0.00000   0.00000
      7781 IM1      113      IM1      C1       CD33G    2.390600       11.6110           0   -1.08100   1.00000
      7782 IM1      113      IM1      DC1      DRUD    -2.551600        0.4000           0   0.00000   0.00000
      7783 IM1      113      IM1      H1       HDA3A    0.094000        1.0080           0   0.00000   0.00000
      7784 IM1      113      IM1      H2       HDA3A    0.094000        1.0080           0   0.00000   0.00000
      7785 IM1      113      IM1      H3       HDA3A    0.094000        1.0080           0   0.00000   0.00000
      7786 IM1      113      IM1      N1       ND2R5A   2.670300       13.6070           0   -1.06300   1.30000
      7787 IM1      113      IM1      DN1      DRUD    -2.530300        0.4000           0   0.00000   0.00000
      7788 IM1      113      IM1      C2       CD2R5A   2.511900       11.6110           0   -1.37800   1.30000
      7789 IM1      113      IM1      DC2      DRUD    -2.880900        0.4000           0   0.00000   0.00000
      7790 IM1      113      IM1      H4       HDR5A    0.150000        1.0080           0   0.00000   0.00000
      7791 IM1      113      IM1      C3       CD2R5A   3.068900       11.6110           0   -1.37800   1.30000
      7792 IM1      113      IM1      DC3      DRUD    -2.880900        0.4000           0   0.00000   0.00000
      7793 IM1      113      IM1      H5       HDR5A    0.053000        1.0080           0   0.00000   0.00000
      7794 IM1      113      IM1      C4       CD2R5B   2.404400       11.6110           0   -0.868000   1.30000
      7795 IM1      113      IM1      DC4      DRUD    -2.286400        0.4000           0   0.00000   0.00000
      7796 IM1      113      IM1      H6       HDR5B    0.073000        1.0080           0   0.00000   0.00000
      7797 IM1      113      IM1      N2       ND2R5B   2.249300       13.6070           0   -0.840000   1.00000
      7798 IM1      113      IM1      DN2      DRUD    -2.249300        0.4000           0   0.00000   0.00000
      7799 IM1      113      IM1      H7       HDP1A    0.000000        1.0080           0   0.00000   0.00000
      7800 IM1      113      IM1      LPN21    LPD     -0.474000        0.0000           -1   0.00000   0.00000
      7801 IM1      114      IM1      C1       CD33G    2.390600       11.6110           0   -1.08100   1.00000
      7802 IM1      114      IM1      DC1      DRUD    -2.551600        0.4000           0   0.00000   0.00000
      7803 IM1      114      IM1      H1       HDA3A    0.094000        1.0080           0   0.00000   0.00000
      7804 IM1      114      IM1      H2       HDA3A    0.094000        1.0080           0   0.00000   0.00000
      7805 IM1      114      IM1      H3       HDA3A    0.094000        1.0080           0   0.00000   0.00000
      7806 IM1      114      IM1      N1       ND2R5A   2.670300       13.6070           0   -1.06300   1.30000
      7807 IM1      114      IM1      DN1      DRUD    -2.530300        0.4000           0   0.00000   0.00000
      7808 IM1      114      IM1      C2       CD2R5A   2.511900       11.6110           0   -1.37800   1.30000
      7809 IM1      114      IM1      DC2      DRUD    -2.880900        0.4000           0   0.00000   0.00000
      7810 IM1      114      IM1      H4       HDR5A    0.150000        1.0080           0   0.00000   0.00000
      7811 IM1      114      IM1      C3       CD2R5A   3.068900       11.6110           0   -1.37800   1.30000
      7812 IM1      114      IM1      DC3      DRUD    -2.880900        0.4000           0   0.00000   0.00000
      7813 IM1      114      IM1      H5       HDR5A    0.053000        1.0080           0   0.00000   0.00000
      7814 IM1      114      IM1      C4       CD2R5B   2.404400       11.6110           0   -0.868000   1.30000
      7815 IM1      114      IM1      DC4      DRUD    -2.286400        0.4000           0   0.00000   0.00000
      7816 IM1      114      IM1      H6       HDR5B    0.073000        1.0080           0   0.00000   0.00000
      7817 IM1      114      IM1      N2       ND2R5B   2.249300       13.6070           0   -0.840000   1.00000
      7818 IM1      114      IM1      DN2      DRUD    -2.249300        0.4000           0   0.00000   0.00000
      7819 IM1      114      IM1      H7       HDP1A    0.000000        1.0080           0   0.00000   0.00000
      7820 IM1      114      IM1      LPN21    LPD     -0.474000        0.0000           -1   0.00000   0.00000
      7821 IM1      115      IM1      C1       CD33G    2.390600       11.6110           0   -1.08100   1.00000
      7822 IM1      115      IM1      DC1      DRUD    -2.551600        0.4000           0   0.00000   0.00000
      7823 IM1      115      IM1      H1       HDA3A    0.094000        1.0080           0   0.00000   0.00000
      7824 IM1      115      IM1      H2       HDA3A    0.094000        1.0080           0   0.00000   0.00000
      7825 IM1      115      IM1      H3       HDA3A    0.094000        1.0080           0   0.00000   0.00000
      7826 IM1      115      IM1      N1       ND2R5A   2.670300       13.6070           0   -1.06300   1.30000
      7827 IM1      115      IM1      DN1      DRUD    -2.530300        0.4000           0   0.00000   0.00000
      7828 IM1      115      IM1      C2       CD2R5A   2.511900       11.6110           0   -1.37800   1.30000
      7829 IM1      115      IM1      DC2      DRUD    -2.880900        0.4000           0   0.00000   0.00000
      7830 IM1      115      IM1      H4       HDR5A    0.150000        1.0080           0   0.00000   0.00000
      7831 IM1      115      IM1      C3       CD2R5A   3.068900       11.6110           0   -1.37800   1.30000
      7832 IM1      115      IM1      DC3      DRUD    -2.880900        0.4000           0   0.00000   0.00000
      7833 IM1      115      IM1      H5       HDR5A    0.053000        1.0080           0   0.00000   0.00000
      7834 IM1      115      IM1      C4       CD2R5B   2.404400       11.6110           0   -0.868000   1.30000
      7835 IM1      115      IM1      DC4      DRUD    -2.286400        0.4000           0   0.00000   0.00000
      7836 IM1      115      IM1      H6       HDR5B    0.073000        1.0080           0   0.00000   0.00000
      7837 IM1      115      IM1      N2       ND2R5B   2.249300       13.6070           0   -0.840000   1.00000
      7838 IM1      115      IM1      DN2      DRUD    -2.249300        0.4000           0   0.00000   0.00000
      7839 IM1      115      IM1      H7       HDP1A    0.000000        1.0080           0   0.00000   0.00000
      7840 IM1      115      IM1      LPN21    LPD     -0.474000        0.0000           -1   0.00000   0.00000
      7841 IM1      116      IM1      C1       CD33G    2.390600       11.6110           0   -1.08100   1.00000
      7842 IM1      116      IM1      DC1      DRUD    -2.551600        0.4000           0   0.00000   0.00000
      7843 IM1      116      IM1      H1       HDA3A    0.094000        1.0080           0   0.00000   0.00000
      7844 IM1      116      IM1      H2       HDA3A    0.094000        1.0080           0   0.00000   0.00000
      7845 IM1      116      IM1      H3       HDA3A    0.094000        1.0080           0   0.00000   0.00000
      7846 IM1      116      IM1      N1       ND2R5A   2.670300       13.6070           0   -1.06300   1.30000
      7847 IM1      116      IM1      DN1      DRUD    -2.530300        0.4000           0   0.00000   0.00000
      7848 IM1      116      IM1      C2       CD2R5A   2.511900       11.6110           0   -1.37800   1.30000
      7849 IM1      116      IM1      DC2      DRUD    -2.880900        0.4000           0   0.00000   0.00000
      7850 IM1      116      IM1      H4       HDR5A    0.150000        1.0080           0   0.00000   0.00000
      7851 IM1      116      IM1      C3       CD2R5A   3.068900       11.6110           0   -1.37800   1.30000
      7852 IM1      116      IM1      DC3      DRUD    -2.880900        0.4000           0   0.00000   0.00000
      7853 IM1      116      IM1      H5       HDR5A    0.053000        1.0080           0   0.00000   0.00000
      7854 IM1      116      IM1      C4       CD2R5B   2.404400       11.6110           0   -0.868000   1.30000
      7855 IM1      116      IM1      DC4      DRUD    -2.286400        0.4000           0   0.00000   0.00000
      7856 IM1      116      IM1      H6       HDR5B    0.073000        1.0080           0   0.00000   0.00000
      7857 IM1      116      IM1      N2       ND2R5B   2.249300       13.6070           0   -0.840000   1.00000
      7858 IM1      116      IM1      DN2      DRUD    -2.249300        0.4000           0   0.00000   0.00000
      7859 IM1      116      IM1      H7       HDP1A    0.000000        1.0080           0   0.00000   0.00000
      7860 IM1      116      IM1      LPN21    LPD     -0.474000        0.0000           -1   0.00000   0.00000
      7861 IM1      117      IM1      C1       CD33G    2.390600       11.6110           0   -1.08100   1.00000
      7862 IM1      117      IM1      DC1      DRUD    -2.551600        0.4000           0   0.00000   0.00000
      7863 IM1      117      IM1      H1       HDA3A    0.094000        1.0080           0   0.00000   0.00000
      7864 IM1      117      IM1      H2       HDA3A    0.094000        1.0080           0   0.00000   0.00000
      7865 IM1      117      IM1      H3       HDA3A    0.094000        1.0080           0   0.00000   0.00000
      7866 IM1      117      IM1      N1       ND2R5A   2.670300       13.6070           0   -1.06300   1.30000
      7867 IM1      117      IM1      DN1      DRUD    -2.530300        0.4000           0   0.00000   0.00000
      7868 IM1      117      IM1      C2       CD2R5A   2.511900       11.6110           0   -1.37800   1.30000
      7869 IM1      117      IM1      DC2      DRUD    -2.880900        0.4000           0   0.00000   0.00000
      7870 IM1      117      IM1      H4       HDR5A    0.150000        1.0080           0   0.00000   0.00000
      7871 IM1      117      IM1      C3       CD2R5A   3.068900       11.6110           0   -1.37800   1.30000
      7872 IM1      117      IM1      DC3      DRUD    -2.880900        0.4000           0   0.00000   0.00000
      7873 IM1      117      IM1      H5       HDR5A    0.053000        1.0080           0   0.00000   0.00000
      7874 IM1      117      IM1      C4       CD2R5B   2.404400       11.6110           0   -0.868000   1.30000
      7875 IM1      117      IM1      DC4      DRUD    -2.286400        0.4000           0   0.00000   0.00000
      7876 IM1      117      IM1      H6       HDR5B    0.073000        1.0080           0   0.00000   0.00000
      7877 IM1      117      IM1      N2       ND2R5B   2.249300       13.6070           0   -0.840000   1.00000
      7878 IM1      117      IM1      DN2      DRUD    -2.249300        0.4000           0   0.00000   0.00000
      7879 IM1      117      IM1      H7       HDP1A    0.000000        1.0080           0   0.00000   0.00000
      7880 IM1      117      IM1      LPN21    LPD     -0.474000        0.0000           -1   0.00000   0.00000
      7881 IM1      118      IM1      C1       CD33G    2.390600       11.6110           0   -1.08100   1.00000
      7882 IM1      118      IM1      DC1      DRUD    -2.551600        0.4000           0   0.00000   0.00000
      7883 IM1      118      IM1      H1       HDA3A    0.094000        1.0080           0   0.00000   0.00000
      7884 IM1      118      IM1      H2       HDA3A    0.094000        1.0080           0   0.00000   0.00000
      7885 IM1      118      IM1      H3       HDA3A    0.094000        1.0080           0   0.00000   0.00000
      7886 IM1      118      IM1      N1       ND2R5A   2.670300       13.6070           0   -1.06300   1.30000
      7887 IM1      118      IM1      DN1      DRUD    -2.530300        0.4000           0   0.00000   0.00000
      7888 IM1      118      IM1      C2       CD2R5A   2.511900       11.6110           0   -1.37800   1.30000
      7889 IM1      118      IM1      DC2      DRUD    -2.880900        0.4000           0   0.00000   0.00000
      7890 IM1      118      IM1      H4       HDR5A    0.150000        1.0080           0   0.00000   0.00000
      7891 IM1      118      IM1      C3       CD2R5A   3.068900       11.6110           0   -1.37800   1.30000
      7892 IM1      118      IM1      DC3      DRUD    -2.880900        0.4000           0   0.00000   0.00000
      7893 IM1      118      IM1      H5       HDR5A    0.053000        1.0080           0   0.00000   0.00000
      7894 IM1      118      IM1      C4       CD2R5B   2.404400       11.6110           0   -0.868000   1.30000
      7895 IM1      118      IM1      DC4      DRUD    -2.286400        0.4000           0   0.00000   0.00000
      7896 IM1      118      IM1      H6       HDR5B    0.073000        1.0080           0   0.00000   0.00000
      7897 IM1      118      IM1      N2       ND2R5B   2.249300       13.6070           0   -0.840000   1.00000
      7898 IM1      118      IM1      DN2      DRUD    -2.249300        0.4000           0   0.00000   0.00000
      7899 IM1      118      IM1      H7       HDP1A    0.000000        1.0080           0   0.00000   0.00000
      7900 IM1      118      IM1      LPN21    LPD     -0.474000        0.0000           -1   0.00000   0.00000
      7901 IM1      119      IM1      C1       CD33G    2.390600       11.6110           0   -1.08100   1.00000
      7902 IM1      119      IM1      DC1      DRUD    -2.551600        0.4000           0   0.00000   0.00000
      7903 IM1      119      IM1      H1       HDA3A    0.094000        1.0080           0   0.00000   0.00000
      7904 IM1      119      IM1      H2       HDA3A    0.094000        1.0080           0   0.00000   0.00000
      7905 IM1      119      IM1      H3       HDA3A    0.094000        1.0080           0   0.00000   0.00000
      7906 IM1      119      IM1      N1       ND2R5A   2.670300       13.6070           0   -1.06300   1.30000
      7907 IM1      119      IM1      DN1      DRUD    -2.530300        0.4000           0   0.00000   0.00000
      7908 IM1      119      IM1      C2       CD2R5A   2.511900       11.6110           0   -1.37800   1.30000
      7909 IM1      119      IM1      DC2      DRUD    -2.880900        0.4000           0   0.00000   0.00000
      7910 IM1      119      IM1      H4       HDR5A    0.150000        1.0080           0   0.00000   0.00000
      7911 IM1      119      IM1      C3       CD2R5A   3.068900       11.6110           0   -1.37800   1.30000
      7912 IM1      119      IM1      DC3      DRUD    -2.880900        0.4000           0   0.00000   0.00000
      7913 IM1      119      IM1      H5       HDR5A    0.053000        1.0080           0   0.00000   0.00000
      7914 IM1      119      IM1      C4       CD2R5B   2.404400       11.6110           0   -0.868000   1.30000
      7915 IM1      119      IM1      DC4      DRUD    -2.286400        0.4000           0   0.00000   0.00000
      7916 IM1      119      IM1      H6       HDR5B    0.073000        1.0080           0   0.00000   0.00000
      7917 IM1      119      IM1      N2       ND2R5B   2.249300       13.6070           0   -0.840000   1.00000
      7918 IM1      119      IM1      DN2      DRUD    -2.249300        0.4000           0   0.00000   0.00000
      7919 IM1      119      IM1      H7       HDP1A    0.000000        1.0080           0   0.00000   0.00000
      7920 IM1      119      IM1      LPN21    LPD     -0.474000        0.0000           -1   0.00000   0.00000
      7921 IM1      120      IM1      C1       CD33G    2.390600       11.6110           0   -1.08100   1.00000
      7922 IM1      120      IM1      DC1      DRUD    -2.551600        0.4000           0   0.00000   0.00000
      7923 IM1      120      IM1      H1       HDA3A    0.094000        1.0080           0   0.00000   0.00000
      7924 IM1      120      IM1      H2       HDA3A    0.094000        1.0080           0   0.00000   0.00000
      7925 IM1      120      IM1      H3       HDA3A    0.094000        1.0080           0   0.00000   0.00000
      7926 IM1      120      IM1      N1       ND2R5A   2.670300       13.6070           0   -1.06300   1.30000
      7927 IM1      120      IM1      DN1      DRUD    -2.530300        0.4000           0   0.00000   0.00000
      7928 IM1      120      IM1      C2       CD2R5A   2.511900       11.6110           0   -1.37800   1.30000
      7929 IM1      120      IM1      DC2      DRUD    -2.880900        0.4000           0   0.00000   0.00000
      7930 IM1      120      IM1      H4       HDR5A    0.150000        1.0080           0   0.00000   0.00000
      7931 IM1      120      IM1      C3       CD2R5A   3.068900       11.6110           0   -1.37800   1.30000
      7932 IM1      120      IM1      DC3      DRUD    -2.880900        0.4000           0   0.00000   0.00000
      7933 IM1      120      IM1      H5       HDR5A    0.053000        1.0080           0   0.00000   0.00000
      7934 IM1      120      IM1      C4       CD2R5B   2.404400       11.6110           0   -0.868000   1.30000
      7935 IM1      120      IM1      DC4      DRUD    -2.286400        0.4000           0   0.00000   0.00000
      7936 IM1      120      IM1      H6       HDR5B    0.073000        1.0080           0   0.00000   0.00000
      7937 IM1      120      IM1      N2       ND2R5B   2.249300       13.6070           0   -0.840000   1.00000
      7938 IM1      120      IM1      DN2      DRUD    -2.249300        0.4000           0   0.00000   0.00000
      7939 IM1      120      IM1      H7       HDP1A    0.000000        1.0080           0   0.00000   0.00000
      7940 IM1      120      IM1      LPN21    LPD     -0.474000        0.0000           -1   0.00000   0.00000
      7941 IM1      121      IM1      C1       CD33G    2.390600       11.6110           0   -1.08100   1.00000
      7942 IM1      121      IM1      DC1      DRUD    -2.551600        0.4000           0   0.00000   0.00000
      7943 IM1      121      IM1      H1       HDA3A    0.094000        1.0080           0   0.00000   0.00000
      7944 IM1      121      IM1      H2       HDA3A    0.094000        1.0080           0   0.00000   0.00000
      7945 IM1      121      IM1      H3       HDA3A    0.094000        1.0080           0   0.00000   0.00000
      7946 IM1      121      IM1      N1       ND2R5A   2.670300       13.6070           0   -1.06300   1.30000
      7947 IM1      121      IM1      DN1      DRUD    -2.530300        0.4000           0   0.00000   0.00000
      7948 IM1      121      IM1      C2       CD2R5A   2.511900       11.6110           0   -1.37800   1.30000
      7949 IM1      121      IM1      DC2      DRUD    -2.880900        0.4000           0   0.00000   0.00000
      7950 IM1      121      IM1      H4       HDR5A    0.150000        1.0080           0   0.00000   0.00000
      7951 IM1      121      IM1      C3       CD2R5A   3.068900       11.6110           0   -1.37800   1.30000
      7952 IM1      121      IM1      DC3      DRUD    -2.880900        0.4000           0   0.00000   0.00000
      7953 IM1      121      IM1      H5       HDR5A    0.053000        1.0080           0   0.00000   0.00000
      7954 IM1      121      IM1      C4       CD2R5B   2.404400       11.6110           0   -0.868000   1.30000
      7955 IM1      121      IM1      DC4      DRUD    -2.286400        0.4000           0   0.00000   0.00000
      7956 IM1      121      IM1      H6       HDR5B    0.073000        1.0080           0   0.00000   0.00000
      7957 IM1      121      IM1      N2       ND2R5B   2.249300       13.6070           0   -0.840000   1.00000
      7958 IM1      121      IM1      DN2      DRUD    -2.249300        0.4000           0   0.00000   0.00000
      7959 IM1      121      IM1      H7       HDP1A    0.000000        1.0080           0   0.00000   0.00000
      7960 IM1      121      IM1      LPN21    LPD     -0.474000        0.0000           -1   0.00000   0.00000
      7961 IM1      122      IM1      C1       CD33G    2.390600       11.6110           0   -1.08100   1.00000
      7962 IM1      122      IM1      DC1      DRUD    -2.551600        0.4000           0   0.00000   0.00000
      7963 IM1      122      IM1      H1       HDA3A    0.094000        1.0080           0   0.00000   0.00000
      7964 IM1      122      IM1      H2       HDA3A    0.094000        1.0080           0   0.00000   0.00000
      7965 IM1      122      IM1      H3       HDA3A    0.094000        1.0080           0   0.00000   0.00000
      7966 IM1      122      IM1      N1       ND2R5A   2.670300       13.6070           0   -1.06300   1.30000
      7967 IM1      122      IM1      DN1      DRUD    -2.530300        0.4000           0   0.00000   0.00000
      7968 IM1      122      IM1      C2       CD2R5A   2.511900       11.6110           0   -1.37800   1.30000
      7969 IM1      122      IM1      DC2      DRUD    -2.880900        0.4000           0   0.00000   0.00000
      7970 IM1      122      IM1      H4       HDR5A    0.150000        1.0080           0   0.00000   0.00000
      7971 IM1      122      IM1      C3       CD2R5A   3.068900       11.6110           0   -1.37800   1.30000
      7972 IM1      122      IM1      DC3      DRUD    -2.880900        0.4000           0   0.00000   0.00000
      7973 IM1      122      IM1      H5       HDR5A    0.053000        1.0080           0   0.00000   0.00000
      7974 IM1      122      IM1      C4       CD2R5B   2.404400       11.6110           0   -0.868000   1.30000
      7975 IM1      122      IM1      DC4      DRUD    -2.286400        0.4000           0   0.00000   0.00000
      7976 IM1      122      IM1      H6       HDR5B    0.073000        1.0080           0   0.00000   0.00000
      7977 IM1      122      IM1      N2       ND2R5B   2.249300       13.6070           0   -0.840000   1.00000
      7978 IM1      122      IM1      DN2      DRUD    -2.249300        0.4000           0   0.00000   0.00000
      7979 IM1      122      IM1      H7       HDP1A    0.000000        1.0080           0   0.00000   0.00000
      7980 IM1      122      IM1      LPN21    LPD     -0.474000        0.0000           -1   0.00000   0.00000
      7981 IM1      123      IM1      C1       CD33G    2.390600       11.6110           0   -1.08100   1.00000
      7982 IM1      123      IM1      DC1      DRUD    -2.551600        0.4000           0   0.00000   0.00000
      7983 IM1      123      IM1      H1       HDA3A    0.094000        1.0080           0   0.00000   0.00000
      7984 IM1      123      IM1      H2       HDA3A    0.094000        1.0080           0   0.00000   0.00000
      7985 IM1      123      IM1      H3       HDA3A    0.094000        1.0080           0   0.00000   0.00000
      7986 IM1      123      IM1      N1       ND2R5A   2.670300       13.6070           0   -1.06300   1.30000
      7987 IM1      123      IM1      DN1      DRUD    -2.530300        0.4000           0   0.00000   0.00000
      7988 IM1      123      IM1      C2       CD2R5A   2.511900       11.6110           0   -1.37800   1.30000
      7989 IM1      123      IM1      DC2      DRUD    -2.880900        0.4000           0   0.00000   0.00000
      7990 IM1      123      IM1      H4       HDR5A    0.150000        1.0080           0   0.00000   0.00000
      7991 IM1      123      IM1      C3       CD2R5A   3.068900       11.6110           0   -1.37800   1.30000
      7992 IM1      123      IM1      DC3      DRUD    -2.880900        0.4000           0   0.00000   0.00000
      7993 IM1      123      IM1      H5       HDR5A    0.053000        1.0080           0   0.00000   0.00000
      7994 IM1      123      IM1      C4       CD2R5B   2.404400       11.6110           0   -0.868000   1.30000
      7995 IM1      123      IM1      DC4      DRUD    -2.286400        0.4000           0   0.00000   0.00000
      7996 IM1      123      IM1      H6       HDR5B    0.073000        1.0080           0   0.00000   0.00000
      7997 IM1      123      IM1      N2       ND2R5B   2.249300       13.6070           0   -0.840000   1.00000
      7998 IM1      123      IM1      DN2      DRUD    -2.249300        0.4000           0   0.00000   0.00000
      7999 IM1      123      IM1      H7       HDP1A    0.000000        1.0080           0   0.00000   0.00000
      8000 IM1      123      IM1      LPN21    LPD     -0.474000        0.0000           -1   0.00000   0.00000
      8001 IM1      124      IM1      C1       CD33G    2.390600       11.6110           0   -1.08100   1.00000
      8002 IM1      124      IM1      DC1      DRUD    -2.551600        0.4000           0   0.00000   0.00000
      8003 IM1      124      IM1      H1       HDA3A    0.094000        1.0080           0   0.00000   0.00000
      8004 IM1      124      IM1      H2       HDA3A    0.094000        1.0080           0   0.00000   0.00000
      8005 IM1      124      IM1      H3       HDA3A    0.094000        1.0080           0   0.00000   0.00000
      8006 IM1      124      IM1      N1       ND2R5A   2.670300       13.6070           0   -1.06300   1.30000
      8007 IM1      124      IM1      DN1      DRUD    -2.530300        0.4000           0   0.00000   0.00000
      8008 IM1      124      IM1      C2       CD2R5A   2.511900       11.6110           0   -1.37800   1.30000
      8009 IM1      124      IM1      DC2      DRUD    -2.880900        0.4000           0   0.00000   0.00000
      8010 IM1      124      IM1      H4       HDR5A    0.150000        1.0080           0   0.00000   0.00000
      8011 IM1      124      IM1      C3       CD2R5A   3.068900       11.6110           0   -1.37800   1.30000
      8012 IM1      124      IM1      DC3      DRUD    -2.880900        0.4000           0   0.00000   0.00000
      8013 IM1      124      IM1      H5       HDR5A    0.053000        1.0080           0   0.00000   0.00000
      8014 IM1      124      IM1      C4       CD2R5B   2.404400       11.6110           0   -0.868000   1.30000
      8015 IM1      124      IM1      DC4      DRUD    -2.286400        0.4000           0   0.00000   0.00000
      8016 IM1      124      IM1      H6       HDR5B    0.073000        1.0080           0   0.00000   0.00000
      8017 IM1      124      IM1      N2       ND2R5B   2.249300       13.6070           0   -0.840000   1.00000
      8018 IM1      124      IM1      DN2      DRUD    -2.249300        0.4000           0   0.00000   0.00000
      8019 IM1      124      IM1      H7       HDP1A    0.000000        1.0080           0   0.00000   0.00000
      8020 IM1      124      IM1      LPN21    LPD     -0.474000        0.0000           -1   0.00000   0.00000
      8021 IM1      125      IM1      C1       CD33G    2.390600       11.6110           0   -1.08100   1.00000
      8022 IM1      125      IM1      DC1      DRUD    -2.551600        0.4000           0   0.00000   0.00000
      8023 IM1      125      IM1      H1       HDA3A    0.094000        1.0080           0   0.00000   0.00000
      8024 IM1      125      IM1      H2       HDA3A    0.094000        1.0080           0   0.00000   0.00000
      8025 IM1      125      IM1      H3       HDA3A    0.094000        1.0080           0   0.00000   0.00000
      8026 IM1      125      IM1      N1       ND2R5A   2.670300       13.6070           0   -1.06300   1.30000
      8027 IM1      125      IM1      DN1      DRUD    -2.530300        0.4000           0   0.00000   0.00000
      8028 IM1      125      IM1      C2       CD2R5A   2.511900       11.6110           0   -1.37800   1.30000
      8029 IM1      125      IM1      DC2      DRUD    -2.880900        0.4000           0   0.00000   0.00000
      8030 IM1      125      IM1      H4       HDR5A    0.150000        1.0080           0   0.00000   0.00000
      8031 IM1      125      IM1      C3       CD2R5A   3.068900       11.6110           0   -1.37800   1.30000
      8032 IM1      125      IM1      DC3      DRUD    -2.880900        0.4000           0   0.00000   0.00000
      8033 IM1      125      IM1      H5       HDR5A    0.053000        1.0080           0   0.00000   0.00000
      8034 IM1      125      IM1      C4       CD2R5B   2.404400       11.6110           0   -0.868000   1.30000
      8035 IM1      125      IM1      DC4      DRUD    -2.286400        0.4000           0   0.00000   0.00000
      8036 IM1      125      IM1      H6       HDR5B    0.073000        1.0080           0   0.00000   0.00000
      8037 IM1      125      IM1      N2       ND2R5B   2.249300       13.6070           0   -0.840000   1.00000
      8038 IM1      125      IM1      DN2      DRUD    -2.249300        0.4000           0   0.00000   0.00000
      8039 IM1      125      IM1      H7       HDP1A    0.000000        1.0080           0   0.00000   0.00000
      8040 IM1      125      IM1      LPN21    LPD     -0.474000        0.0000           -1   0.00000   0.00000
      8041 IM1      126      IM1      C1       CD33G    2.390600       11.6110           0   -1.08100   1.00000
      8042 IM1      126      IM1      DC1      DRUD    -2.551600        0.4000           0   0.00000   0.00000
      8043 IM1      126      IM1      H1       HDA3A    0.094000        1.0080           0   0.00000   0.00000
      8044 IM1      126      IM1      H2       HDA3A    0.094000        1.0080           0   0.00000   0.00000
      8045 IM1      126      IM1      H3       HDA3A    0.094000        1.0080           0   0.00000   0.00000
      8046 IM1      126      IM1      N1       ND2R5A   2.670300       13.6070           0   -1.06300   1.30000
      8047 IM1      126      IM1      DN1      DRUD    -2.530300        0.4000           0   0.00000   0.00000
      8048 IM1      126      IM1      C2       CD2R5A   2.511900       11.6110           0   -1.37800   1.30000
      8049 IM1      126      IM1      DC2      DRUD    -2.880900        0.4000           0   0.00000   0.00000
      8050 IM1      126      IM1      H4       HDR5A    0.150000        1.0080           0   0.00000   0.00000
      8051 IM1      126      IM1      C3       CD2R5A   3.068900       11.6110           0   -1.37800   1.30000
      8052 IM1      126      IM1      DC3      DRUD    -2.880900        0.4000           0   0.00000   0.00000
      8053 IM1      126      IM1      H5       HDR5A    0.053000        1.0080           0   0.00000   0.00000
      8054 IM1      126      IM1      C4       CD2R5B   2.404400       11.6110           0   -0.868000   1.30000
      8055 IM1      126      IM1      DC4      DRUD    -2.286400        0.4000           0   0.00000   0.00000
      8056 IM1      126      IM1      H6       HDR5B    0.073000        1.0080           0   0.00000   0.00000
      8057 IM1      126      IM1      N2       ND2R5B   2.249300       13.6070           0   -0.840000   1.00000
      8058 IM1      126      IM1      DN2      DRUD    -2.249300        0.4000           0   0.00000   0.00000
      8059 IM1      126      IM1      H7       HDP1A    0.000000        1.0080           0   0.00000   0.00000
      8060 IM1      126      IM1      LPN21    LPD     -0.474000        0.0000           -1   0.00000   0.00000
      8061 IM1      127      IM1      C1       CD33G    2.390600       11.6110           0   -1.08100   1.00000
      8062 IM1      127      IM1      DC1      DRUD    -2.551600        0.4000           0   0.00000   0.00000
      8063 IM1      127      IM1      H1       HDA3A    0.094000        1.0080           0   0.00000   0.00000
      8064 IM1      127      IM1      H2       HDA3A    0.094000        1.0080           0   0.00000   0.00000
      8065 IM1      127      IM1      H3       HDA3A    0.094000        1.0080           0   0.00000   0.00000
      8066 IM1      127      IM1      N1       ND2R5A   2.670300       13.6070           0   -1.06300   1.30000
      8067 IM1      127      IM1      DN1      DRUD    -2.530300        0.4000           0   0.00000   0.00000
      8068 IM1      127      IM1      C2       CD2R5A   2.511900       11.6110           0   -1.37800   1.30000
      8069 IM1      127      IM1      DC2      DRUD    -2.880900        0.4000           0   0.00000   0.00000
      8070 IM1      127      IM1      H4       HDR5A    0.150000        1.0080           0   0.00000   0.00000
      8071 IM1      127      IM1      C3       CD2R5A   3.068900       11.6110           0   -1.37800   1.30000
      8072 IM1      127      IM1      DC3      DRUD    -2.880900        0.4000           0   0.00000   0.00000
      8073 IM1      127      IM1      H5       HDR5A    0.053000        1.0080           0   0.00000   0.00000
      8074 IM1      127      IM1      C4       CD2R5B   2.404400       11.6110           0   -0.868000   1.30000
      8075 IM1      127      IM1      DC4      DRUD    -2.286400        0.4000           0   0.00000   0.00000
      8076 IM1      127      IM1      H6       HDR5B    0.073000        1.0080           0   0.00000   0.00000
      8077 IM1      127      IM1      N2       ND2R5B   2.249300       13.6070           0   -0.840000   1.00000
      8078 IM1      127      IM1      DN2      DRUD    -2.249300        0.4000           0   0.00000   0.00000
      8079 IM1      127      IM1      H7       HDP1A    0.000000        1.0080           0   0.00000   0.00000
      8080 IM1      127      IM1      LPN21    LPD     -0.474000        0.0000           -1   0.00000   0.00000
      8081 IM1      128      IM1      C1       CD33G    2.390600       11.6110           0   -1.08100   1.00000
      8082 IM1      128      IM1      DC1      DRUD    -2.551600        0.4000           0   0.00000   0.00000
      8083 IM1      128      IM1      H1       HDA3A    0.094000        1.0080           0   0.00000   0.00000
      8084 IM1      128      IM1      H2       HDA3A    0.094000        1.0080           0   0.00000   0.00000
      8085 IM1      128      IM1      H3       HDA3A    0.094000        1.0080           0   0.00000   0.00000
      8086 IM1      128      IM1      N1       ND2R5A   2.670300       13.6070           0   -1.06300   1.30000
      8087 IM1      128      IM1      DN1      DRUD    -2.530300        0.4000           0   0.00000   0.00000
      8088 IM1      128      IM1      C2       CD2R5A   2.511900       11.6110           0   -1.37800   1.30000
      8089 IM1      128      IM1      DC2      DRUD    -2.880900        0.4000           0   0.00000   0.00000
      8090 IM1      128      IM1      H4       HDR5A    0.150000        1.0080           0   0.00000   0.00000
      8091 IM1      128      IM1      C3       CD2R5A   3.068900       11.6110           0   -1.37800   1.30000
      8092 IM1      128      IM1      DC3      DRUD    -2.880900        0.4000           0   0.00000   0.00000
      8093 IM1      128      IM1      H5       HDR5A    0.053000        1.0080           0   0.00000   0.00000
      8094 IM1      128      IM1      C4       CD2R5B   2.404400       11.6110           0   -0.868000   1.30000
      8095 IM1      128      IM1      DC4      DRUD    -2.286400        0.4000           0   0.00000   0.00000
      8096 IM1      128      IM1      H6       HDR5B    0.073000        1.0080           0   0.00000   0.00000
      8097 IM1      128      IM1      N2       ND2R5B   2.249300       13.6070           0   -0.840000   1.00000
      8098 IM1      128      IM1      DN2      DRUD    -2.249300        0.4000           0   0.00000   0.00000
      8099 IM1      128      IM1      H7       HDP1A    0.000000        1.0080           0   0.00000   0.00000
      8100 IM1      128      IM1      LPN21    LPD     -0.474000        0.0000           -1   0.00000   0.00000
      8101 IM1      129      IM1      C1       CD33G    2.390600       11.6110           0   -1.08100   1.00000
      8102 IM1      129      IM1      DC1      DRUD    -2.551600        0.4000           0   0.00000   0.00000
      8103 IM1      129      IM1      H1       HDA3A    0.094000        1.0080           0   0.00000   0.00000
      8104 IM1      129      IM1      H2       HDA3A    0.094000        1.0080           0   0.00000   0.00000
      8105 IM1      129      IM1      H3       HDA3A    0.094000        1.0080           0   0.00000   0.00000
      8106 IM1      129      IM1      N1       ND2R5A   2.670300       13.6070           0   -1.06300   1.30000
      8107 IM1      129      IM1      DN1      DRUD    -2.530300        0.4000           0   0.00000   0.00000
      8108 IM1      129      IM1      C2       CD2R5A   2.511900       11.6110           0   -1.37800   1.30000
      8109 IM1      129      IM1      DC2      DRUD    -2.880900        0.4000           0   0.00000   0.00000
      8110 IM1      129      IM1      H4       HDR5A    0.150000        1.0080           0   0.00000   0.00000
      8111 IM1      129      IM1      C3       CD2R5A   3.068900       11.6110           0   -1.37800   1.30000
      8112 IM1      129      IM1      DC3      DRUD    -2.880900        0.4000           0   0.00000   0.00000
      8113 IM1      129      IM1      H5       HDR5A    0.053000        1.0080           0   0.00000   0.00000
      8114 IM1      129      IM1      C4       CD2R5B   2.404400       11.6110           0   -0.868000   1.30000
      8115 IM1      129      IM1      DC4      DRUD    -2.286400        0.4000           0   0.00000   0.00000
      8116 IM1      129      IM1      H6       HDR5B    0.073000        1.0080           0   0.00000   0.00000
      8117 IM1      129      IM1      N2       ND2R5B   2.249300       13.6070           0   -0.840000   1.00000
      8118 IM1      129      IM1      DN2      DRUD    -2.249300        0.4000           0   0.00000   0.00000
      8119 IM1      129      IM1      H7       HDP1A    0.000000        1.0080           0   0.00000   0.00000
      8120 IM1      129      IM1      LPN21    LPD     -0.474000        0.0000           -1   0.00000   0.00000
      8121 IM1      130      IM1      C1       CD33G    2.390600       11.6110           0   -1.08100   1.00000
      8122 IM1      130      IM1      DC1      DRUD    -2.551600        0.4000           0   0.00000   0.00000
      8123 IM1      130      IM1      H1       HDA3A    0.094000        1.0080           0   0.00000   0.00000
      8124 IM1      130      IM1      H2       HDA3A    0.094000        1.0080           0   0.00000   0.00000
      8125 IM1      130      IM1      H3       HDA3A    0.094000        1.0080           0   0.00000   0.00000
      8126 IM1      130      IM1      N1       ND2R5A   2.670300       13.6070           0   -1.06300   1.30000
      8127 IM1      130      IM1      DN1      DRUD    -2.530300        0.4000           0   0.00000   0.00000
      8128 IM1      130      IM1      C2       CD2R5A   2.511900       11.6110           0   -1.37800   1.30000
      8129 IM1      130      IM1      DC2      DRUD    -2.880900        0.4000           0   0.00000   0.00000
      8130 IM1      130      IM1      H4       HDR5A    0.150000        1.0080           0   0.00000   0.00000
      8131 IM1      130      IM1      C3       CD2R5A   3.068900       11.6110           0   -1.37800   1.30000
      8132 IM1      130      IM1      DC3      DRUD    -2.880900        0.4000           0   0.00000   0.00000
      8133 IM1      130      IM1      H5       HDR5A    0.053000        1.0080           0   0.00000   0.00000
      8134 IM1      130      IM1      C4       CD2R5B   2.404400       11.6110           0   -0.868000   1.30000
      8135 IM1      130      IM1      DC4      DRUD    -2.286400        0.4000           0   0.00000   0.00000
      8136 IM1      130      IM1      H6       HDR5B    0.073000        1.0080           0   0.00000   0.00000
      8137 IM1      130      IM1      N2       ND2R5B   2.249300       13.6070           0   -0.840000   1.00000
      8138 IM1      130      IM1      DN2      DRUD    -2.249300        0.4000           0   0.00000   0.00000
      8139 IM1      130      IM1      H7       HDP1A    0.000000        1.0080           0   0.00000   0.00000
      8140 IM1      130      IM1      LPN21    LPD     -0.474000        0.0000           -1   0.00000   0.00000
      8141 IM1      131      IM1      C1       CD33G    2.390600       11.6110           0   -1.08100   1.00000
      8142 IM1      131      IM1      DC1      DRUD    -2.551600        0.4000           0   0.00000   0.00000
      8143 IM1      131      IM1      H1       HDA3A    0.094000        1.0080           0   0.00000   0.00000
      8144 IM1      131      IM1      H2       HDA3A    0.094000        1.0080           0   0.00000   0.00000
      8145 IM1      131      IM1      H3       HDA3A    0.094000        1.0080           0   0.00000   0.00000
      8146 IM1      131      IM1      N1       ND2R5A   2.670300       13.6070           0   -1.06300   1.30000
      8147 IM1      131      IM1      DN1      DRUD    -2.530300        0.4000           0   0.00000   0.00000
      8148 IM1      131      IM1      C2       CD2R5A   2.511900       11.6110           0   -1.37800   1.30000
      8149 IM1      131      IM1      DC2      DRUD    -2.880900        0.4000           0   0.00000   0.00000
      8150 IM1      131      IM1      H4       HDR5A    0.150000        1.0080           0   0.00000   0.00000
      8151 IM1      131      IM1      C3       CD2R5A   3.068900       11.6110           0   -1.37800   1.30000
      8152 IM1      131      IM1      DC3      DRUD    -2.880900        0.4000           0   0.00000   0.00000
      8153 IM1      131      IM1      H5       HDR5A    0.053000        1.0080           0   0.00000   0.00000
      8154 IM1      131      IM1      C4       CD2R5B   2.404400       11.6110           0   -0.868000   1.30000
      8155 IM1      131      IM1      DC4      DRUD    -2.286400        0.4000           0   0.00000   0.00000
      8156 IM1      131      IM1      H6       HDR5B    0.073000        1.0080           0   0.00000   0.00000
      8157 IM1      131      IM1      N2       ND2R5B   2.249300       13.6070           0   -0.840000   1.00000
      8158 IM1      131      IM1      DN2      DRUD    -2.249300        0.4000           0   0.00000   0.00000
      8159 IM1      131      IM1      H7       HDP1A    0.000000        1.0080           0   0.00000   0.00000
      8160 IM1      131      IM1      LPN21    LPD     -0.474000        0.0000           -1   0.00000   0.00000
      8161 IM1      132      IM1      C1       CD33G    2.390600       11.6110           0   -1.08100   1.00000
      8162 IM1      132      IM1      DC1      DRUD    -2.551600        0.4000           0   0.00000   0.00000
      8163 IM1      132      IM1      H1       HDA3A    0.094000        1.0080           0   0.00000   0.00000
      8164 IM1      132      IM1      H2       HDA3A    0.094000        1.0080           0   0.00000   0.00000
      8165 IM1      132      IM1      H3       HDA3A    0.094000        1.0080           0   0.00000   0.00000
      8166 IM1      132      IM1      N1       ND2R5A   2.670300       13.6070           0   -1.06300   1.30000
      8167 IM1      132      IM1      DN1      DRUD    -2.530300        0.4000           0   0.00000   0.00000
      8168 IM1      132      IM1      C2       CD2R5A   2.511900       11.6110           0   -1.37800   1.30000
      8169 IM1      132      IM1      DC2      DRUD    -2.880900        0.4000           0   0.00000   0.00000
      8170 IM1      132      IM1      H4       HDR5A    0.150000        1.0080           0   0.00000   0.00000
      8171 IM1      132      IM1      C3       CD2R5A   3.068900       11.6110           0   -1.37800   1.30000
      8172 IM1      132      IM1      DC3      DRUD    -2.880900        0.4000           0   0.00000   0.00000
      8173 IM1      132      IM1      H5       HDR5A    0.053000        1.0080           0   0.00000   0.00000
      8174 IM1      132      IM1      C4       CD2R5B   2.404400       11.6110           0   -0.868000   1.30000
      8175 IM1      132      IM1      DC4      DRUD    -2.286400        0.4000           0   0.00000   0.00000
      8176 IM1      132      IM1      H6       HDR5B    0.073000        1.0080           0   0.00000   0.00000
      8177 IM1      132      IM1      N2       ND2R5B   2.249300       13.6070           0   -0.840000   1.00000
      8178 IM1      132      IM1      DN2      DRUD    -2.249300        0.4000           0   0.00000   0.00000
      8179 IM1      132      IM1      H7       HDP1A    0.000000        1.0080           0   0.00000   0.00000
      8180 IM1      132      IM1      LPN21    LPD     -0.474000        0.0000           -1   0.00000   0.00000
      8181 IM1      133      IM1      C1       CD33G    2.390600       11.6110           0   -1.08100   1.00000
      8182 IM1      133      IM1      DC1      DRUD    -2.551600        0.4000           0   0.00000   0.00000
      8183 IM1      133      IM1      H1       HDA3A    0.094000        1.0080           0   0.00000   0.00000
      8184 IM1      133      IM1      H2       HDA3A    0.094000        1.0080           0   0.00000   0.00000
      8185 IM1      133      IM1      H3       HDA3A    0.094000        1.0080           0   0.00000   0.00000
      8186 IM1      133      IM1      N1       ND2R5A   2.670300       13.6070           0   -1.06300   1.30000
      8187 IM1      133      IM1      DN1      DRUD    -2.530300        0.4000           0   0.00000   0.00000
      8188 IM1      133      IM1      C2       CD2R5A   2.511900       11.6110           0   -1.37800   1.30000
      8189 IM1      133      IM1      DC2      DRUD    -2.880900        0.4000           0   0.00000   0.00000
      8190 IM1      133      IM1      H4       HDR5A    0.150000        1.0080           0   0.00000   0.00000
      8191 IM1      133      IM1      C3       CD2R5A   3.068900       11.6110           0   -1.37800   1.30000
      8192 IM1      133      IM1      DC3      DRUD    -2.880900        0.4000           0   0.00000   0.00000
      8193 IM1      133      IM1      H5       HDR5A    0.053000        1.0080           0   0.00000   0.00000
      8194 IM1      133      IM1      C4       CD2R5B   2.404400       11.6110           0   -0.868000   1.30000
      8195 IM1      133      IM1      DC4      DRUD    -2.286400        0.4000           0   0.00000   0.00000
      8196 IM1      133      IM1      H6       HDR5B    0.073000        1.0080           0   0.00000   0.00000
      8197 IM1      133      IM1      N2       ND2R5B   2.249300       13.6070           0   -0.840000   1.00000
      8198 IM1      133      IM1      DN2      DRUD    -2.249300        0.4000           0   0.00000   0.00000
      8199 IM1      133      IM1      H7       HDP1A    0.000000        1.0080           0   0.00000   0.00000
      8200 IM1      133      IM1      LPN21    LPD     -0.474000        0.0000           -1   0.00000   0.00000
      8201 IM1      134      IM1      C1       CD33G    2.390600       11.6110           0   -1.08100   1.00000
      8202 IM1      134      IM1      DC1      DRUD    -2.551600        0.4000           0   0.00000   0.00000
      8203 IM1      134      IM1      H1       HDA3A    0.094000        1.0080           0   0.00000   0.00000
      8204 IM1      134      IM1      H2       HDA3A    0.094000        1.0080           0   0.00000   0.00000
      8205 IM1      134      IM1      H3       HDA3A    0.094000        1.0080           0   0.00000   0.00000
      8206 IM1      134      IM1      N1       ND2R5A   2.670300       13.6070           0   -1.06300   1.30000
      8207 IM1      134      IM1      DN1      DRUD    -2.530300        0.4000           0   0.00000   0.00000
      8208 IM1      134      IM1      C2       CD2R5A   2.511900       11.6110           0   -1.37800   1.30000
      8209 IM1      134      IM1      DC2      DRUD    -2.880900        0.4000           0   0.00000   0.00000
      8210 IM1      134      IM1      H4       HDR5A    0.150000        1.0080           0   0.00000   0.00000
      8211 IM1      134      IM1      C3       CD2R5A   3.068900       11.6110           0   -1.37800   1.30000
      8212 IM1      134      IM1      DC3      DRUD    -2.880900        0.4000           0   0.00000   0.00000
      8213 IM1      134      IM1      H5       HDR5A    0.053000        1.0080           0   0.00000   0.00000
      8214 IM1      134      IM1      C4       CD2R5B   2.404400       11.6110           0   -0.868000   1.30000
      8215 IM1      134      IM1      DC4      DRUD    -2.286400        0.4000           0   0.00000   0.00000
      8216 IM1      134      IM1      H6       HDR5B    0.073000        1.0080           0   0.00000   0.00000
      8217 IM1      134      IM1      N2       ND2R5B   2.249300       13.6070           0   -0.840000   1.00000
      8218 IM1      134      IM1      DN2      DRUD    -2.249300        0.4000           0   0.00000   0.00000
      8219 IM1      134      IM1      H7       HDP1A    0.000000        1.0080           0   0.00000   0.00000
      8220 IM1      134      IM1      LPN21    LPD     -0.474000        0.0000           -1   0.00000   0.00000
      8221 IM1      135      IM1      C1       CD33G    2.390600       11.6110           0   -1.08100   1.00000
      8222 IM1      135      IM1      DC1      DRUD    -2.551600        0.4000           0   0.00000   0.00000
      8223 IM1      135      IM1      H1       HDA3A    0.094000        1.0080           0   0.00000   0.00000
      8224 IM1      135      IM1      H2       HDA3A    0.094000        1.0080           0   0.00000   0.00000
      8225 IM1      135      IM1      H3       HDA3A    0.094000        1.0080           0   0.00000   0.00000
      8226 IM1      135      IM1      N1       ND2R5A   2.670300       13.6070           0   -1.06300   1.30000
      8227 IM1      135      IM1      DN1      DRUD    -2.530300        0.4000           0   0.00000   0.00000
      8228 IM1      135      IM1      C2       CD2R5A   2.511900       11.6110           0   -1.37800   1.30000
      8229 IM1      135      IM1      DC2      DRUD    -2.880900        0.4000           0   0.00000   0.00000
      8230 IM1      135      IM1      H4       HDR5A    0.150000        1.0080           0   0.00000   0.00000
      8231 IM1      135      IM1      C3       CD2R5A   3.068900       11.6110           0   -1.37800   1.30000
      8232 IM1      135      IM1      DC3      DRUD    -2.880900        0.4000           0   0.00000   0.00000
      8233 IM1      135      IM1      H5       HDR5A    0.053000        1.0080           0   0.00000   0.00000
      8234 IM1      135      IM1      C4       CD2R5B   2.404400       11.6110           0   -0.868000   1.30000
      8235 IM1      135      IM1      DC4      DRUD    -2.286400        0.4000           0   0.00000   0.00000
      8236 IM1      135      IM1      H6       HDR5B    0.073000        1.0080           0   0.00000   0.00000
      8237 IM1      135      IM1      N2       ND2R5B   2.249300       13.6070           0   -0.840000   1.00000
      8238 IM1      135      IM1      DN2      DRUD    -2.249300        0.4000           0   0.00000   0.00000
      8239 IM1      135      IM1      H7       HDP1A    0.000000        1.0080           0   0.00000   0.00000
      8240 IM1      135      IM1      LPN21    LPD     -0.474000        0.0000           -1   0.00000   0.00000
      8241 IM1      136      IM1      C1       CD33G    2.390600       11.6110           0   -1.08100   1.00000
      8242 IM1      136      IM1      DC1      DRUD    -2.551600        0.4000           0   0.00000   0.00000
      8243 IM1      136      IM1      H1       HDA3A    0.094000        1.0080           0   0.00000   0.00000
      8244 IM1      136      IM1      H2       HDA3A    0.094000        1.0080           0   0.00000   0.00000
      8245 IM1      136      IM1      H3       HDA3A    0.094000        1.0080           0   0.00000   0.00000
      8246 IM1      136      IM1      N1       ND2R5A   2.670300       13.6070           0   -1.06300   1.30000
      8247 IM1      136      IM1      DN1      DRUD    -2.530300        0.4000           0   0.00000   0.00000
      8248 IM1      136      IM1      C2       CD2R5A   2.511900       11.6110           0   -1.37800   1.30000
      8249 IM1      136      IM1      DC2      DRUD    -2.880900        0.4000           0   0.00000   0.00000
      8250 IM1      136      IM1      H4       HDR5A    0.150000        1.0080           0   0.00000   0.00000
      8251 IM1      136      IM1      C3       CD2R5A   3.068900       11.6110           0   -1.37800   1.30000
      8252 IM1      136      IM1      DC3      DRUD    -2.880900        0.4000           0   0.00000   0.00000
      8253 IM1      136      IM1      H5       HDR5A    0.053000        1.0080           0   0.00000   0.00000
      8254 IM1      136      IM1      C4       CD2R5B   2.404400       11.6110           0   -0.868000   1.30000
      8255 IM1      136      IM1      DC4      DRUD    -2.286400        0.4000           0   0.00000   0.00000
      8256 IM1      136      IM1      H6       HDR5B    0.073000        1.0080           0   0.00000   0.00000
      8257 IM1      136      IM1      N2       ND2R5B   2.249300       13.6070           0   -0.840000   1.00000
      8258 IM1      136      IM1      DN2      DRUD    -2.249300        0.4000           0   0.00000   0.00000
      8259 IM1      136      IM1      H7       HDP1A    0.000000        1.0080           0   0.00000   0.00000
      8260 IM1      136      IM1      LPN21    LPD     -0.474000        0.0000           -1   0.00000   0.00000
      8261 IM1      137      IM1      C1       CD33G    2.390600       11.6110           0   -1.08100   1.00000
      8262 IM1      137      IM1      DC1      DRUD    -2.551600        0.4000           0   0.00000   0.00000
      8263 IM1      137      IM1      H1       HDA3A    0.094000        1.0080           0   0.00000   0.00000
      8264 IM1      137      IM1      H2       HDA3A    0.094000        1.0080           0   0.00000   0.00000
      8265 IM1      137      IM1      H3       HDA3A    0.094000        1.0080           0   0.00000   0.00000
      8266 IM1      137      IM1      N1       ND2R5A   2.670300       13.6070           0   -1.06300   1.30000
      8267 IM1      137      IM1      DN1      DRUD    -2.530300        0.4000           0   0.00000   0.00000
      8268 IM1      137      IM1      C2       CD2R5A   2.511900       11.6110           0   -1.37800   1.30000
      8269 IM1      137      IM1      DC2      DRUD    -2.880900        0.4000           0   0.00000   0.00000
      8270 IM1      137      IM1      H4       HDR5A    0.150000        1.0080           0   0.00000   0.00000
      8271 IM1      137      IM1      C3       CD2R5A   3.068900       11.6110           0   -1.37800   1.30000
      8272 IM1      137      IM1      DC3      DRUD    -2.880900        0.4000           0   0.00000   0.00000
      8273 IM1      137      IM1      H5       HDR5A    0.053000        1.0080           0   0.00000   0.00000
      8274 IM1      137      IM1      C4       CD2R5B   2.404400       11.6110           0   -0.868000   1.30000
      8275 IM1      137      IM1      DC4      DRUD    -2.286400        0.4000           0   0.00000   0.00000
      8276 IM1      137      IM1      H6       HDR5B    0.073000        1.0080           0   0.00000   0.00000
      8277 IM1      137      IM1      N2       ND2R5B   2.249300       13.6070           0   -0.840000   1.00000
      8278 IM1      137      IM1      DN2      DRUD    -2.249300        0.4000           0   0.00000   0.00000
      8279 IM1      137      IM1      H7       HDP1A    0.000000        1.0080           0   0.00000   0.00000
      8280 IM1      137      IM1      LPN21    LPD     -0.474000        0.0000           -1   0.00000   0.00000
      8281 IM1      138      IM1      C1       CD33G    2.390600       11.6110           0   -1.08100   1.00000
      8282 IM1      138      IM1      DC1      DRUD    -2.551600        0.4000           0   0.00000   0.00000
      8283 IM1      138      IM1      H1       HDA3A    0.094000        1.0080           0   0.00000   0.00000
      8284 IM1      138      IM1      H2       HDA3A    0.094000        1.0080           0   0.00000   0.00000
      8285 IM1      138      IM1      H3       HDA3A    0.094000        1.0080           0   0.00000   0.00000
      8286 IM1      138      IM1      N1       ND2R5A   2.670300       13.6070           0   -1.06300   1.30000
      8287 IM1      138      IM1      DN1      DRUD    -2.530300        0.4000           0   0.00000   0.00000
      8288 IM1      138      IM1      C2       CD2R5A   2.511900       11.6110           0   -1.37800   1.30000
      8289 IM1      138      IM1      DC2      DRUD    -2.880900        0.4000           0   0.00000   0.00000
      8290 IM1      138      IM1      H4       HDR5A    0.150000        1.0080           0   0.00000   0.00000
      8291 IM1      138      IM1      C3       CD2R5A   3.068900       11.6110           0   -1.37800   1.30000
      8292 IM1      138      IM1      DC3      DRUD    -2.880900        0.4000           0   0.00000   0.00000
      8293 IM1      138      IM1      H5       HDR5A    0.053000        1.0080           0   0.00000   0.00000
      8294 IM1      138      IM1      C4       CD2R5B   2.404400       11.6110           0   -0.868000   1.30000
      8295 IM1      138      IM1      DC4      DRUD    -2.286400        0.4000           0   0.00000   0.00000
      8296 IM1      138      IM1      H6       HDR5B    0.073000        1.0080           0   0.00000   0.00000
      8297 IM1      138      IM1      N2       ND2R5B   2.249300       13.6070           0   -0.840000   1.00000
      8298 IM1      138      IM1      DN2      DRUD    -2.249300        0.4000           0   0.00000   0.00000
      8299 IM1      138      IM1      H7       HDP1A    0.000000        1.0080           0   0.00000   0.00000
      8300 IM1      138      IM1      LPN21    LPD     -0.474000        0.0000           -1   0.00000   0.00000
      8301 IM1      139      IM1      C1       CD33G    2.390600       11.6110           0   -1.08100   1.00000
      8302 IM1      139      IM1      DC1      DRUD    -2.551600        0.4000           0   0.00000   0.00000
      8303 IM1      139      IM1      H1       HDA3A    0.094000        1.0080           0   0.00000   0.00000
      8304 IM1      139      IM1      H2       HDA3A    0.094000        1.0080           0   0.00000   0.00000
      8305 IM1      139      IM1      H3       HDA3A    0.094000        1.0080           0   0.00000   0.00000
      8306 IM1      139      IM1      N1       ND2R5A   2.670300       13.6070           0   -1.06300   1.30000
      8307 IM1      139      IM1      DN1      DRUD    -2.530300        0.4000           0   0.00000   0.00000
      8308 IM1      139      IM1      C2       CD2R5A   2.511900       11.6110           0   -1.37800   1.30000
      8309 IM1      139      IM1      DC2      DRUD    -2.880900        0.4000           0   0.00000   0.00000
      8310 IM1      139      IM1      H4       HDR5A    0.150000        1.0080           0   0.00000   0.00000
      8311 IM1      139      IM1      C3       CD2R5A   3.068900       11.6110           0   -1.37800   1.30000
      8312 IM1      139      IM1      DC3      DRUD    -2.880900        0.4000           0   0.00000   0.00000
      8313 IM1      139      IM1      H5       HDR5A    0.053000        1.0080           0   0.00000   0.00000
      8314 IM1      139      IM1      C4       CD2R5B   2.404400       11.6110           0   -0.868000   1.30000
      8315 IM1      139      IM1      DC4      DRUD    -2.286400        0.4000           0   0.00000   0.00000
      8316 IM1      139      IM1      H6       HDR5B    0.073000        1.0080           0   0.00000   0.00000
      8317 IM1      139      IM1      N2       ND2R5B   2.249300       13.6070           0   -0.840000   1.00000
      8318 IM1      139      IM1      DN2      DRUD    -2.249300        0.4000           0   0.00000   0.00000
      8319 IM1      139      IM1      H7       HDP1A    0.000000        1.0080           0   0.00000   0.00000
      8320 IM1      139      IM1      LPN21    LPD     -0.474000        0.0000           -1   0.00000   0.00000
      8321 IM1      140      IM1      C1       CD33G    2.390600       11.6110           0   -1.08100   1.00000
      8322 IM1      140      IM1      DC1      DRUD    -2.551600        0.4000           0   0.00000   0.00000
      8323 IM1      140      IM1      H1       HDA3A    0.094000        1.0080           0   0.00000   0.00000
      8324 IM1      140      IM1      H2       HDA3A    0.094000        1.0080           0   0.00000   0.00000
      8325 IM1      140      IM1      H3       HDA3A    0.094000        1.0080           0   0.00000   0.00000
      8326 IM1      140      IM1      N1       ND2R5A   2.670300       13.6070           0   -1.06300   1.30000
      8327 IM1      140      IM1      DN1      DRUD    -2.530300        0.4000           0   0.00000   0.00000
      8328 IM1      140      IM1      C2       CD2R5A   2.511900       11.6110           0   -1.37800   1.30000
      8329 IM1      140      IM1      DC2      DRUD    -2.880900        0.4000           0   0.00000   0.00000
      8330 IM1      140      IM1      H4       HDR5A    0.150000        1.0080           0   0.00000   0.00000
      8331 IM1      140      IM1      C3       CD2R5A   3.068900       11.6110           0   -1.37800   1.30000
      8332 IM1      140      IM1      DC3      DRUD    -2.880900        0.4000           0   0.00000   0.00000
      8333 IM1      140      IM1      H5       HDR5A    0.053000        1.0080           0   0.00000   0.00000
      8334 IM1      140      IM1      C4       CD2R5B   2.404400       11.6110           0   -0.868000   1.30000
      8335 IM1      140      IM1      DC4      DRUD    -2.286400        0.4000           0   0.00000   0.00000
      8336 IM1      140      IM1      H6       HDR5B    0.073000        1.0080           0   0.00000   0.00000
      8337 IM1      140      IM1      N2       ND2R5B   2.249300       13.6070           0   -0.840000   1.00000
      8338 IM1      140      IM1      DN2      DRUD    -2.249300        0.4000           0   0.00000   0.00000
      8339 IM1      140      IM1      H7       HDP1A    0.000000        1.0080           0   0.00000   0.00000
      8340 IM1      140      IM1      LPN21    LPD     -0.474000        0.0000           -1   0.00000   0.00000
      8341 IM1      141      IM1      C1       CD33G    2.390600       11.6110           0   -1.08100   1.00000
      8342 IM1      141      IM1      DC1      DRUD    -2.551600        0.4000           0   0.00000   0.00000
      8343 IM1      141      IM1      H1       HDA3A    0.094000        1.0080           0   0.00000   0.00000
      8344 IM1      141      IM1      H2       HDA3A    0.094000        1.0080           0   0.00000   0.00000
      8345 IM1      141      IM1      H3       HDA3A    0.094000        1.0080           0   0.00000   0.00000
      8346 IM1      141      IM1      N1       ND2R5A   2.670300       13.6070           0   -1.06300   1.30000
      8347 IM1      141      IM1      DN1      DRUD    -2.530300        0.4000           0   0.00000   0.00000
      8348 IM1      141      IM1      C2       CD2R5A   2.511900       11.6110           0   -1.37800   1.30000
      8349 IM1      141      IM1      DC2      DRUD    -2.880900        0.4000           0   0.00000   0.00000
      8350 IM1      141      IM1      H4       HDR5A    0.150000        1.0080           0   0.00000   0.00000
      8351 IM1      141      IM1      C3       CD2R5A   3.068900       11.6110           0   -1.37800   1.30000
      8352 IM1      141      IM1      DC3      DRUD    -2.880900        0.4000           0   0.00000   0.00000
      8353 IM1      141      IM1      H5       HDR5A    0.053000        1.0080           0   0.00000   0.00000
      8354 IM1      141      IM1      C4       CD2R5B   2.404400       11.6110           0   -0.868000   1.30000
      8355 IM1      141      IM1      DC4      DRUD    -2.286400        0.4000           0   0.00000   0.00000
      8356 IM1      141      IM1      H6       HDR5B    0.073000        1.0080           0   0.00000   0.00000
      8357 IM1      141      IM1      N2       ND2R5B   2.249300       13.6070           0   -0.840000   1.00000
      8358 IM1      141      IM1      DN2      DRUD    -2.249300        0.4000           0   0.00000   0.00000
      8359 IM1      141      IM1      H7       HDP1A    0.000000        1.0080           0   0.00000   0.00000
      8360 IM1      141      IM1      LPN21    LPD     -0.474000        0.0000           -1   0.00000   0.00000
      8361 IM1      142      IM1      C1       CD33G    2.390600       11.6110           0   -1.08100   1.00000
      8362 IM1      142      IM1      DC1      DRUD    -2.551600        0.4000           0   0.00000   0.00000
      8363 IM1      142      IM1      H1       HDA3A    0.094000        1.0080           0   0.00000   0.00000
      8364 IM1      142      IM1      H2       HDA3A    0.094000        1.0080           0   0.00000   0.00000
      8365 IM1      142      IM1      H3       HDA3A    0.094000        1.0080           0   0.00000   0.00000
      8366 IM1      142      IM1      N1       ND2R5A   2.670300       13.6070           0   -1.06300   1.30000
      8367 IM1      142      IM1      DN1      DRUD    -2.530300        0.4000           0   0.00000   0.00000
      8368 IM1      142      IM1      C2       CD2R5A   2.511900       11.6110           0   -1.37800   1.30000
      8369 IM1      142      IM1      DC2      DRUD    -2.880900        0.4000           0   0.00000   0.00000
      8370 IM1      142      IM1      H4       HDR5A    0.150000        1.0080           0   0.00000   0.00000
      8371 IM1      142      IM1      C3       CD2R5A   3.068900       11.6110           0   -1.37800   1.30000
      8372 IM1      142      IM1      DC3      DRUD    -2.880900        0.4000           0   0.00000   0.00000
      8373 IM1      142      IM1      H5       HDR5A    0.053000        1.0080           0   0.00000   0.00000
      8374 IM1      142      IM1      C4       CD2R5B   2.404400       11.6110           0   -0.868000   1.30000
      8375 IM1      142      IM1      DC4      DRUD    -2.286400        0.4000           0   0.00000   0.00000
      8376 IM1      142      IM1      H6       HDR5B    0.073000        1.0080           0   0.00000   0.00000
      8377 IM1      142      IM1      N2       ND2R5B   2.249300       13.6070           0   -0.840000   1.00000
      8378 IM1      142      IM1      DN2      DRUD    -2.249300        0.4000           0   0.00000   0.00000
      8379 IM1      142      IM1      H7       HDP1A    0.000000        1.0080           0   0.00000   0.00000
      8380 IM1      142      IM1      LPN21    LPD     -0.474000        0.0000           -1   0.00000   0.00000
      8381 IM1      143      IM1      C1       CD33G    2.390600       11.6110           0   -1.08100   1.00000
      8382 IM1      143      IM1      DC1      DRUD    -2.551600        0.4000           0   0.00000   0.00000
      8383 IM1      143      IM1      H1       HDA3A    0.094000        1.0080           0   0.00000   0.00000
      8384 IM1      143      IM1      H2       HDA3A    0.094000        1.0080           0   0.00000   0.00000
      8385 IM1      143      IM1      H3       HDA3A    0.094000        1.0080           0   0.00000   0.00000
      8386 IM1      143      IM1      N1       ND2R5A   2.670300       13.6070           0   -1.06300   1.30000
      8387 IM1      143      IM1      DN1      DRUD    -2.530300        0.4000           0   0.00000   0.00000
      8388 IM1      143      IM1      C2       CD2R5A   2.511900       11.6110           0   -1.37800   1.30000
      8389 IM1      143      IM1      DC2      DRUD    -2.880900        0.4000           0   0.00000   0.00000
      8390 IM1      143      IM1      H4       HDR5A    0.150000        1.0080           0   0.00000   0.00000
      8391 IM1      143      IM1      C3       CD2R5A   3.068900       11.6110           0   -1.37800   1.30000
      8392 IM1      143      IM1      DC3      DRUD    -2.880900        0.4000           0   0.00000   0.00000
      8393 IM1      143      IM1      H5       HDR5A    0.053000        1.0080           0   0.00000   0.00000
      8394 IM1      143      IM1      C4       CD2R5B   2.404400       11.6110           0   -0.868000   1.30000
      8395 IM1      143      IM1      DC4      DRUD    -2.286400        0.4000           0   0.00000   0.00000
      8396 IM1      143      IM1      H6       HDR5B    0.073000        1.0080           0   0.00000   0.00000
      8397 IM1      143      IM1      N2       ND2R5B   2.249300       13.6070           0   -0.840000   1.00000
      8398 IM1      143      IM1      DN2      DRUD    -2.249300        0.4000           0   0.00000   0.00000
      8399 IM1      143      IM1      H7       HDP1A    0.000000        1.0080           0   0.00000   0.00000
      8400 IM1      143      IM1      LPN21    LPD     -0.474000        0.0000           -1   0.00000   0.00000
      8401 IM1      144      IM1      C1       CD33G    2.390600       11.6110           0   -1.08100   1.00000
      8402 IM1      144      IM1      DC1      DRUD    -2.551600        0.4000           0   0.00000   0.00000
      8403 IM1      144      IM1      H1       HDA3A    0.094000        1.0080           0   0.00000   0.00000
      8404 IM1      144      IM1      H2       HDA3A    0.094000        1.0080           0   0.00000   0.00000
      8405 IM1      144      IM1      H3       HDA3A    0.094000        1.0080           0   0.00000   0.00000
      8406 IM1      144      IM1      N1       ND2R5A   2.670300       13.6070           0   -1.06300   1.30000
      8407 IM1      144      IM1      DN1      DRUD    -2.530300        0.4000           0   0.00000   0.00000
      8408 IM1      144      IM1      C2       CD2R5A   2.511900       11.6110           0   -1.37800   1.30000
      8409 IM1      144      IM1      DC2      DRUD    -2.880900        0.4000           0   0.00000   0.00000
      8410 IM1      144      IM1      H4       HDR5A    0.150000        1.0080           0   0.00000   0.00000
      8411 IM1      144      IM1      C3       CD2R5A   3.068900       11.6110           0   -1.37800   1.30000
      8412 IM1      144      IM1      DC3      DRUD    -2.880900        0.4000           0   0.00000   0.00000
      8413 IM1      144      IM1      H5       HDR5A    0.053000        1.0080           0   0.00000   0.00000
      8414 IM1      144      IM1      C4       CD2R5B   2.404400       11.6110           0   -0.868000   1.30000
      8415 IM1      144      IM1      DC4      DRUD    -2.286400        0.4000           0   0.00000   0.00000
      8416 IM1      144      IM1      H6       HDR5B    0.073000        1.0080           0   0.00000   0.00000
      8417 IM1      144      IM1      N2       ND2R5B   2.249300       13.6070           0   -0.840000   1.00000
      8418 IM1      144      IM1      DN2      DRUD    -2.249300        0.4000           0   0.00000   0.00000
      8419 IM1      144      IM1      H7       HDP1A    0.000000        1.0080           0   0.00000   0.00000
      8420 IM1      144      IM1      LPN21    LPD     -0.474000        0.0000           -1   0.00000   0.00000
      8421 IM1      145      IM1      C1       CD33G    2.390600       11.6110           0   -1.08100   1.00000
      8422 IM1      145      IM1      DC1      DRUD    -2.551600        0.4000           0   0.00000   0.00000
      8423 IM1      145      IM1      H1       HDA3A    0.094000        1.0080           0   0.00000   0.00000
      8424 IM1      145      IM1      H2       HDA3A    0.094000        1.0080           0   0.00000   0.00000
      8425 IM1      145      IM1      H3       HDA3A    0.094000        1.0080           0   0.00000   0.00000
      8426 IM1      145      IM1      N1       ND2R5A   2.670300       13.6070           0   -1.06300   1.30000
      8427 IM1      145      IM1      DN1      DRUD    -2.530300        0.4000           0   0.00000   0.00000
      8428 IM1      145      IM1      C2       CD2R5A   2.511900       11.6110           0   -1.37800   1.30000
      8429 IM1      145      IM1      DC2      DRUD    -2.880900        0.4000           0   0.00000   0.00000
      8430 IM1      145      IM1      H4       HDR5A    0.150000        1.0080           0   0.00000   0.00000
      8431 IM1      145      IM1      C3       CD2R5A   3.068900       11.6110           0   -1.37800   1.30000
      8432 IM1      145      IM1      DC3      DRUD    -2.880900        0.4000           0   0.00000   0.00000
      8433 IM1      145      IM1      H5       HDR5A    0.053000        1.0080           0   0.00000   0.00000
      8434 IM1      145      IM1      C4       CD2R5B   2.404400       11.6110           0   -0.868000   1.30000
      8435 IM1      145      IM1      DC4      DRUD    -2.286400        0.4000           0   0.00000   0.00000
      8436 IM1      145      IM1      H6       HDR5B    0.073000        1.0080           0   0.00000   0.00000
      8437 IM1      145      IM1      N2       ND2R5B   2.249300       13.6070           0   -0.840000   1.00000
      8438 IM1      145      IM1      DN2      DRUD    -2.249300        0.4000           0   0.00000   0.00000
      8439 IM1      145      IM1      H7       HDP1A    0.000000        1.0080           0   0.00000   0.00000
      8440 IM1      145      IM1      LPN21    LPD     -0.474000        0.0000           -1   0.00000   0.00000
      8441 IM1      146      IM1      C1       CD33G    2.390600       11.6110           0   -1.08100   1.00000
      8442 IM1      146      IM1      DC1      DRUD    -2.551600        0.4000           0   0.00000   0.00000
      8443 IM1      146      IM1      H1       HDA3A    0.094000        1.0080           0   0.00000   0.00000
      8444 IM1      146      IM1      H2       HDA3A    0.094000        1.0080           0   0.00000   0.00000
      8445 IM1      146      IM1      H3       HDA3A    0.094000        1.0080           0   0.00000   0.00000
      8446 IM1      146      IM1      N1       ND2R5A   2.670300       13.6070           0   -1.06300   1.30000
      8447 IM1      146      IM1      DN1      DRUD    -2.530300        0.4000           0   0.00000   0.00000
      8448 IM1      146      IM1      C2       CD2R5A   2.511900       11.6110           0   -1.37800   1.30000
      8449 IM1      146      IM1      DC2      DRUD    -2.880900        0.4000           0   0.00000   0.00000
      8450 IM1      146      IM1      H4       HDR5A    0.150000        1.0080           0   0.00000   0.00000
      8451 IM1      146      IM1      C3       CD2R5A   3.068900       11.6110           0   -1.37800   1.30000
      8452 IM1      146      IM1      DC3      DRUD    -2.880900        0.4000           0   0.00000   0.00000
      8453 IM1      146      IM1      H5       HDR5A    0.053000        1.0080           0   0.00000   0.00000
      8454 IM1      146      IM1      C4       CD2R5B   2.404400       11.6110           0   -0.868000   1.30000
      8455 IM1      146      IM1      DC4      DRUD    -2.286400        0.4000           0   0.00000   0.00000
      8456 IM1      146      IM1      H6       HDR5B    0.073000        1.0080           0   0.00000   0.00000
      8457 IM1      146      IM1      N2       ND2R5B   2.249300       13.6070           0   -0.840000   1.00000
      8458 IM1      146      IM1      DN2      DRUD    -2.249300        0.4000           0   0.00000   0.00000
      8459 IM1      146      IM1      H7       HDP1A    0.000000        1.0080           0   0.00000   0.00000
      8460 IM1      146      IM1      LPN21    LPD     -0.474000        0.0000           -1   0.00000   0.00000
      8461 IM1      147      IM1      C1       CD33G    2.390600       11.6110           0   -1.08100   1.00000
      8462 IM1      147      IM1      DC1      DRUD    -2.551600        0.4000           0   0.00000   0.00000
      8463 IM1      147      IM1      H1       HDA3A    0.094000        1.0080           0   0.00000   0.00000
      8464 IM1      147      IM1      H2       HDA3A    0.094000        1.0080           0   0.00000   0.00000
      8465 IM1      147      IM1      H3       HDA3A    0.094000        1.0080           0   0.00000   0.00000
      8466 IM1      147      IM1      N1       ND2R5A   2.670300       13.6070           0   -1.06300   1.30000
      8467 IM1      147      IM1      DN1      DRUD    -2.530300        0.4000           0   0.00000   0.00000
      8468 IM1      147      IM1      C2       CD2R5A   2.511900       11.6110           0   -1.37800   1.30000
      8469 IM1      147      IM1      DC2      DRUD    -2.880900        0.4000           0   0.00000   0.00000
      8470 IM1      147      IM1      H4       HDR5A    0.150000        1.0080           0   0.00000   0.00000
      8471 IM1      147      IM1      C3       CD2R5A   3.068900       11.6110           0   -1.37800   1.30000
      8472 IM1      147      IM1      DC3      DRUD    -2.880900        0.4000           0   0.00000   0.00000
      8473 IM1      147      IM1      H5       HDR5A    0.053000        1.0080           0   0.00000   0.00000
      8474 IM1      147      IM1      C4       CD2R5B   2.404400       11.6110           0   -0.868000   1.30000
      8475 IM1      147      IM1      DC4      DRUD    -2.286400        0.4000           0   0.00000   0.00000
      8476 IM1      147      IM1      H6       HDR5B    0.073000        1.0080           0   0.00000   0.00000
      8477 IM1      147      IM1      N2       ND2R5B   2.249300       13.6070           0   -0.840000   1.00000
      8478 IM1      147      IM1      DN2      DRUD    -2.249300        0.4000           0   0.00000   0.00000
      8479 IM1      147      IM1      H7       HDP1A    0.000000        1.0080           0   0.00000   0.00000
      8480 IM1      147      IM1      LPN21    LPD     -0.474000        0.0000           -1   0.00000   0.00000
      8481 IM1      148      IM1      C1       CD33G    2.390600       11.6110           0   -1.08100   1.00000
      8482 IM1      148      IM1      DC1      DRUD    -2.551600        0.4000           0   0.00000   0.00000
      8483 IM1      148      IM1      H1       HDA3A    0.094000        1.0080           0   0.00000   0.00000
      8484 IM1      148      IM1      H2       HDA3A    0.094000        1.0080           0   0.00000   0.00000
      8485 IM1      148      IM1      H3       HDA3A    0.094000        1.0080           0   0.00000   0.00000
      8486 IM1      148      IM1      N1       ND2R5A   2.670300       13.6070           0   -1.06300   1.30000
      8487 IM1      148      IM1      DN1      DRUD    -2.530300        0.4000           0   0.00000   0.00000
      8488 IM1      148      IM1      C2       CD2R5A   2.511900       11.6110           0   -1.37800   1.30000
      8489 IM1      148      IM1      DC2      DRUD    -2.880900        0.4000           0   0.00000   0.00000
      8490 IM1      148      IM1      H4       HDR5A    0.150000        1.0080           0   0.00000   0.00000
      8491 IM1      148      IM1      C3       CD2R5A   3.068900       11.6110           0   -1.37800   1.30000
      8492 IM1      148      IM1      DC3      DRUD    -2.880900        0.4000           0   0.00000   0.00000
      8493 IM1      148      IM1      H5       HDR5A    0.053000        1.0080           0   0.00000   0.00000
      8494 IM1      148      IM1      C4       CD2R5B   2.404400       11.6110           0   -0.868000   1.30000
      8495 IM1      148      IM1      DC4      DRUD    -2.286400        0.4000           0   0.00000   0.00000
      8496 IM1      148      IM1      H6       HDR5B    0.073000        1.0080           0   0.00000   0.00000
      8497 IM1      148      IM1      N2       ND2R5B   2.249300       13.6070           0   -0.840000   1.00000
      8498 IM1      148      IM1      DN2      DRUD    -2.249300        0.4000           0   0.00000   0.00000
      8499 IM1      148      IM1      H7       HDP1A    0.000000        1.0080           0   0.00000   0.00000
      8500 IM1      148      IM1      LPN21    LPD     -0.474000        0.0000           -1   0.00000   0.00000
      8501 IM1      149      IM1      C1       CD33G    2.390600       11.6110           0   -1.08100   1.00000
      8502 IM1      149      IM1      DC1      DRUD    -2.551600        0.4000           0   0.00000   0.00000
      8503 IM1      149      IM1      H1       HDA3A    0.094000        1.0080           0   0.00000   0.00000
      8504 IM1      149      IM1      H2       HDA3A    0.094000        1.0080           0   0.00000   0.00000
      8505 IM1      149      IM1      H3       HDA3A    0.094000        1.0080           0   0.00000   0.00000
      8506 IM1      149      IM1      N1       ND2R5A   2.670300       13.6070           0   -1.06300   1.30000
      8507 IM1      149      IM1      DN1      DRUD    -2.530300        0.4000           0   0.00000   0.00000
      8508 IM1      149      IM1      C2       CD2R5A   2.511900       11.6110           0   -1.37800   1.30000
      8509 IM1      149      IM1      DC2      DRUD    -2.880900        0.4000           0   0.00000   0.00000
      8510 IM1      149      IM1      H4       HDR5A    0.150000        1.0080           0   0.00000   0.00000
      8511 IM1      149      IM1      C3       CD2R5A   3.068900       11.6110           0   -1.37800   1.30000
      8512 IM1      149      IM1      DC3      DRUD    -2.880900        0.4000           0   0.00000   0.00000
      8513 IM1      149      IM1      H5       HDR5A    0.053000        1.0080           0   0.00000   0.00000
      8514 IM1      149      IM1      C4       CD2R5B   2.404400       11.6110           0   -0.868000   1.30000
      8515 IM1      149      IM1      DC4      DRUD    -2.286400        0.4000           0   0.00000   0.00000
      8516 IM1      149      IM1      H6       HDR5B    0.073000        1.0080           0   0.00000   0.00000
      8517 IM1      149      IM1      N2       ND2R5B   2.249300       13.6070           0   -0.840000   1.00000
      8518 IM1      149      IM1      DN2      DRUD    -2.249300        0.4000           0   0.00000   0.00000
      8519 IM1      149      IM1      H7       HDP1A    0.000000        1.0080           0   0.00000   0.00000
      8520 IM1      149      IM1      LPN21    LPD     -0.474000        0.0000           -1   0.00000   0.00000
      8521 IM1      150      IM1      C1       CD33G    2.390600       11.6110           0   -1.08100   1.00000
      8522 IM1      150      IM1      DC1      DRUD    -2.551600        0.4000           0   0.00000   0.00000
      8523 IM1      150      IM1      H1       HDA3A    0.094000        1.0080           0   0.00000   0.00000
      8524 IM1      150      IM1      H2       HDA3A    0.094000        1.0080           0   0.00000   0.00000
      8525 IM1      150      IM1      H3       HDA3A    0.094000        1.0080           0   0.00000   0.00000
      8526 IM1      150      IM1      N1       ND2R5A   2.670300       13.6070           0   -1.06300   1.30000
      8527 IM1      150      IM1      DN1      DRUD    -2.530300        0.4000           0   0.00000   0.00000
      8528 IM1      150      IM1      C2       CD2R5A   2.511900       11.6110           0   -1.37800   1.30000
      8529 IM1      150      IM1      DC2      DRUD    -2.880900        0.4000           0   0.00000   0.00000
      8530 IM1      150      IM1      H4       HDR5A    0.150000        1.0080           0   0.00000   0.00000
      8531 IM1      150      IM1      C3       CD2R5A   3.068900       11.6110           0   -1.37800   1.30000
      8532 IM1      150      IM1      DC3      DRUD    -2.880900        0.4000           0   0.00000   0.00000
      8533 IM1      150      IM1      H5       HDR5A    0.053000        1.0080           0   0.00000   0.00000
      8534 IM1      150      IM1      C4       CD2R5B   2.404400       11.6110           0   -0.868000   1.30000
      8535 IM1      150      IM1      DC4      DRUD    -2.286400        0.4000           0   0.00000   0.00000
      8536 IM1      150      IM1      H6       HDR5B    0.073000        1.0080           0   0.00000   0.00000
      8537 IM1      150      IM1      N2       ND2R5B   2.249300       13.6070           0   -0.840000   1.00000
      8538 IM1      150      IM1      DN2      DRUD    -2.249300        0.4000           0   0.00000   0.00000
      8539 IM1      150      IM1      H7       HDP1A    0.000000        1.0080           0   0.00000   0.00000
      8540 IM1      150      IM1      LPN21    LPD     -0.474000        0.0000           -1   0.00000   0.00000
      8541 IM1      151      IM1      C1       CD33G    2.390600       11.6110           0   -1.08100   1.00000
      8542 IM1      151      IM1      DC1      DRUD    -2.551600        0.4000           0   0.00000   0.00000
      8543 IM1      151      IM1      H1       HDA3A    0.094000        1.0080           0   0.00000   0.00000
      8544 IM1      151      IM1      H2       HDA3A    0.094000        1.0080           0   0.00000   0.00000
      8545 IM1      151      IM1      H3       HDA3A    0.094000        1.0080           0   0.00000   0.00000
      8546 IM1      151      IM1      N1       ND2R5A   2.670300       13.6070           0   -1.06300   1.30000
      8547 IM1      151      IM1      DN1      DRUD    -2.530300        0.4000           0   0.00000   0.00000
      8548 IM1      151      IM1      C2       CD2R5A   2.511900       11.6110           0   -1.37800   1.30000
      8549 IM1      151      IM1      DC2      DRUD    -2.880900        0.4000           0   0.00000   0.00000
      8550 IM1      151      IM1      H4       HDR5A    0.150000        1.0080           0   0.00000   0.00000
      8551 IM1      151      IM1      C3       CD2R5A   3.068900       11.6110           0   -1.37800   1.30000
      8552 IM1      151      IM1      DC3      DRUD    -2.880900        0.4000           0   0.00000   0.00000
      8553 IM1      151      IM1      H5       HDR5A    0.053000        1.0080           0   0.00000   0.00000
      8554 IM1      151      IM1      C4       CD2R5B   2.404400       11.6110           0   -0.868000   1.30000
      8555 IM1      151      IM1      DC4      DRUD    -2.286400        0.4000           0   0.00000   0.00000
      8556 IM1      151      IM1      H6       HDR5B    0.073000        1.0080           0   0.00000   0.00000
      8557 IM1      151      IM1      N2       ND2R5B   2.249300       13.6070           0   -0.840000   1.00000
      8558 IM1      151      IM1      DN2      DRUD    -2.249300        0.4000           0   0.00000   0.00000
      8559 IM1      151      IM1      H7       HDP1A    0.000000        1.0080           0   0.00000   0.00000
      8560 IM1      151      IM1      LPN21    LPD     -0.474000        0.0000           -1   0.00000   0.00000
      8561 IM1      152      IM1      C1       CD33G    2.390600       11.6110           0   -1.08100   1.00000
      8562 IM1      152      IM1      DC1      DRUD    -2.551600        0.4000           0   0.00000   0.00000
      8563 IM1      152      IM1      H1       HDA3A    0.094000        1.0080           0   0.00000   0.00000
      8564 IM1      152      IM1      H2       HDA3A    0.094000        1.0080           0   0.00000   0.00000
      8565 IM1      152      IM1      H3       HDA3A    0.094000        1.0080           0   0.00000   0.00000
      8566 IM1      152      IM1      N1       ND2R5A   2.670300       13.6070           0   -1.06300   1.30000
      8567 IM1      152      IM1      DN1      DRUD    -2.530300        0.4000           0   0.00000   0.00000
      8568 IM1      152      IM1      C2       CD2R5A   2.511900       11.6110           0   -1.37800   1.30000
      8569 IM1      152      IM1      DC2      DRUD    -2.880900        0.4000           0   0.00000   0.00000
      8570 IM1      152      IM1      H4       HDR5A    0.150000        1.0080           0   0.00000   0.00000
      8571 IM1      152      IM1      C3       CD2R5A   3.068900       11.6110           0   -1.37800   1.30000
      8572 IM1      152      IM1      DC3      DRUD    -2.880900        0.4000           0   0.00000   0.00000
      8573 IM1      152      IM1      H5       HDR5A    0.053000        1.0080           0   0.00000   0.00000
      8574 IM1      152      IM1      C4       CD2R5B   2.404400       11.6110           0   -0.868000   1.30000
      8575 IM1      152      IM1      DC4      DRUD    -2.286400        0.4000           0   0.00000   0.00000
      8576 IM1      152      IM1      H6       HDR5B    0.073000        1.0080           0   0.00000   0.00000
      8577 IM1      152      IM1      N2       ND2R5B   2.249300       13.6070           0   -0.840000   1.00000
      8578 IM1      152      IM1      DN2      DRUD    -2.249300        0.4000           0   0.00000   0.00000
      8579 IM1      152      IM1      H7       HDP1A    0.000000        1.0080           0   0.00000   0.00000
      8580 IM1      152      IM1      LPN21    LPD     -0.474000        0.0000           -1   0.00000   0.00000
      8581 IM1      153      IM1      C1       CD33G    2.390600       11.6110           0   -1.08100   1.00000
      8582 IM1      153      IM1      DC1      DRUD    -2.551600        0.4000           0   0.00000   0.00000
      8583 IM1      153      IM1      H1       HDA3A    0.094000        1.0080           0   0.00000   0.00000
      8584 IM1      153      IM1      H2       HDA3A    0.094000        1.0080           0   0.00000   0.00000
      8585 IM1      153      IM1      H3       HDA3A    0.094000        1.0080           0   0.00000   0.00000
      8586 IM1      153      IM1      N1       ND2R5A   2.670300       13.6070           0   -1.06300   1.30000
      8587 IM1      153      IM1      DN1      DRUD    -2.530300        0.4000           0   0.00000   0.00000
      8588 IM1      153      IM1      C2       CD2R5A   2.511900       11.6110           0   -1.37800   1.30000
      8589 IM1      153      IM1      DC2      DRUD    -2.880900        0.4000           0   0.00000   0.00000
      8590 IM1      153      IM1      H4       HDR5A    0.150000        1.0080           0   0.00000   0.00000
      8591 IM1      153      IM1      C3       CD2R5A   3.068900       11.6110           0   -1.37800   1.30000
      8592 IM1      153      IM1      DC3      DRUD    -2.880900        0.4000           0   0.00000   0.00000
      8593 IM1      153      IM1      H5       HDR5A    0.053000        1.0080           0   0.00000   0.00000
      8594 IM1      153      IM1      C4       CD2R5B   2.404400       11.6110           0   -0.868000   1.30000
      8595 IM1      153      IM1      DC4      DRUD    -2.286400        0.4000           0   0.00000   0.00000
      8596 IM1      153      IM1      H6       HDR5B    0.073000        1.0080           0   0.00000   0.00000
      8597 IM1      153      IM1      N2       ND2R5B   2.249300       13.6070           0   -0.840000   1.00000
      8598 IM1      153      IM1      DN2      DRUD    -2.249300        0.4000           0   0.00000   0.00000
      8599 IM1      153      IM1      H7       HDP1A    0.000000        1.0080           0   0.00000   0.00000
      8600 IM1      153      IM1      LPN21    LPD     -0.474000        0.0000           -1   0.00000   0.00000
      8601 IM1      154      IM1      C1       CD33G    2.390600       11.6110           0   -1.08100   1.00000
      8602 IM1      154      IM1      DC1      DRUD    -2.551600        0.4000           0   0.00000   0.00000
      8603 IM1      154      IM1      H1       HDA3A    0.094000        1.0080           0   0.00000   0.00000
      8604 IM1      154      IM1      H2       HDA3A    0.094000        1.0080           0   0.00000   0.00000
      8605 IM1      154      IM1      H3       HDA3A    0.094000        1.0080           0   0.00000   0.00000
      8606 IM1      154      IM1      N1       ND2R5A   2.670300       13.6070           0   -1.06300   1.30000
      8607 IM1      154      IM1      DN1      DRUD    -2.530300        0.4000           0   0.00000   0.00000
      8608 IM1      154      IM1      C2       CD2R5A   2.511900       11.6110           0   -1.37800   1.30000
      8609 IM1      154      IM1      DC2      DRUD    -2.880900        0.4000           0   0.00000   0.00000
      8610 IM1      154      IM1      H4       HDR5A    0.150000        1.0080           0   0.00000   0.00000
      8611 IM1      154      IM1      C3       CD2R5A   3.068900       11.6110           0   -1.37800   1.30000
      8612 IM1      154      IM1      DC3      DRUD    -2.880900        0.4000           0   0.00000   0.00000
      8613 IM1      154      IM1      H5       HDR5A    0.053000        1.0080           0   0.00000   0.00000
      8614 IM1      154      IM1      C4       CD2R5B   2.404400       11.6110           0   -0.868000   1.30000
      8615 IM1      154      IM1      DC4      DRUD    -2.286400        0.4000           0   0.00000   0.00000
      8616 IM1      154      IM1      H6       HDR5B    0.073000        1.0080           0   0.00000   0.00000
      8617 IM1      154      IM1      N2       ND2R5B   2.249300       13.6070           0   -0.840000   1.00000
      8618 IM1      154      IM1      DN2      DRUD    -2.249300        0.4000           0   0.00000   0.00000
      8619 IM1      154      IM1      H7       HDP1A    0.000000        1.0080           0   0.00000   0.00000
      8620 IM1      154      IM1      LPN21    LPD     -0.474000        0.0000           -1   0.00000   0.00000
      8621 IM1      155      IM1      C1       CD33G    2.390600       11.6110           0   -1.08100   1.00000
      8622 IM1      155      IM1      DC1      DRUD    -2.551600        0.4000           0   0.00000   0.00000
      8623 IM1      155      IM1      H1       HDA3A    0.094000        1.0080           0   0.00000   0.00000
      8624 IM1      155      IM1      H2       HDA3A    0.094000        1.0080           0   0.00000   0.00000
      8625 IM1      155      IM1      H3       HDA3A    0.094000        1.0080           0   0.00000   0.00000
      8626 IM1      155      IM1      N1       ND2R5A   2.670300       13.6070           0   -1.06300   1.30000
      8627 IM1      155      IM1      DN1      DRUD    -2.530300        0.4000           0   0.00000   0.00000
      8628 IM1      155      IM1      C2       CD2R5A   2.511900       11.6110           0   -1.37800   1.30000
      8629 IM1      155      IM1      DC2      DRUD    -2.880900        0.4000           0   0.00000   0.00000
      8630 IM1      155      IM1      H4       HDR5A    0.150000        1.0080           0   0.00000   0.00000
      8631 IM1      155      IM1      C3       CD2R5A   3.068900       11.6110           0   -1.37800   1.30000
      8632 IM1      155      IM1      DC3      DRUD    -2.880900        0.4000           0   0.00000   0.00000
      8633 IM1      155      IM1      H5       HDR5A    0.053000        1.0080           0   0.00000   0.00000
      8634 IM1      155      IM1      C4       CD2R5B   2.404400       11.6110           0   -0.868000   1.30000
      8635 IM1      155      IM1      DC4      DRUD    -2.286400        0.4000           0   0.00000   0.00000
      8636 IM1      155      IM1      H6       HDR5B    0.073000        1.0080           0   0.00000   0.00000
      8637 IM1      155      IM1      N2       ND2R5B   2.249300       13.6070           0   -0.840000   1.00000
      8638 IM1      155      IM1      DN2      DRUD    -2.249300        0.4000           0   0.00000   0.00000
      8639 IM1      155      IM1      H7       HDP1A    0.000000        1.0080           0   0.00000   0.00000
      8640 IM1      155      IM1      LPN21    LPD     -0.474000        0.0000           -1   0.00000   0.00000
      8641 IM1      156      IM1      C1       CD33G    2.390600       11.6110           0   -1.08100   1.00000
      8642 IM1      156      IM1      DC1      DRUD    -2.551600        0.4000           0   0.00000   0.00000
      8643 IM1      156      IM1      H1       HDA3A    0.094000        1.0080           0   0.00000   0.00000
      8644 IM1      156      IM1      H2       HDA3A    0.094000        1.0080           0   0.00000   0.00000
      8645 IM1      156      IM1      H3       HDA3A    0.094000        1.0080           0   0.00000   0.00000
      8646 IM1      156      IM1      N1       ND2R5A   2.670300       13.6070           0   -1.06300   1.30000
      8647 IM1      156      IM1      DN1      DRUD    -2.530300        0.4000           0   0.00000   0.00000
      8648 IM1      156      IM1      C2       CD2R5A   2.511900       11.6110           0   -1.37800   1.30000
      8649 IM1      156      IM1      DC2      DRUD    -2.880900        0.4000           0   0.00000   0.00000
      8650 IM1      156      IM1      H4       HDR5A    0.150000        1.0080           0   0.00000   0.00000
      8651 IM1      156      IM1      C3       CD2R5A   3.068900       11.6110           0   -1.37800   1.30000
      8652 IM1      156      IM1      DC3      DRUD    -2.880900        0.4000           0   0.00000   0.00000
      8653 IM1      156      IM1      H5       HDR5A    0.053000        1.0080           0   0.00000   0.00000
      8654 IM1      156      IM1      C4       CD2R5B   2.404400       11.6110           0   -0.868000   1.30000
      8655 IM1      156      IM1      DC4      DRUD    -2.286400        0.4000           0   0.00000   0.00000
      8656 IM1      156      IM1      H6       HDR5B    0.073000        1.0080           0   0.00000   0.00000
      8657 IM1      156      IM1      N2       ND2R5B   2.249300       13.6070           0   -0.840000   1.00000
      8658 IM1      156      IM1      DN2      DRUD    -2.249300        0.4000           0   0.00000   0.00000
      8659 IM1      156      IM1      H7       HDP1A    0.000000        1.0080           0   0.00000   0.00000
      8660 IM1      156      IM1      LPN21    LPD     -0.474000        0.0000           -1   0.00000   0.00000
      8661 IM1      157      IM1      C1       CD33G    2.390600       11.6110           0   -1.08100   1.00000
      8662 IM1      157      IM1      DC1      DRUD    -2.551600        0.4000           0   0.00000   0.00000
      8663 IM1      157      IM1      H1       HDA3A    0.094000        1.0080           0   0.00000   0.00000
      8664 IM1      157      IM1      H2       HDA3A    0.094000        1.0080           0   0.00000   0.00000
      8665 IM1      157      IM1      H3       HDA3A    0.094000        1.0080           0   0.00000   0.00000
      8666 IM1      157      IM1      N1       ND2R5A   2.670300       13.6070           0   -1.06300   1.30000
      8667 IM1      157      IM1      DN1      DRUD    -2.530300        0.4000           0   0.00000   0.00000
      8668 IM1      157      IM1      C2       CD2R5A   2.511900       11.6110           0   -1.37800   1.30000
      8669 IM1      157      IM1      DC2      DRUD    -2.880900        0.4000           0   0.00000   0.00000
      8670 IM1      157      IM1      H4       HDR5A    0.150000        1.0080           0   0.00000   0.00000
      8671 IM1      157      IM1      C3       CD2R5A   3.068900       11.6110           0   -1.37800   1.30000
      8672 IM1      157      IM1      DC3      DRUD    -2.880900        0.4000           0   0.00000   0.00000
      8673 IM1      157      IM1      H5       HDR5A    0.053000        1.0080           0   0.00000   0.00000
      8674 IM1      157      IM1      C4       CD2R5B   2.404400       11.6110           0   -0.868000   1.30000
      8675 IM1      157      IM1      DC4      DRUD    -2.286400        0.4000           0   0.00000   0.00000
      8676 IM1      157      IM1      H6       HDR5B    0.073000        1.0080           0   0.00000   0.00000
      8677 IM1      157      IM1      N2       ND2R5B   2.249300       13.6070           0   -0.840000   1.00000
      8678 IM1      157      IM1      DN2      DRUD    -2.249300        0.4000           0   0.00000   0.00000
      8679 IM1      157      IM1      H7       HDP1A    0.000000        1.0080           0   0.00000   0.00000
      8680 IM1      157      IM1      LPN21    LPD     -0.474000        0.0000           -1   0.00000   0.00000
      8681 IM1      158      IM1      C1       CD33G    2.390600       11.6110           0   -1.08100   1.00000
      8682 IM1      158      IM1      DC1      DRUD    -2.551600        0.4000           0   0.00000   0.00000
      8683 IM1      158      IM1      H1       HDA3A    0.094000        1.0080           0   0.00000   0.00000
      8684 IM1      158      IM1      H2       HDA3A    0.094000        1.0080           0   0.00000   0.00000
      8685 IM1      158      IM1      H3       HDA3A    0.094000        1.0080           0   0.00000   0.00000
      8686 IM1      158      IM1      N1       ND2R5A   2.670300       13.6070           0   -1.06300   1.30000
      8687 IM1      158      IM1      DN1      DRUD    -2.530300        0.4000           0   0.00000   0.00000
      8688 IM1      158      IM1      C2       CD2R5A   2.511900       11.6110           0   -1.37800   1.30000
      8689 IM1      158      IM1      DC2      DRUD    -2.880900        0.4000           0   0.00000   0.00000
      8690 IM1      158      IM1      H4       HDR5A    0.150000        1.0080           0   0.00000   0.00000
      8691 IM1      158      IM1      C3       CD2R5A   3.068900       11.6110           0   -1.37800   1.30000
      8692 IM1      158      IM1      DC3      DRUD    -2.880900        0.4000           0   0.00000   0.00000
      8693 IM1      158      IM1      H5       HDR5A    0.053000        1.0080           0   0.00000   0.00000
      8694 IM1      158      IM1      C4       CD2R5B   2.404400       11.6110           0   -0.868000   1.30000
      8695 IM1      158      IM1      DC4      DRUD    -2.286400        0.4000           0   0.00000   0.00000
      8696 IM1      158      IM1      H6       HDR5B    0.073000        1.0080           0   0.00000   0.00000
      8697 IM1      158      IM1      N2       ND2R5B   2.249300       13.6070           0   -0.840000   1.00000
      8698 IM1      158      IM1      DN2      DRUD    -2.249300        0.4000           0   0.00000   0.00000
      8699 IM1      158      IM1      H7       HDP1A    0.000000        1.0080           0   0.00000   0.00000
      8700 IM1      158      IM1      LPN21    LPD     -0.474000        0.0000           -1   0.00000   0.00000
      8701 IM1      159      IM1      C1       CD33G    2.390600       11.6110           0   -1.08100   1.00000
      8702 IM1      159      IM1      DC1      DRUD    -2.551600        0.4000           0   0.00000   0.00000
      8703 IM1      159      IM1      H1       HDA3A    0.094000        1.0080           0   0.00000   0.00000
      8704 IM1      159      IM1      H2       HDA3A    0.094000        1.0080           0   0.00000   0.00000
      8705 IM1      159      IM1      H3       HDA3A    0.094000        1.0080           0   0.00000   0.00000
      8706 IM1      159      IM1      N1       ND2R5A   2.670300       13.6070           0   -1.06300   1.30000
      8707 IM1      159      IM1      DN1      DRUD    -2.530300        0.4000           0   0.00000   0.00000
      8708 IM1      159      IM1      C2       CD2R5A   2.511900       11.6110           0   -1.37800   1.30000
      8709 IM1      159      IM1      DC2      DRUD    -2.880900        0.4000           0   0.00000   0.00000
      8710 IM1      159      IM1      H4       HDR5A    0.150000        1.0080           0   0.00000   0.00000
      8711 IM1      159      IM1      C3       CD2R5A   3.068900       11.6110           0   -1.37800   1.30000
      8712 IM1      159      IM1      DC3      DRUD    -2.880900        0.4000           0   0.00000   0.00000
      8713 IM1      159      IM1      H5       HDR5A    0.053000        1.0080           0   0.00000   0.00000
      8714 IM1      159      IM1      C4       CD2R5B   2.404400       11.6110           0   -0.868000   1.30000
      8715 IM1      159      IM1      DC4      DRUD    -2.286400        0.4000           0   0.00000   0.00000
      8716 IM1      159      IM1      H6       HDR5B    0.073000        1.0080           0   0.00000   0.00000
      8717 IM1      159      IM1      N2       ND2R5B   2.249300       13.6070           0   -0.840000   1.00000
      8718 IM1      159      IM1      DN2      DRUD    -2.249300        0.4000           0   0.00000   0.00000
      8719 IM1      159      IM1      H7       HDP1A    0.000000        1.0080           0   0.00000   0.00000
      8720 IM1      159      IM1      LPN21    LPD     -0.474000        0.0000           -1   0.00000   0.00000
      8721 IM1      160      IM1      C1       CD33G    2.390600       11.6110           0   -1.08100   1.00000
      8722 IM1      160      IM1      DC1      DRUD    -2.551600        0.4000           0   0.00000   0.00000
      8723 IM1      160      IM1      H1       HDA3A    0.094000        1.0080           0   0.00000   0.00000
      8724 IM1      160      IM1      H2       HDA3A    0.094000        1.0080           0   0.00000   0.00000
      8725 IM1      160      IM1      H3       HDA3A    0.094000        1.0080           0   0.00000   0.00000
      8726 IM1      160      IM1      N1       ND2R5A   2.670300       13.6070           0   -1.06300   1.30000
      8727 IM1      160      IM1      DN1      DRUD    -2.530300        0.4000           0   0.00000   0.00000
      8728 IM1      160      IM1      C2       CD2R5A   2.511900       11.6110           0   -1.37800   1.30000
      8729 IM1      160      IM1      DC2      DRUD    -2.880900        0.4000           0   0.00000   0.00000
      8730 IM1      160      IM1      H4       HDR5A    0.150000        1.0080           0   0.00000   0.00000
      8731 IM1      160      IM1      C3       CD2R5A   3.068900       11.6110           0   -1.37800   1.30000
      8732 IM1      160      IM1      DC3      DRUD    -2.880900        0.4000           0   0.00000   0.00000
      8733 IM1      160      IM1      H5       HDR5A    0.053000        1.0080           0   0.00000   0.00000
      8734 IM1      160      IM1      C4       CD2R5B   2.404400       11.6110           0   -0.868000   1.30000
      8735 IM1      160      IM1      DC4      DRUD    -2.286400        0.4000           0   0.00000   0.00000
      8736 IM1      160      IM1      H6       HDR5B    0.073000        1.0080           0   0.00000   0.00000
      8737 IM1      160      IM1      N2       ND2R5B   2.249300       13.6070           0   -0.840000   1.00000
      8738 IM1      160      IM1      DN2      DRUD    -2.249300        0.4000           0   0.00000   0.00000
      8739 IM1      160      IM1      H7       HDP1A    0.000000        1.0080           0   0.00000   0.00000
      8740 IM1      160      IM1      LPN21    LPD     -0.474000        0.0000           -1   0.00000   0.00000
      8741 IM1      161      IM1      C1       CD33G    2.390600       11.6110           0   -1.08100   1.00000
      8742 IM1      161      IM1      DC1      DRUD    -2.551600        0.4000           0   0.00000   0.00000
      8743 IM1      161      IM1      H1       HDA3A    0.094000        1.0080           0   0.00000   0.00000
      8744 IM1      161      IM1      H2       HDA3A    0.094000        1.0080           0   0.00000   0.00000
      8745 IM1      161      IM1      H3       HDA3A    0.094000        1.0080           0   0.00000   0.00000
      8746 IM1      161      IM1      N1       ND2R5A   2.670300       13.6070           0   -1.06300   1.30000
      8747 IM1      161      IM1      DN1      DRUD    -2.530300        0.4000           0   0.00000   0.00000
      8748 IM1      161      IM1      C2       CD2R5A   2.511900       11.6110           0   -1.37800   1.30000
      8749 IM1      161      IM1      DC2      DRUD    -2.880900        0.4000           0   0.00000   0.00000
      8750 IM1      161      IM1      H4       HDR5A    0.150000        1.0080           0   0.00000   0.00000
      8751 IM1      161      IM1      C3       CD2R5A   3.068900       11.6110           0   -1.37800   1.30000
      8752 IM1      161      IM1      DC3      DRUD    -2.880900        0.4000           0   0.00000   0.00000
      8753 IM1      161      IM1      H5       HDR5A    0.053000        1.0080           0   0.00000   0.00000
      8754 IM1      161      IM1      C4       CD2R5B   2.404400       11.6110           0   -0.868000   1.30000
      8755 IM1      161      IM1      DC4      DRUD    -2.286400        0.4000           0   0.00000   0.00000
      8756 IM1      161      IM1      H6       HDR5B    0.073000        1.0080           0   0.00000   0.00000
      8757 IM1      161      IM1      N2       ND2R5B   2.249300       13.6070           0   -0.840000   1.00000
      8758 IM1      161      IM1      DN2      DRUD    -2.249300        0.4000           0   0.00000   0.00000
      8759 IM1      161      IM1      H7       HDP1A    0.000000        1.0080           0   0.00000   0.00000
      8760 IM1      161      IM1      LPN21    LPD     -0.474000        0.0000           -1   0.00000   0.00000
      8761 IM1      162      IM1      C1       CD33G    2.390600       11.6110           0   -1.08100   1.00000
      8762 IM1      162      IM1      DC1      DRUD    -2.551600        0.4000           0   0.00000   0.00000
      8763 IM1      162      IM1      H1       HDA3A    0.094000        1.0080           0   0.00000   0.00000
      8764 IM1      162      IM1      H2       HDA3A    0.094000        1.0080           0   0.00000   0.00000
      8765 IM1      162      IM1      H3       HDA3A    0.094000        1.0080           0   0.00000   0.00000
      8766 IM1      162      IM1      N1       ND2R5A   2.670300       13.6070           0   -1.06300   1.30000
      8767 IM1      162      IM1      DN1      DRUD    -2.530300        0.4000           0   0.00000   0.00000
      8768 IM1      162      IM1      C2       CD2R5A   2.511900       11.6110           0   -1.37800   1.30000
      8769 IM1      162      IM1      DC2      DRUD    -2.880900        0.4000           0   0.00000   0.00000
      8770 IM1      162      IM1      H4       HDR5A    0.150000        1.0080           0   0.00000   0.00000
      8771 IM1      162      IM1      C3       CD2R5A   3.068900       11.6110           0   -1.37800   1.30000
      8772 IM1      162      IM1      DC3      DRUD    -2.880900        0.4000           0   0.00000   0.00000
      8773 IM1      162      IM1      H5       HDR5A    0.053000        1.0080           0   0.00000   0.00000
      8774 IM1      162      IM1      C4       CD2R5B   2.404400       11.6110           0   -0.868000   1.30000
      8775 IM1      162      IM1      DC4      DRUD    -2.286400        0.4000           0   0.00000   0.00000
      8776 IM1      162      IM1      H6       HDR5B    0.073000        1.0080           0   0.00000   0.00000
      8777 IM1      162      IM1      N2       ND2R5B   2.249300       13.6070           0   -0.840000   1.00000
      8778 IM1      162      IM1      DN2      DRUD    -2.249300        0.4000           0   0.00000   0.00000
      8779 IM1      162      IM1      H7       HDP1A    0.000000        1.0080           0   0.00000   0.00000
      8780 IM1      162      IM1      LPN21    LPD     -0.474000        0.0000           -1   0.00000   0.00000
      8781 IM1      163      IM1      C1       CD33G    2.390600       11.6110           0   -1.08100   1.00000
      8782 IM1      163      IM1      DC1      DRUD    -2.551600        0.4000           0   0.00000   0.00000
      8783 IM1      163      IM1      H1       HDA3A    0.094000        1.0080           0   0.00000   0.00000
      8784 IM1      163      IM1      H2       HDA3A    0.094000        1.0080           0   0.00000   0.00000
      8785 IM1      163      IM1      H3       HDA3A    0.094000        1.0080           0   0.00000   0.00000
      8786 IM1      163      IM1      N1       ND2R5A   2.670300       13.6070           0   -1.06300   1.30000
      8787 IM1      163      IM1      DN1      DRUD    -2.530300        0.4000           0   0.00000   0.00000
      8788 IM1      163      IM1      C2       CD2R5A   2.511900       11.6110           0   -1.37800   1.30000
      8789 IM1      163      IM1      DC2      DRUD    -2.880900        0.4000           0   0.00000   0.00000
      8790 IM1      163      IM1      H4       HDR5A    0.150000        1.0080           0   0.00000   0.00000
      8791 IM1      163      IM1      C3       CD2R5A   3.068900       11.6110           0   -1.37800   1.30000
      8792 IM1      163      IM1      DC3      DRUD    -2.880900        0.4000           0   0.00000   0.00000
      8793 IM1      163      IM1      H5       HDR5A    0.053000        1.0080           0   0.00000   0.00000
      8794 IM1      163      IM1      C4       CD2R5B   2.404400       11.6110           0   -0.868000   1.30000
      8795 IM1      163      IM1      DC4      DRUD    -2.286400        0.4000           0   0.00000   0.00000
      8796 IM1      163      IM1      H6       HDR5B    0.073000        1.0080           0   0.00000   0.00000
      8797 IM1      163      IM1      N2       ND2R5B   2.249300       13.6070           0   -0.840000   1.00000
      8798 IM1      163      IM1      DN2      DRUD    -2.249300        0.4000           0   0.00000   0.00000
      8799 IM1      163      IM1      H7       HDP1A    0.000000        1.0080           0   0.00000   0.00000
      8800 IM1      163      IM1      LPN21    LPD     -0.474000        0.0000           -1   0.00000   0.00000
      8801 IM1      164      IM1      C1       CD33G    2.390600       11.6110           0   -1.08100   1.00000
      8802 IM1      164      IM1      DC1      DRUD    -2.551600        0.4000           0   0.00000   0.00000
      8803 IM1      164      IM1      H1       HDA3A    0.094000        1.0080           0   0.00000   0.00000
      8804 IM1      164      IM1      H2       HDA3A    0.094000        1.0080           0   0.00000   0.00000
      8805 IM1      164      IM1      H3       HDA3A    0.094000        1.0080           0   0.00000   0.00000
      8806 IM1      164      IM1      N1       ND2R5A   2.670300       13.6070           0   -1.06300   1.30000
      8807 IM1      164      IM1      DN1      DRUD    -2.530300        0.4000           0   0.00000   0.00000
      8808 IM1      164      IM1      C2       CD2R5A   2.511900       11.6110           0   -1.37800   1.30000
      8809 IM1      164      IM1      DC2      DRUD    -2.880900        0.4000           0   0.00000   0.00000
      8810 IM1      164      IM1      H4       HDR5A    0.150000        1.0080           0   0.00000   0.00000
      8811 IM1      164      IM1      C3       CD2R5A   3.068900       11.6110           0   -1.37800   1.30000
      8812 IM1      164      IM1      DC3      DRUD    -2.880900        0.4000           0   0.00000   0.00000
      8813 IM1      164      IM1      H5       HDR5A    0.053000        1.0080           0   0.00000   0.00000
      8814 IM1      164      IM1      C4       CD2R5B   2.404400       11.6110           0   -0.868000   1.30000
      8815 IM1      164      IM1      DC4      DRUD    -2.286400        0.4000           0   0.00000   0.00000
      8816 IM1      164      IM1      H6       HDR5B    0.073000        1.0080           0   0.00000   0.00000
      8817 IM1      164      IM1      N2       ND2R5B   2.249300       13.6070           0   -0.840000   1.00000
      8818 IM1      164      IM1      DN2      DRUD    -2.249300        0.4000           0   0.00000   0.00000
      8819 IM1      164      IM1      H7       HDP1A    0.000000        1.0080           0   0.00000   0.00000
      8820 IM1      164      IM1      LPN21    LPD     -0.474000        0.0000           -1   0.00000   0.00000
      8821 IM1      165      IM1      C1       CD33G    2.390600       11.6110           0   -1.08100   1.00000
      8822 IM1      165      IM1      DC1      DRUD    -2.551600        0.4000           0   0.00000   0.00000
      8823 IM1      165      IM1      H1       HDA3A    0.094000        1.0080           0   0.00000   0.00000
      8824 IM1      165      IM1      H2       HDA3A    0.094000        1.0080           0   0.00000   0.00000
      8825 IM1      165      IM1      H3       HDA3A    0.094000        1.0080           0   0.00000   0.00000
      8826 IM1      165      IM1      N1       ND2R5A   2.670300       13.6070           0   -1.06300   1.30000
      8827 IM1      165      IM1      DN1      DRUD    -2.530300        0.4000           0   0.00000   0.00000
      8828 IM1      165      IM1      C2       CD2R5A   2.511900       11.6110           0   -1.37800   1.30000
      8829 IM1      165      IM1      DC2      DRUD    -2.880900        0.4000           0   0.00000   0.00000
      8830 IM1      165      IM1      H4       HDR5A    0.150000        1.0080           0   0.00000   0.00000
      8831 IM1      165      IM1      C3       CD2R5A   3.068900       11.6110           0   -1.37800   1.30000
      8832 IM1      165      IM1      DC3      DRUD    -2.880900        0.4000           0   0.00000   0.00000
      8833 IM1      165      IM1      H5       HDR5A    0.053000        1.0080           0   0.00000   0.00000
      8834 IM1      165      IM1      C4       CD2R5B   2.404400       11.6110           0   -0.868000   1.30000
      8835 IM1      165      IM1      DC4      DRUD    -2.286400        0.4000           0   0.00000   0.00000
      8836 IM1      165      IM1      H6       HDR5B    0.073000        1.0080           0   0.00000   0.00000
      8837 IM1      165      IM1      N2       ND2R5B   2.249300       13.6070           0   -0.840000   1.00000
      8838 IM1      165      IM1      DN2      DRUD    -2.249300        0.4000           0   0.00000   0.00000
      8839 IM1      165      IM1      H7       HDP1A    0.000000        1.0080           0   0.00000   0.00000
      8840 IM1      165      IM1      LPN21    LPD     -0.474000        0.0000           -1   0.00000   0.00000
      8841 IM1      166      IM1      C1       CD33G    2.390600       11.6110           0   -1.08100   1.00000
      8842 IM1      166      IM1      DC1      DRUD    -2.551600        0.4000           0   0.00000   0.00000
      8843 IM1      166      IM1      H1       HDA3A    0.094000        1.0080           0   0.00000   0.00000
      8844 IM1      166      IM1      H2       HDA3A    0.094000        1.0080           0   0.00000   0.00000
      8845 IM1      166      IM1      H3       HDA3A    0.094000        1.0080           0   0.00000   0.00000
      8846 IM1      166      IM1      N1       ND2R5A   2.670300       13.6070           0   -1.06300   1.30000
      8847 IM1      166      IM1      DN1      DRUD    -2.530300        0.4000           0   0.00000   0.00000
      8848 IM1      166      IM1      C2       CD2R5A   2.511900       11.6110           0   -1.37800   1.30000
      8849 IM1      166      IM1      DC2      DRUD    -2.880900        0.4000           0   0.00000   0.00000
      8850 IM1      166      IM1      H4       HDR5A    0.150000        1.0080           0   0.00000   0.00000
      8851 IM1      166      IM1      C3       CD2R5A   3.068900       11.6110           0   -1.37800   1.30000
      8852 IM1      166      IM1      DC3      DRUD    -2.880900        0.4000           0   0.00000   0.00000
      8853 IM1      166      IM1      H5       HDR5A    0.053000        1.0080           0   0.00000   0.00000
      8854 IM1      166      IM1      C4       CD2R5B   2.404400       11.6110           0   -0.868000   1.30000
      8855 IM1      166      IM1      DC4      DRUD    -2.286400        0.4000           0   0.00000   0.00000
      8856 IM1      166      IM1      H6       HDR5B    0.073000        1.0080           0   0.00000   0.00000
      8857 IM1      166      IM1      N2       ND2R5B   2.249300       13.6070           0   -0.840000   1.00000
      8858 IM1      166      IM1      DN2      DRUD    -2.249300        0.4000           0   0.00000   0.00000
      8859 IM1      166      IM1      H7       HDP1A    0.000000        1.0080           0   0.00000   0.00000
      8860 IM1      166      IM1      LPN21    LPD     -0.474000        0.0000           -1   0.00000   0.00000
      8861 IM1      167      IM1      C1       CD33G    2.390600       11.6110           0   -1.08100   1.00000
      8862 IM1      167      IM1      DC1      DRUD    -2.551600        0.4000           0   0.00000   0.00000
      8863 IM1      167      IM1      H1       HDA3A    0.094000        1.0080           0   0.00000   0.00000
      8864 IM1      167      IM1      H2       HDA3A    0.094000        1.0080           0   0.00000   0.00000
      8865 IM1      167      IM1      H3       HDA3A    0.094000        1.0080           0   0.00000   0.00000
      8866 IM1      167      IM1      N1       ND2R5A   2.670300       13.6070           0   -1.06300   1.30000
      8867 IM1      167      IM1      DN1      DRUD    -2.530300        0.4000           0   0.00000   0.00000
      8868 IM1      167      IM1      C2       CD2R5A   2.511900       11.6110           0   -1.37800   1.30000
      8869 IM1      167      IM1      DC2      DRUD    -2.880900        0.4000           0   0.00000   0.00000
      8870 IM1      167      IM1      H4       HDR5A    0.150000        1.0080           0   0.00000   0.00000
      8871 IM1      167      IM1      C3       CD2R5A   3.068900       11.6110           0   -1.37800   1.30000
      8872 IM1      167      IM1      DC3      DRUD    -2.880900        0.4000           0   0.00000   0.00000
      8873 IM1      167      IM1      H5       HDR5A    0.053000        1.0080           0   0.00000   0.00000
      8874 IM1      167      IM1      C4       CD2R5B   2.404400       11.6110           0   -0.868000   1.30000
      8875 IM1      167      IM1      DC4      DRUD    -2.286400        0.4000           0   0.00000   0.00000
      8876 IM1      167      IM1      H6       HDR5B    0.073000        1.0080           0   0.00000   0.00000
      8877 IM1      167      IM1      N2       ND2R5B   2.249300       13.6070           0   -0.840000   1.00000
      8878 IM1      167      IM1      DN2      DRUD    -2.249300        0.4000           0   0.00000   0.00000
      8879 IM1      167      IM1      H7       HDP1A    0.000000        1.0080           0   0.00000   0.00000
      8880 IM1      167      IM1      LPN21    LPD     -0.474000        0.0000           -1   0.00000   0.00000
      8881 IM1      168      IM1      C1       CD33G    2.390600       11.6110           0   -1.08100   1.00000
      8882 IM1      168      IM1      DC1      DRUD    -2.551600        0.4000           0   0.00000   0.00000
      8883 IM1      168      IM1      H1       HDA3A    0.094000        1.0080           0   0.00000   0.00000
      8884 IM1      168      IM1      H2       HDA3A    0.094000        1.0080           0   0.00000   0.00000
      8885 IM1      168      IM1      H3       HDA3A    0.094000        1.0080           0   0.00000   0.00000
      8886 IM1      168      IM1      N1       ND2R5A   2.670300       13.6070           0   -1.06300   1.30000
      8887 IM1      168      IM1      DN1      DRUD    -2.530300        0.4000           0   0.00000   0.00000
      8888 IM1      168      IM1      C2       CD2R5A   2.511900       11.6110           0   -1.37800   1.30000
      8889 IM1      168      IM1      DC2      DRUD    -2.880900        0.4000           0   0.00000   0.00000
      8890 IM1      168      IM1      H4       HDR5A    0.150000        1.0080           0   0.00000   0.00000
      8891 IM1      168      IM1      C3       CD2R5A   3.068900       11.6110           0   -1.37800   1.30000
      8892 IM1      168      IM1      DC3      DRUD    -2.880900        0.4000           0   0.00000   0.00000
      8893 IM1      168      IM1      H5       HDR5A    0.053000        1.0080           0   0.00000   0.00000
      8894 IM1      168      IM1      C4       CD2R5B   2.404400       11.6110           0   -0.868000   1.30000
      8895 IM1      168      IM1      DC4      DRUD    -2.286400        0.4000           0   0.00000   0.00000
      8896 IM1      168      IM1      H6       HDR5B    0.073000        1.0080           0   0.00000   0.00000
      8897 IM1      168      IM1      N2       ND2R5B   2.249300       13.6070           0   -0.840000   1.00000
      8898 IM1      168      IM1      DN2      DRUD    -2.249300        0.4000           0   0.00000   0.00000
      8899 IM1      168      IM1      H7       HDP1A    0.000000        1.0080           0   0.00000   0.00000
      8900 IM1      168      IM1      LPN21    LPD     -0.474000        0.0000           -1   0.00000   0.00000
      8901 IM1      169      IM1      C1       CD33G    2.390600       11.6110           0   -1.08100   1.00000
      8902 IM1      169      IM1      DC1      DRUD    -2.551600        0.4000           0   0.00000   0.00000
      8903 IM1      169      IM1      H1       HDA3A    0.094000        1.0080           0   0.00000   0.00000
      8904 IM1      169      IM1      H2       HDA3A    0.094000        1.0080           0   0.00000   0.00000
      8905 IM1      169      IM1      H3       HDA3A    0.094000        1.0080           0   0.00000   0.00000
      8906 IM1      169      IM1      N1       ND2R5A   2.670300       13.6070           0   -1.06300   1.30000
      8907 IM1      169      IM1      DN1      DRUD    -2.530300        0.4000           0   0.00000   0.00000
      8908 IM1      169      IM1      C2       CD2R5A   2.511900       11.6110           0   -1.37800   1.30000
      8909 IM1      169      IM1      DC2      DRUD    -2.880900        0.4000           0   0.00000   0.00000
      8910 IM1      169      IM1      H4       HDR5A    0.150000        1.0080           0   0.00000   0.00000
      8911 IM1      169      IM1      C3       CD2R5A   3.068900       11.6110           0   -1.37800   1.30000
      8912 IM1      169      IM1      DC3      DRUD    -2.880900        0.4000           0   0.00000   0.00000
      8913 IM1      169      IM1      H5       HDR5A    0.053000        1.0080           0   0.00000   0.00000
      8914 IM1      169      IM1      C4       CD2R5B   2.404400       11.6110           0   -0.868000   1.30000
      8915 IM1      169      IM1      DC4      DRUD    -2.286400        0.4000           0   0.00000   0.00000
      8916 IM1      169      IM1      H6       HDR5B    0.073000        1.0080           0   0.00000   0.00000
      8917 IM1      169      IM1      N2       ND2R5B   2.249300       13.6070           0   -0.840000   1.00000
      8918 IM1      169      IM1      DN2      DRUD    -2.249300        0.4000           0   0.00000   0.00000
      8919 IM1      169      IM1      H7       HDP1A    0.000000        1.0080           0   0.00000   0.00000
      8920 IM1      169      IM1      LPN21    LPD     -0.474000        0.0000           -1   0.00000   0.00000
      8921 IM1      170      IM1      C1       CD33G    2.390600       11.6110           0   -1.08100   1.00000
      8922 IM1      170      IM1      DC1      DRUD    -2.551600        0.4000           0   0.00000   0.00000
      8923 IM1      170      IM1      H1       HDA3A    0.094000        1.0080           0   0.00000   0.00000
      8924 IM1      170      IM1      H2       HDA3A    0.094000        1.0080           0   0.00000   0.00000
      8925 IM1      170      IM1      H3       HDA3A    0.094000        1.0080           0   0.00000   0.00000
      8926 IM1      170      IM1      N1       ND2R5A   2.670300       13.6070           0   -1.06300   1.30000
      8927 IM1      170      IM1      DN1      DRUD    -2.530300        0.4000           0   0.00000   0.00000
      8928 IM1      170      IM1      C2       CD2R5A   2.511900       11.6110           0   -1.37800   1.30000
      8929 IM1      170      IM1      DC2      DRUD    -2.880900        0.4000           0   0.00000   0.00000
      8930 IM1      170      IM1      H4       HDR5A    0.150000        1.0080           0   0.00000   0.00000
      8931 IM1      170      IM1      C3       CD2R5A   3.068900       11.6110           0   -1.37800   1.30000
      8932 IM1      170      IM1      DC3      DRUD    -2.880900        0.4000           0   0.00000   0.00000
      8933 IM1      170      IM1      H5       HDR5A    0.053000        1.0080           0   0.00000   0.00000
      8934 IM1      170      IM1      C4       CD2R5B   2.404400       11.6110           0   -0.868000   1.30000
      8935 IM1      170      IM1      DC4      DRUD    -2.286400        0.4000           0   0.00000   0.00000
      8936 IM1      170      IM1      H6       HDR5B    0.073000        1.0080           0   0.00000   0.00000
      8937 IM1      170      IM1      N2       ND2R5B   2.249300       13.6070           0   -0.840000   1.00000
      8938 IM1      170      IM1      DN2      DRUD    -2.249300        0.4000           0   0.00000   0.00000
      8939 IM1      170      IM1      H7       HDP1A    0.000000        1.0080           0   0.00000   0.00000
      8940 IM1      170      IM1      LPN21    LPD     -0.474000        0.0000           -1   0.00000   0.00000
      8941 IM1      171      IM1      C1       CD33G    2.390600       11.6110           0   -1.08100   1.00000
      8942 IM1      171      IM1      DC1      DRUD    -2.551600        0.4000           0   0.00000   0.00000
      8943 IM1      171      IM1      H1       HDA3A    0.094000        1.0080           0   0.00000   0.00000
      8944 IM1      171      IM1      H2       HDA3A    0.094000        1.0080           0   0.00000   0.00000
      8945 IM1      171      IM1      H3       HDA3A    0.094000        1.0080           0   0.00000   0.00000
      8946 IM1      171      IM1      N1       ND2R5A   2.670300       13.6070           0   -1.06300   1.30000
      8947 IM1      171      IM1      DN1      DRUD    -2.530300        0.4000           0   0.00000   0.00000
      8948 IM1      171      IM1      C2       CD2R5A   2.511900       11.6110           0   -1.37800   1.30000
      8949 IM1      171      IM1      DC2      DRUD    -2.880900        0.4000           0   0.00000   0.00000
      8950 IM1      171      IM1      H4       HDR5A    0.150000        1.0080           0   0.00000   0.00000
      8951 IM1      171      IM1      C3       CD2R5A   3.068900       11.6110           0   -1.37800   1.30000
      8952 IM1      171      IM1      DC3      DRUD    -2.880900        0.4000           0   0.00000   0.00000
      8953 IM1      171      IM1      H5       HDR5A    0.053000        1.0080           0   0.00000   0.00000
      8954 IM1      171      IM1      C4       CD2R5B   2.404400       11.6110           0   -0.868000   1.30000
      8955 IM1      171      IM1      DC4      DRUD    -2.286400        0.4000           0   0.00000   0.00000
      8956 IM1      171      IM1      H6       HDR5B    0.073000        1.0080           0   0.00000   0.00000
      8957 IM1      171      IM1      N2       ND2R5B   2.249300       13.6070           0   -0.840000   1.00000
      8958 IM1      171      IM1      DN2      DRUD    -2.249300        0.4000           0   0.00000   0.00000
      8959 IM1      171      IM1      H7       HDP1A    0.000000        1.0080           0   0.00000   0.00000
      8960 IM1      171      IM1      LPN21    LPD     -0.474000        0.0000           -1   0.00000   0.00000
      8961 IM1      172      IM1      C1       CD33G    2.390600       11.6110           0   -1.08100   1.00000
      8962 IM1      172      IM1      DC1      DRUD    -2.551600        0.4000           0   0.00000   0.00000
      8963 IM1      172      IM1      H1       HDA3A    0.094000        1.0080           0   0.00000   0.00000
      8964 IM1      172      IM1      H2       HDA3A    0.094000        1.0080           0   0.00000   0.00000
      8965 IM1      172      IM1      H3       HDA3A    0.094000        1.0080           0   0.00000   0.00000
      8966 IM1      172      IM1      N1       ND2R5A   2.670300       13.6070           0   -1.06300   1.30000
      8967 IM1      172      IM1      DN1      DRUD    -2.530300        0.4000           0   0.00000   0.00000
      8968 IM1      172      IM1      C2       CD2R5A   2.511900       11.6110           0   -1.37800   1.30000
      8969 IM1      172      IM1      DC2      DRUD    -2.880900        0.4000           0   0.00000   0.00000
      8970 IM1      172      IM1      H4       HDR5A    0.150000        1.0080           0   0.00000   0.00000
      8971 IM1      172      IM1      C3       CD2R5A   3.068900       11.6110           0   -1.37800   1.30000
      8972 IM1      172      IM1      DC3      DRUD    -2.880900        0.4000           0   0.00000   0.00000
      8973 IM1      172      IM1      H5       HDR5A    0.053000        1.0080           0   0.00000   0.00000
      8974 IM1      172      IM1      C4       CD2R5B   2.404400       11.6110           0   -0.868000   1.30000
      8975 IM1      172      IM1      DC4      DRUD    -2.286400        0.4000           0   0.00000   0.00000
      8976 IM1      172      IM1      H6       HDR5B    0.073000        1.0080           0   0.00000   0.00000
      8977 IM1      172      IM1      N2       ND2R5B   2.249300       13.6070           0   -0.840000   1.00000
      8978 IM1      172      IM1      DN2      DRUD    -2.249300        0.4000           0   0.00000   0.00000
      8979 IM1      172      IM1      H7       HDP1A    0.000000        1.0080           0   0.00000   0.00000
      8980 IM1      172      IM1      LPN21    LPD     -0.474000        0.0000           -1   0.00000   0.00000
      8981 IM1      173      IM1      C1       CD33G    2.390600       11.6110           0   -1.08100   1.00000
      8982 IM1      173      IM1      DC1      DRUD    -2.551600        0.4000           0   0.00000   0.00000
      8983 IM1      173      IM1      H1       HDA3A    0.094000        1.0080           0   0.00000   0.00000
      8984 IM1      173      IM1      H2       HDA3A    0.094000        1.0080           0   0.00000   0.00000
      8985 IM1      173      IM1      H3       HDA3A    0.094000        1.0080           0   0.00000   0.00000
      8986 IM1      173      IM1      N1       ND2R5A   2.670300       13.6070           0   -1.06300   1.30000
      8987 IM1      173      IM1      DN1      DRUD    -2.530300        0.4000           0   0.00000   0.00000
      8988 IM1      173      IM1      C2       CD2R5A   2.511900       11.6110           0   -1.37800   1.30000
      8989 IM1      173      IM1      DC2      DRUD    -2.880900        0.4000           0   0.00000   0.00000
      8990 IM1      173      IM1      H4       HDR5A    0.150000        1.0080           0   0.00000   0.00000
      8991 IM1      173      IM1      C3       CD2R5A   3.068900       11.6110           0   -1.37800   1.30000
      8992 IM1      173      IM1      DC3      DRUD    -2.880900        0.4000           0   0.00000   0.00000
      8993 IM1      173      IM1      H5       HDR5A    0.053000        1.0080           0   0.00000   0.00000
      8994 IM1      173      IM1      C4       CD2R5B   2.404400       11.6110           0   -0.868000   1.30000
      8995 IM1      173      IM1      DC4      DRUD    -2.286400        0.4000           0   0.00000   0.00000
      8996 IM1      173      IM1      H6       HDR5B    0.073000        1.0080           0   0.00000   0.00000
      8997 IM1      173      IM1      N2       ND2R5B   2.249300       13.6070           0   -0.840000   1.00000
      8998 IM1      173      IM1      DN2      DRUD    -2.249300        0.4000           0   0.00000   0.00000
      8999 IM1      173      IM1      H7       HDP1A    0.000000        1.0080           0   0.00000   0.00000
      9000 IM1      173      IM1      LPN21    LPD     -0.474000        0.0000           -1   0.00000   0.00000
      9001 IM1      174      IM1      C1       CD33G    2.390600       11.6110           0   -1.08100   1.00000
      9002 IM1      174      IM1      DC1      DRUD    -2.551600        0.4000           0   0.00000   0.00000
      9003 IM1      174      IM1      H1       HDA3A    0.094000        1.0080           0   0.00000   0.00000
      9004 IM1      174      IM1      H2       HDA3A    0.094000        1.0080           0   0.00000   0.00000
      9005 IM1      174      IM1      H3       HDA3A    0.094000        1.0080           0   0.00000   0.00000
      9006 IM1      174      IM1      N1       ND2R5A   2.670300       13.6070           0   -1.06300   1.30000
      9007 IM1      174      IM1      DN1      DRUD    -2.530300        0.4000           0   0.00000   0.00000
      9008 IM1      174      IM1      C2       CD2R5A   2.511900       11.6110           0   -1.37800   1.30000
      9009 IM1      174      IM1      DC2      DRUD    -2.880900        0.4000           0   0.00000   0.00000
      9010 IM1      174      IM1      H4       HDR5A    0.150000        1.0080           0   0.00000   0.00000
      9011 IM1      174      IM1      C3       CD2R5A   3.068900       11.6110           0   -1.37800   1.30000
      9012 IM1      174      IM1      DC3      DRUD    -2.880900        0.4000           0   0.00000   0.00000
      9013 IM1      174      IM1      H5       HDR5A    0.053000        1.0080           0   0.00000   0.00000
      9014 IM1      174      IM1      C4       CD2R5B   2.404400       11.6110           0   -0.868000   1.30000
      9015 IM1      174      IM1      DC4      DRUD    -2.286400        0.4000           0   0.00000   0.00000
      9016 IM1      174      IM1      H6       HDR5B    0.073000        1.0080           0   0.00000   0.00000
      9017 IM1      174      IM1      N2       ND2R5B   2.249300       13.6070           0   -0.840000   1.00000
      9018 IM1      174      IM1      DN2      DRUD    -2.249300        0.4000           0   0.00000   0.00000
      9019 IM1      174      IM1      H7       HDP1A    0.000000        1.0080           0   0.00000   0.00000
      9020 IM1      174      IM1      LPN21    LPD     -0.474000        0.0000           -1   0.00000   0.00000
      9021 IM1      175      IM1      C1       CD33G    2.390600       11.6110           0   -1.08100   1.00000
      9022 IM1      175      IM1      DC1      DRUD    -2.551600        0.4000           0   0.00000   0.00000
      9023 IM1      175      IM1      H1       HDA3A    0.094000        1.0080           0   0.00000   0.00000
      9024 IM1      175      IM1      H2       HDA3A    0.094000        1.0080           0   0.00000   0.00000
      9025 IM1      175      IM1      H3       HDA3A    0.094000        1.0080           0   0.00000   0.00000
      9026 IM1      175      IM1      N1       ND2R5A   2.670300       13.6070           0   -1.06300   1.30000
      9027 IM1      175      IM1      DN1      DRUD    -2.530300        0.4000           0   0.00000   0.00000
      9028 IM1      175      IM1      C2       CD2R5A   2.511900       11.6110           0   -1.37800   1.30000
      9029 IM1      175      IM1      DC2      DRUD    -2.880900        0.4000           0   0.00000   0.00000
      9030 IM1      175      IM1      H4       HDR5A    0.150000        1.0080           0   0.00000   0.00000
      9031 IM1      175      IM1      C3       CD2R5A   3.068900       11.6110           0   -1.37800   1.30000
      9032 IM1      175      IM1      DC3      DRUD    -2.880900        0.4000           0   0.00000   0.00000
      9033 IM1      175      IM1      H5       HDR5A    0.053000        1.0080           0   0.00000   0.00000
      9034 IM1      175      IM1      C4       CD2R5B   2.404400       11.6110           0   -0.868000   1.30000
      9035 IM1      175      IM1      DC4      DRUD    -2.286400        0.4000           0   0.00000   0.00000
      9036 IM1      175      IM1      H6       HDR5B    0.073000        1.0080           0   0.00000   0.00000
      9037 IM1      175      IM1      N2       ND2R5B   2.249300       13.6070           0   -0.840000   1.00000
      9038 IM1      175      IM1      DN2      DRUD    -2.249300        0.4000           0   0.00000   0.00000
      9039 IM1      175      IM1      H7       HDP1A    0.000000        1.0080           0   0.00000   0.00000
      9040 IM1      175      IM1      LPN21    LPD     -0.474000        0.0000           -1   0.00000   0.00000
      9041 IM1      176      IM1      C1       CD33G    2.390600       11.6110           0   -1.08100   1.00000
      9042 IM1      176      IM1      DC1      DRUD    -2.551600        0.4000           0   0.00000   0.00000
      9043 IM1      176      IM1      H1       HDA3A    0.094000        1.0080           0   0.00000   0.00000
      9044 IM1      176      IM1      H2       HDA3A    0.094000        1.0080           0   0.00000   0.00000
      9045 IM1      176      IM1      H3       HDA3A    0.094000        1.0080           0   0.00000   0.00000
      9046 IM1      176      IM1      N1       ND2R5A   2.670300       13.6070           0   -1.06300   1.30000
      9047 IM1      176      IM1      DN1      DRUD    -2.530300        0.4000           0   0.00000   0.00000
      9048 IM1      176      IM1      C2       CD2R5A   2.511900       11.6110           0   -1.37800   1.30000
      9049 IM1      176      IM1      DC2      DRUD    -2.880900        0.4000           0   0.00000   0.00000
      9050 IM1      176      IM1      H4       HDR5A    0.150000        1.0080           0   0.00000   0.00000
      9051 IM1      176      IM1      C3       CD2R5A   3.068900       11.6110           0   -1.37800   1.30000
      9052 IM1      176      IM1      DC3      DRUD    -2.880900        0.4000           0   0.00000   0.00000
      9053 IM1      176      IM1      H5       HDR5A    0.053000        1.0080           0   0.00000   0.00000
      9054 IM1      176      IM1      C4       CD2R5B   2.404400       11.6110           0   -0.868000   1.30000
      9055 IM1      176      IM1      DC4      DRUD    -2.286400        0.4000           0   0.00000   0.00000
      9056 IM1      176      IM1      H6       HDR5B    0.073000        1.0080           0   0.00000   0.00000
      9057 IM1      176      IM1      N2       ND2R5B   2.249300       13.6070           0   -0.840000   1.00000
      9058 IM1      176      IM1      DN2      DRUD    -2.249300        0.4000           0   0.00000   0.00000
      9059 IM1      176      IM1      H7       HDP1A    0.000000        1.0080           0   0.00000   0.00000
      9060 IM1      176      IM1      LPN21    LPD     -0.474000        0.0000           -1   0.00000   0.00000
      9061 IM1      177      IM1      C1       CD33G    2.390600       11.6110           0   -1.08100   1.00000
      9062 IM1      177      IM1      DC1      DRUD    -2.551600        0.4000           0   0.00000   0.00000
      9063 IM1      177      IM1      H1       HDA3A    0.094000        1.0080           0   0.00000   0.00000
      9064 IM1      177      IM1      H2       HDA3A    0.094000        1.0080           0   0.00000   0.00000
      9065 IM1      177      IM1      H3       HDA3A    0.094000        1.0080           0   0.00000   0.00000
      9066 IM1      177      IM1      N1       ND2R5A   2.670300       13.6070           0   -1.06300   1.30000
      9067 IM1      177      IM1      DN1      DRUD    -2.530300        0.4000           0   0.00000   0.00000
      9068 IM1      177      IM1      C2       CD2R5A   2.511900       11.6110           0   -1.37800   1.30000
      9069 IM1      177      IM1      DC2      DRUD    -2.880900        0.4000           0   0.00000   0.00000
      9070 IM1      177      IM1      H4       HDR5A    0.150000        1.0080           0   0.00000   0.00000
      9071 IM1      177      IM1      C3       CD2R5A   3.068900       11.6110           0   -1.37800   1.30000
      9072 IM1      177      IM1      DC3      DRUD    -2.880900        0.4000           0   0.00000   0.00000
      9073 IM1      177      IM1      H5       HDR5A    0.053000        1.0080           0   0.00000   0.00000
      9074 IM1      177      IM1      C4       CD2R5B   2.404400       11.6110           0   -0.868000   1.30000
      9075 IM1      177      IM1      DC4      DRUD    -2.286400        0.4000           0   0.00000   0.00000
      9076 IM1      177      IM1      H6       HDR5B    0.073000        1.0080           0   0.00000   0.00000
      9077 IM1      177      IM1      N2       ND2R5B   2.249300       13.6070           0   -0.840000   1.00000
      9078 IM1      177      IM1      DN2      DRUD    -2.249300        0.4000           0   0.00000   0.00000
      9079 IM1      177      IM1      H7       HDP1A    0.000000        1.0080           0   0.00000   0.00000
      9080 IM1      177      IM1      LPN21    LPD     -0.474000        0.0000           -1   0.00000   0.00000
      9081 IM1      178      IM1      C1       CD33G    2.390600       11.6110           0   -1.08100   1.00000
      9082 IM1      178      IM1      DC1      DRUD    -2.551600        0.4000           0   0.00000   0.00000
      9083 IM1      178      IM1      H1       HDA3A    0.094000        1.0080           0   0.00000   0.00000
      9084 IM1      178      IM1      H2       HDA3A    0.094000        1.0080           0   0.00000   0.00000
      9085 IM1      178      IM1      H3       HDA3A    0.094000        1.0080           0   0.00000   0.00000
      9086 IM1      178      IM1      N1       ND2R5A   2.670300       13.6070           0   -1.06300   1.30000
      9087 IM1      178      IM1      DN1      DRUD    -2.530300        0.4000           0   0.00000   0.00000
      9088 IM1      178      IM1      C2       CD2R5A   2.511900       11.6110           0   -1.37800   1.30000
      9089 IM1      178      IM1      DC2      DRUD    -2.880900        0.4000           0   0.00000   0.00000
      9090 IM1      178      IM1      H4       HDR5A    0.150000        1.0080           0   0.00000   0.00000
      9091 IM1      178      IM1      C3       CD2R5A   3.068900       11.6110           0   -1.37800   1.30000
      9092 IM1      178      IM1      DC3      DRUD    -2.880900        0.4000           0   0.00000   0.00000
      9093 IM1      178      IM1      H5       HDR5A    0.053000        1.0080           0   0.00000   0.00000
      9094 IM1      178      IM1      C4       CD2R5B   2.404400       11.6110           0   -0.868000   1.30000
      9095 IM1      178      IM1      DC4      DRUD    -2.286400        0.4000           0   0.00000   0.00000
      9096 IM1      178      IM1      H6       HDR5B    0.073000        1.0080           0   0.00000   0.00000
      9097 IM1      178      IM1      N2       ND2R5B   2.249300       13.6070           0   -0.840000   1.00000
      9098 IM1      178      IM1      DN2      DRUD    -2.249300        0.4000           0   0.00000   0.00000
      9099 IM1      178      IM1      H7       HDP1A    0.000000        1.0080           0   0.00000   0.00000
      9100 IM1      178      IM1      LPN21    LPD     -0.474000        0.0000           -1   0.00000   0.00000
      9101 IM1      179      IM1      C1       CD33G    2.390600       11.6110           0   -1.08100   1.00000
      9102 IM1      179      IM1      DC1      DRUD    -2.551600        0.4000           0   0.00000   0.00000
      9103 IM1      179      IM1      H1       HDA3A    0.094000        1.0080           0   0.00000   0.00000
      9104 IM1      179      IM1      H2       HDA3A    0.094000        1.0080           0   0.00000   0.00000
      9105 IM1      179      IM1      H3       HDA3A    0.094000        1.0080           0   0.00000   0.00000
      9106 IM1      179      IM1      N1       ND2R5A   2.670300       13.6070           0   -1.06300   1.30000
      9107 IM1      179      IM1      DN1      DRUD    -2.530300        0.4000           0   0.00000   0.00000
      9108 IM1      179      IM1      C2       CD2R5A   2.511900       11.6110           0   -1.37800   1.30000
      9109 IM1      179      IM1      DC2      DRUD    -2.880900        0.4000           0   0.00000   0.00000
      9110 IM1      179      IM1      H4       HDR5A    0.150000        1.0080           0   0.00000   0.00000
      9111 IM1      179      IM1      C3       CD2R5A   3.068900       11.6110           0   -1.37800   1.30000
      9112 IM1      179      IM1      DC3      DRUD    -2.880900        0.4000           0   0.00000   0.00000
      9113 IM1      179      IM1      H5       HDR5A    0.053000        1.0080           0   0.00000   0.00000
      9114 IM1      179      IM1      C4       CD2R5B   2.404400       11.6110           0   -0.868000   1.30000
      9115 IM1      179      IM1      DC4      DRUD    -2.286400        0.4000           0   0.00000   0.00000
      9116 IM1      179      IM1      H6       HDR5B    0.073000        1.0080           0   0.00000   0.00000
      9117 IM1      179      IM1      N2       ND2R5B   2.249300       13.6070           0   -0.840000   1.00000
      9118 IM1      179      IM1      DN2      DRUD    -2.249300        0.4000           0   0.00000   0.00000
      9119 IM1      179      IM1      H7       HDP1A    0.000000        1.0080           0   0.00000   0.00000
      9120 IM1      179      IM1      LPN21    LPD     -0.474000        0.0000           -1   0.00000   0.00000
      9121 IM1      180      IM1      C1       CD33G    2.390600       11.6110           0   -1.08100   1.00000
      9122 IM1      180      IM1      DC1      DRUD    -2.551600        0.4000           0   0.00000   0.00000
      9123 IM1      180      IM1      H1       HDA3A    0.094000        1.0080           0   0.00000   0.00000
      9124 IM1      180      IM1      H2       HDA3A    0.094000        1.0080           0   0.00000   0.00000
      9125 IM1      180      IM1      H3       HDA3A    0.094000        1.0080           0   0.00000   0.00000
      9126 IM1      180      IM1      N1       ND2R5A   2.670300       13.6070           0   -1.06300   1.30000
      9127 IM1      180      IM1      DN1      DRUD    -2.530300        0.4000           0   0.00000   0.00000
      9128 IM1      180      IM1      C2       CD2R5A   2.511900       11.6110           0   -1.37800   1.30000
      9129 IM1      180      IM1      DC2      DRUD    -2.880900        0.4000           0   0.00000   0.00000
      9130 IM1      180      IM1      H4       HDR5A    0.150000        1.0080           0   0.00000   0.00000
      9131 IM1      180      IM1      C3       CD2R5A   3.068900       11.6110           0   -1.37800   1.30000
      9132 IM1      180      IM1      DC3      DRUD    -2.880900        0.4000           0   0.00000   0.00000
      9133 IM1      180      IM1      H5       HDR5A    0.053000        1.0080           0   0.00000   0.00000
      9134 IM1      180      IM1      C4       CD2R5B   2.404400       11.6110           0   -0.868000   1.30000
      9135 IM1      180      IM1      DC4      DRUD    -2.286400        0.4000           0   0.00000   0.00000
      9136 IM1      180      IM1      H6       HDR5B    0.073000        1.0080           0   0.00000   0.00000
      9137 IM1      180      IM1      N2       ND2R5B   2.249300       13.6070           0   -0.840000   1.00000
      9138 IM1      180      IM1      DN2      DRUD    -2.249300        0.4000           0   0.00000   0.00000
      9139 IM1      180      IM1      H7       HDP1A    0.000000        1.0080           0   0.00000   0.00000
      9140 IM1      180      IM1      LPN21    LPD     -0.474000        0.0000           -1   0.00000   0.00000
      9141 IM1      181      IM1      C1       CD33G    2.390600       11.6110           0   -1.08100   1.00000
      9142 IM1      181      IM1      DC1      DRUD    -2.551600        0.4000           0   0.00000   0.00000
      9143 IM1      181      IM1      H1       HDA3A    0.094000        1.0080           0   0.00000   0.00000
      9144 IM1      181      IM1      H2       HDA3A    0.094000        1.0080           0   0.00000   0.00000
      9145 IM1      181      IM1      H3       HDA3A    0.094000        1.0080           0   0.00000   0.00000
      9146 IM1      181      IM1      N1       ND2R5A   2.670300       13.6070           0   -1.06300   1.30000
      9147 IM1      181      IM1      DN1      DRUD    -2.530300        0.4000           0   0.00000   0.00000
      9148 IM1      181      IM1      C2       CD2R5A   2.511900       11.6110           0   -1.37800   1.30000
      9149 IM1      181      IM1      DC2      DRUD    -2.880900        0.4000           0   0.00000   0.00000
      9150 IM1      181      IM1      H4       HDR5A    0.150000        1.0080           0   0.00000   0.00000
      9151 IM1      181      IM1      C3       CD2R5A   3.068900       11.6110           0   -1.37800   1.30000
      9152 IM1      181      IM1      DC3      DRUD    -2.880900        0.4000           0   0.00000   0.00000
      9153 IM1      181      IM1      H5       HDR5A    0.053000        1.0080           0   0.00000   0.00000
      9154 IM1      181      IM1      C4       CD2R5B   2.404400       11.6110           0   -0.868000   1.30000
      9155 IM1      181      IM1      DC4      DRUD    -2.286400        0.4000           0   0.00000   0.00000
      9156 IM1      181      IM1      H6       HDR5B    0.073000        1.0080           0   0.00000   0.00000
      9157 IM1      181      IM1      N2       ND2R5B   2.249300       13.6070           0   -0.840000   1.00000
      9158 IM1      181      IM1      DN2      DRUD    -2.249300        0.4000           0   0.00000   0.00000
      9159 IM1      181      IM1      H7       HDP1A    0.000000        1.0080           0   0.00000   0.00000
      9160 IM1      181      IM1      LPN21    LPD     -0.474000        0.0000           -1   0.00000   0.00000
      9161 IM1      182      IM1      C1       CD33G    2.390600       11.6110           0   -1.08100   1.00000
      9162 IM1      182      IM1      DC1      DRUD    -2.551600        0.4000           0   0.00000   0.00000
      9163 IM1      182      IM1      H1       HDA3A    0.094000        1.0080           0   0.00000   0.00000
      9164 IM1      182      IM1      H2       HDA3A    0.094000        1.0080           0   0.00000   0.00000
      9165 IM1      182      IM1      H3       HDA3A    0.094000        1.0080           0   0.00000   0.00000
      9166 IM1      182      IM1      N1       ND2R5A   2.670300       13.6070           0   -1.06300   1.30000
      9167 IM1      182      IM1      DN1      DRUD    -2.530300        0.4000           0   0.00000   0.00000
      9168 IM1      182      IM1      C2       CD2R5A   2.511900       11.6110           0   -1.37800   1.30000
      9169 IM1      182      IM1      DC2      DRUD    -2.880900        0.4000           0   0.00000   0.00000
      9170 IM1      182      IM1      H4       HDR5A    0.150000        1.0080           0   0.00000   0.00000
      9171 IM1      182      IM1      C3       CD2R5A   3.068900       11.6110           0   -1.37800   1.30000
      9172 IM1      182      IM1      DC3      DRUD    -2.880900        0.4000           0   0.00000   0.00000
      9173 IM1      182      IM1      H5       HDR5A    0.053000        1.0080           0   0.00000   0.00000
      9174 IM1      182      IM1      C4       CD2R5B   2.404400       11.6110           0   -0.868000   1.30000
      9175 IM1      182      IM1      DC4      DRUD    -2.286400        0.4000           0   0.00000   0.00000
      9176 IM1      182      IM1      H6       HDR5B    0.073000        1.0080           0   0.00000   0.00000
      9177 IM1      182      IM1      N2       ND2R5B   2.249300       13.6070           0   -0.840000   1.00000
      9178 IM1      182      IM1      DN2      DRUD    -2.249300        0.4000           0   0.00000   0.00000
      9179 IM1      182      IM1      H7       HDP1A    0.000000        1.0080           0   0.00000   0.00000
      9180 IM1      182      IM1      LPN21    LPD     -0.474000        0.0000           -1   0.00000   0.00000
      9181 IM1      183      IM1      C1       CD33G    2.390600       11.6110           0   -1.08100   1.00000
      9182 IM1      183      IM1      DC1      DRUD    -2.551600        0.4000           0   0.00000   0.00000
      9183 IM1      183      IM1      H1       HDA3A    0.094000        1.0080           0   0.00000   0.00000
      9184 IM1      183      IM1      H2       HDA3A    0.094000        1.0080           0   0.00000   0.00000
      9185 IM1      183      IM1      H3       HDA3A    0.094000        1.0080           0   0.00000   0.00000
      9186 IM1      183      IM1      N1       ND2R5A   2.670300       13.6070           0   -1.06300   1.30000
      9187 IM1      183      IM1      DN1      DRUD    -2.530300        0.4000           0   0.00000   0.00000
      9188 IM1      183      IM1      C2       CD2R5A   2.511900       11.6110           0   -1.37800   1.30000
      9189 IM1      183      IM1      DC2      DRUD    -2.880900        0.4000           0   0.00000   0.00000
      9190 IM1      183      IM1      H4       HDR5A    0.150000        1.0080           0   0.00000   0.00000
      9191 IM1      183      IM1      C3       CD2R5A   3.068900       11.6110           0   -1.37800   1.30000
      9192 IM1      183      IM1      DC3      DRUD    -2.880900        0.4000           0   0.00000   0.00000
      9193 IM1      183      IM1      H5       HDR5A    0.053000        1.0080           0   0.00000   0.00000
      9194 IM1      183      IM1      C4       CD2R5B   2.404400       11.6110           0   -0.868000   1.30000
      9195 IM1      183      IM1      DC4      DRUD    -2.286400        0.4000           0   0.00000   0.00000
      9196 IM1      183      IM1      H6       HDR5B    0.073000        1.0080           0   0.00000   0.00000
      9197 IM1      183      IM1      N2       ND2R5B   2.249300       13.6070           0   -0.840000   1.00000
      9198 IM1      183      IM1      DN2      DRUD    -2.249300        0.4000           0   0.00000   0.00000
      9199 IM1      183      IM1      H7       HDP1A    0.000000        1.0080           0   0.00000   0.00000
      9200 IM1      183      IM1      LPN21    LPD     -0.474000        0.0000           -1   0.00000   0.00000
      9201 IM1      184      IM1      C1       CD33G    2.390600       11.6110           0   -1.08100   1.00000
      9202 IM1      184      IM1      DC1      DRUD    -2.551600        0.4000           0   0.00000   0.00000
      9203 IM1      184      IM1      H1       HDA3A    0.094000        1.0080           0   0.00000   0.00000
      9204 IM1      184      IM1      H2       HDA3A    0.094000        1.0080           0   0.00000   0.00000
      9205 IM1      184      IM1      H3       HDA3A    0.094000        1.0080           0   0.00000   0.00000
      9206 IM1      184      IM1      N1       ND2R5A   2.670300       13.6070           0   -1.06300   1.30000
      9207 IM1      184      IM1      DN1      DRUD    -2.530300        0.4000           0   0.00000   0.00000
      9208 IM1      184      IM1      C2       CD2R5A   2.511900       11.6110           0   -1.37800   1.30000
      9209 IM1      184      IM1      DC2      DRUD    -2.880900        0.4000           0   0.00000   0.00000
      9210 IM1      184      IM1      H4       HDR5A    0.150000        1.0080           0   0.00000   0.00000
      9211 IM1      184      IM1      C3       CD2R5A   3.068900       11.6110           0   -1.37800   1.30000
      9212 IM1      184      IM1      DC3      DRUD    -2.880900        0.4000           0   0.00000   0.00000
      9213 IM1      184      IM1      H5       HDR5A    0.053000        1.0080           0   0.00000   0.00000
      9214 IM1      184      IM1      C4       CD2R5B   2.404400       11.6110           0   -0.868000   1.30000
      9215 IM1      184      IM1      DC4      DRUD    -2.286400        0.4000           0   0.00000   0.00000
      9216 IM1      184      IM1      H6       HDR5B    0.073000        1.0080           0   0.00000   0.00000
      9217 IM1      184      IM1      N2       ND2R5B   2.249300       13.6070           0   -0.840000   1.00000
      9218 IM1      184      IM1      DN2      DRUD    -2.249300        0.4000           0   0.00000   0.00000
      9219 IM1      184      IM1      H7       HDP1A    0.000000        1.0080           0   0.00000   0.00000
      9220 IM1      184      IM1      LPN21    LPD     -0.474000        0.0000           -1   0.00000   0.00000
      9221 IM1      185      IM1      C1       CD33G    2.390600       11.6110           0   -1.08100   1.00000
      9222 IM1      185      IM1      DC1      DRUD    -2.551600        0.4000           0   0.00000   0.00000
      9223 IM1      185      IM1      H1       HDA3A    0.094000        1.0080           0   0.00000   0.00000
      9224 IM1      185      IM1      H2       HDA3A    0.094000        1.0080           0   0.00000   0.00000
      9225 IM1      185      IM1      H3       HDA3A    0.094000        1.0080           0   0.00000   0.00000
      9226 IM1      185      IM1      N1       ND2R5A   2.670300       13.6070           0   -1.06300   1.30000
      9227 IM1      185      IM1      DN1      DRUD    -2.530300        0.4000           0   0.00000   0.00000
      9228 IM1      185      IM1      C2       CD2R5A   2.511900       11.6110           0   -1.37800   1.30000
      9229 IM1      185      IM1      DC2      DRUD    -2.880900        0.4000           0   0.00000   0.00000
      9230 IM1      185      IM1      H4       HDR5A    0.150000        1.0080           0   0.00000   0.00000
      9231 IM1      185      IM1      C3       CD2R5A   3.068900       11.6110           0   -1.37800   1.30000
      9232 IM1      185      IM1      DC3      DRUD    -2.880900        0.4000           0   0.00000   0.00000
      9233 IM1      185      IM1      H5       HDR5A    0.053000        1.0080           0   0.00000   0.00000
      9234 IM1      185      IM1      C4       CD2R5B   2.404400       11.6110           0   -0.868000   1.30000
      9235 IM1      185      IM1      DC4      DRUD    -2.286400        0.4000           0   0.00000   0.00000
      9236 IM1      185      IM1      H6       HDR5B    0.073000        1.0080           0   0.00000   0.00000
      9237 IM1      185      IM1      N2       ND2R5B   2.249300       13.6070           0   -0.840000   1.00000
      9238 IM1      185      IM1      DN2      DRUD    -2.249300        0.4000           0   0.00000   0.00000
      9239 IM1      185      IM1      H7       HDP1A    0.000000        1.0080           0   0.00000   0.00000
      9240 IM1      185      IM1      LPN21    LPD     -0.474000        0.0000           -1   0.00000   0.00000
      9241 IM1      186      IM1      C1       CD33G    2.390600       11.6110           0   -1.08100   1.00000
      9242 IM1      186      IM1      DC1      DRUD    -2.551600        0.4000           0   0.00000   0.00000
      9243 IM1      186      IM1      H1       HDA3A    0.094000        1.0080           0   0.00000   0.00000
      9244 IM1      186      IM1      H2       HDA3A    0.094000        1.0080           0   0.00000   0.00000
      9245 IM1      186      IM1      H3       HDA3A    0.094000        1.0080           0   0.00000   0.00000
      9246 IM1      186      IM1      N1       ND2R5A   2.670300       13.6070           0   -1.06300   1.30000
      9247 IM1      186      IM1      DN1      DRUD    -2.530300        0.4000           0   0.00000   0.00000
      9248 IM1      186      IM1      C2       CD2R5A   2.511900       11.6110           0   -1.37800   1.30000
      9249 IM1      186      IM1      DC2      DRUD    -2.880900        0.4000           0   0.00000   0.00000
      9250 IM1      186      IM1      H4       HDR5A    0.150000        1.0080           0   0.00000   0.00000
      9251 IM1      186      IM1      C3       CD2R5A   3.068900       11.6110           0   -1.37800   1.30000
      9252 IM1      186      IM1      DC3      DRUD    -2.880900        0.4000           0   0.00000   0.00000
      9253 IM1      186      IM1      H5       HDR5A    0.053000        1.0080           0   0.00000   0.00000
      9254 IM1      186      IM1      C4       CD2R5B   2.404400       11.6110           0   -0.868000   1.30000
      9255 IM1      186      IM1      DC4      DRUD    -2.286400        0.4000           0   0.00000   0.00000
      9256 IM1      186      IM1      H6       HDR5B    0.073000        1.0080           0   0.00000   0.00000
      9257 IM1      186      IM1      N2       ND2R5B   2.249300       13.6070           0   -0.840000   1.00000
      9258 IM1      186      IM1      DN2      DRUD    -2.249300        0.4000           0   0.00000   0.00000
      9259 IM1      186      IM1      H7       HDP1A    0.000000        1.0080           0   0.00000   0.00000
      9260 IM1      186      IM1      LPN21    LPD     -0.474000        0.0000           -1   0.00000   0.00000
      9261 IM1      187      IM1      C1       CD33G    2.390600       11.6110           0   -1.08100   1.00000
      9262 IM1      187      IM1      DC1      DRUD    -2.551600        0.4000           0   0.00000   0.00000
      9263 IM1      187      IM1      H1       HDA3A    0.094000        1.0080           0   0.00000   0.00000
      9264 IM1      187      IM1      H2       HDA3A    0.094000        1.0080           0   0.00000   0.00000
      9265 IM1      187      IM1      H3       HDA3A    0.094000        1.0080           0   0.00000   0.00000
      9266 IM1      187      IM1      N1       ND2R5A   2.670300       13.6070           0   -1.06300   1.30000
      9267 IM1      187      IM1      DN1      DRUD    -2.530300        0.4000           0   0.00000   0.00000
      9268 IM1      187      IM1      C2       CD2R5A   2.511900       11.6110           0   -1.37800   1.30000
      9269 IM1      187      IM1      DC2      DRUD    -2.880900        0.4000           0   0.00000   0.00000
      9270 IM1      187      IM1      H4       HDR5A    0.150000        1.0080           0   0.00000   0.00000
      9271 IM1      187      IM1      C3       CD2R5A   3.068900       11.6110           0   -1.37800   1.30000
      9272 IM1      187      IM1      DC3      DRUD    -2.880900        0.4000           0   0.00000   0.00000
      9273 IM1      187      IM1      H5       HDR5A    0.053000        1.0080           0   0.00000   0.00000
      9274 IM1      187      IM1      C4       CD2R5B   2.404400       11.6110           0   -0.868000   1.30000
      9275 IM1      187      IM1      DC4      DRUD    -2.286400        0.4000           0   0.00000   0.00000
      9276 IM1      187      IM1      H6       HDR5B    0.073000        1.0080           0   0.00000   0.00000
      9277 IM1      187      IM1      N2       ND2R5B   2.249300       13.6070           0   -0.840000   1.00000
      9278 IM1      187      IM1      DN2      DRUD    -2.249300        0.4000           0   0.00000   0.00000
      9279 IM1      187      IM1      H7       HDP1A    0.000000        1.0080           0   0.00000   0.00000
      9280 IM1      187      IM1      LPN21    LPD     -0.474000        0.0000           -1   0.00000   0.00000
      9281 IM1      188      IM1      C1       CD33G    2.390600       11.6110           0   -1.08100   1.00000
      9282 IM1      188      IM1      DC1      DRUD    -2.551600        0.4000           0   0.00000   0.00000
      9283 IM1      188      IM1      H1       HDA3A    0.094000        1.0080           0   0.00000   0.00000
      9284 IM1      188      IM1      H2       HDA3A    0.094000        1.0080           0   0.00000   0.00000
      9285 IM1      188      IM1      H3       HDA3A    0.094000        1.0080           0   0.00000   0.00000
      9286 IM1      188      IM1      N1       ND2R5A   2.670300       13.6070           0   -1.06300   1.30000
      9287 IM1      188      IM1      DN1      DRUD    -2.530300        0.4000           0   0.00000   0.00000
      9288 IM1      188      IM1      C2       CD2R5A   2.511900       11.6110           0   -1.37800   1.30000
      9289 IM1      188      IM1      DC2      DRUD    -2.880900        0.4000           0   0.00000   0.00000
      9290 IM1      188      IM1      H4       HDR5A    0.150000        1.0080           0   0.00000   0.00000
      9291 IM1      188      IM1      C3       CD2R5A   3.068900       11.6110           0   -1.37800   1.30000
      9292 IM1      188      IM1      DC3      DRUD    -2.880900        0.4000           0   0.00000   0.00000
      9293 IM1      188      IM1      H5       HDR5A    0.053000        1.0080           0   0.00000   0.00000
      9294 IM1      188      IM1      C4       CD2R5B   2.404400       11.6110           0   -0.868000   1.30000
      9295 IM1      188      IM1      DC4      DRUD    -2.286400        0.4000           0   0.00000   0.00000
      9296 IM1      188      IM1      H6       HDR5B    0.073000        1.0080           0   0.00000   0.00000
      9297 IM1      188      IM1      N2       ND2R5B   2.249300       13.6070           0   -0.840000   1.00000
      9298 IM1      188      IM1      DN2      DRUD    -2.249300        0.4000           0   0.00000   0.00000
      9299 IM1      188      IM1      H7       HDP1A    0.000000        1.0080           0   0.00000   0.00000
      9300 IM1      188      IM1      LPN21    LPD     -0.474000        0.0000           -1   0.00000   0.00000
      9301 IM1      189      IM1      C1       CD33G    2.390600       11.6110           0   -1.08100   1.00000
      9302 IM1      189      IM1      DC1      DRUD    -2.551600        0.4000           0   0.00000   0.00000
      9303 IM1      189      IM1      H1       HDA3A    0.094000        1.0080           0   0.00000   0.00000
      9304 IM1      189      IM1      H2       HDA3A    0.094000        1.0080           0   0.00000   0.00000
      9305 IM1      189      IM1      H3       HDA3A    0.094000        1.0080           0   0.00000   0.00000
      9306 IM1      189      IM1      N1       ND2R5A   2.670300       13.6070           0   -1.06300   1.30000
      9307 IM1      189      IM1      DN1      DRUD    -2.530300        0.4000           0   0.00000   0.00000
      9308 IM1      189      IM1      C2       CD2R5A   2.511900       11.6110           0   -1.37800   1.30000
      9309 IM1      189      IM1      DC2      DRUD    -2.880900        0.4000           0   0.00000   0.00000
      9310 IM1      189      IM1      H4       HDR5A    0.150000        1.0080           0   0.00000   0.00000
      9311 IM1      189      IM1      C3       CD2R5A   3.068900       11.6110           0   -1.37800   1.30000
      9312 IM1      189      IM1      DC3      DRUD    -2.880900        0.4000           0   0.00000   0.00000
      9313 IM1      189      IM1      H5       HDR5A    0.053000        1.0080           0   0.00000   0.00000
      9314 IM1      189      IM1      C4       CD2R5B   2.404400       11.6110           0   -0.868000   1.30000
      9315 IM1      189      IM1      DC4      DRUD    -2.286400        0.4000           0   0.00000   0.00000
      9316 IM1      189      IM1      H6       HDR5B    0.073000        1.0080           0   0.00000   0.00000
      9317 IM1      189      IM1      N2       ND2R5B   2.249300       13.6070           0   -0.840000   1.00000
      9318 IM1      189      IM1      DN2      DRUD    -2.249300        0.4000           0   0.00000   0.00000
      9319 IM1      189      IM1      H7       HDP1A    0.000000        1.0080           0   0.00000   0.00000
      9320 IM1      189      IM1      LPN21    LPD     -0.474000        0.0000           -1   0.00000   0.00000
      9321 IM1      190      IM1      C1       CD33G    2.390600       11.6110           0   -1.08100   1.00000
      9322 IM1      190      IM1      DC1      DRUD    -2.551600        0.4000           0   0.00000   0.00000
      9323 IM1      190      IM1      H1       HDA3A    0.094000        1.0080           0   0.00000   0.00000
      9324 IM1      190      IM1      H2       HDA3A    0.094000        1.0080           0   0.00000   0.00000
      9325 IM1      190      IM1      H3       HDA3A    0.094000        1.0080           0   0.00000   0.00000
      9326 IM1      190      IM1      N1       ND2R5A   2.670300       13.6070           0   -1.06300   1.30000
      9327 IM1      190      IM1      DN1      DRUD    -2.530300        0.4000           0   0.00000   0.00000
      9328 IM1      190      IM1      C2       CD2R5A   2.511900       11.6110           0   -1.37800   1.30000
      9329 IM1      190      IM1      DC2      DRUD    -2.880900        0.4000           0   0.00000   0.00000
      9330 IM1      190      IM1      H4       HDR5A    0.150000        1.0080           0   0.00000   0.00000
      9331 IM1      190      IM1      C3       CD2R5A   3.068900       11.6110           0   -1.37800   1.30000
      9332 IM1      190      IM1      DC3      DRUD    -2.880900        0.4000           0   0.00000   0.00000
      9333 IM1      190      IM1      H5       HDR5A    0.053000        1.0080           0   0.00000   0.00000
      9334 IM1      190      IM1      C4       CD2R5B   2.404400       11.6110           0   -0.868000   1.30000
      9335 IM1      190      IM1      DC4      DRUD    -2.286400        0.4000           0   0.00000   0.00000
      9336 IM1      190      IM1      H6       HDR5B    0.073000        1.0080           0   0.00000   0.00000
      9337 IM1      190      IM1      N2       ND2R5B   2.249300       13.6070           0   -0.840000   1.00000
      9338 IM1      190      IM1      DN2      DRUD    -2.249300        0.4000           0   0.00000   0.00000
      9339 IM1      190      IM1      H7       HDP1A    0.000000        1.0080           0   0.00000   0.00000
      9340 IM1      190      IM1      LPN21    LPD     -0.474000        0.0000           -1   0.00000   0.00000
      9341 IM1      191      IM1      C1       CD33G    2.390600       11.6110           0   -1.08100   1.00000
      9342 IM1      191      IM1      DC1      DRUD    -2.551600        0.4000           0   0.00000   0.00000
      9343 IM1      191      IM1      H1       HDA3A    0.094000        1.0080           0   0.00000   0.00000
      9344 IM1      191      IM1      H2       HDA3A    0.094000        1.0080           0   0.00000   0.00000
      9345 IM1      191      IM1      H3       HDA3A    0.094000        1.0080           0   0.00000   0.00000
      9346 IM1      191      IM1      N1       ND2R5A   2.670300       13.6070           0   -1.06300   1.30000
      9347 IM1      191      IM1      DN1      DRUD    -2.530300        0.4000           0   0.00000   0.00000
      9348 IM1      191      IM1      C2       CD2R5A   2.511900       11.6110           0   -1.37800   1.30000
      9349 IM1      191      IM1      DC2      DRUD    -2.880900        0.4000           0   0.00000   0.00000
      9350 IM1      191      IM1      H4       HDR5A    0.150000        1.0080           0   0.00000   0.00000
      9351 IM1      191      IM1      C3       CD2R5A   3.068900       11.6110           0   -1.37800   1.30000
      9352 IM1      191      IM1      DC3      DRUD    -2.880900        0.4000           0   0.00000   0.00000
      9353 IM1      191      IM1      H5       HDR5A    0.053000        1.0080           0   0.00000   0.00000
      9354 IM1      191      IM1      C4       CD2R5B   2.404400       11.6110           0   -0.868000   1.30000
      9355 IM1      191      IM1      DC4      DRUD    -2.286400        0.4000           0   0.00000   0.00000
      9356 IM1      191      IM1      H6       HDR5B    0.073000        1.0080           0   0.00000   0.00000
      9357 IM1      191      IM1      N2       ND2R5B   2.249300       13.6070           0   -0.840000   1.00000
      9358 IM1      191      IM1      DN2      DRUD    -2.249300        0.4000           0   0.00000   0.00000
      9359 IM1      191      IM1      H7       HDP1A    0.000000        1.0080           0   0.00000   0.00000
      9360 IM1      191      IM1      LPN21    LPD     -0.474000        0.0000           -1   0.00000   0.00000
      9361 IM1      192      IM1      C1       CD33G    2.390600       11.6110           0   -1.08100   1.00000
      9362 IM1      192      IM1      DC1      DRUD    -2.551600        0.4000           0   0.00000   0.00000
      9363 IM1      192      IM1      H1       HDA3A    0.094000        1.0080           0   0.00000   0.00000
      9364 IM1      192      IM1      H2       HDA3A    0.094000        1.0080           0   0.00000   0.00000
      9365 IM1      192      IM1      H3       HDA3A    0.094000        1.0080           0   0.00000   0.00000
      9366 IM1      192      IM1      N1       ND2R5A   2.670300       13.6070           0   -1.06300   1.30000
      9367 IM1      192      IM1      DN1      DRUD    -2.530300        0.4000           0   0.00000   0.00000
      9368 IM1      192      IM1      C2       CD2R5A   2.511900       11.6110           0   -1.37800   1.30000
      9369 IM1      192      IM1      DC2      DRUD    -2.880900        0.4000           0   0.00000   0.00000
      9370 IM1      192      IM1      H4       HDR5A    0.150000        1.0080           0   0.00000   0.00000
      9371 IM1      192      IM1      C3       CD2R5A   3.068900       11.6110           0   -1.37800   1.30000
      9372 IM1      192      IM1      DC3      DRUD    -2.880900        0.4000           0   0.00000   0.00000
      9373 IM1      192      IM1      H5       HDR5A    0.053000        1.0080           0   0.00000   0.00000
      9374 IM1      192      IM1      C4       CD2R5B   2.404400       11.6110           0   -0.868000   1.30000
      9375 IM1      192      IM1      DC4      DRUD    -2.286400        0.4000           0   0.00000   0.00000
      9376 IM1      192      IM1      H6       HDR5B    0.073000        1.0080           0   0.00000   0.00000
      9377 IM1      192      IM1      N2       ND2R5B   2.249300       13.6070           0   -0.840000   1.00000
      9378 IM1      192      IM1      DN2      DRUD    -2.249300        0.4000           0   0.00000   0.00000
      9379 IM1      192      IM1      H7       HDP1A    0.000000        1.0080           0   0.00000   0.00000
      9380 IM1      192      IM1      LPN21    LPD     -0.474000        0.0000           -1   0.00000   0.00000
      9381 IM1      193      IM1      C1       CD33G    2.390600       11.6110           0   -1.08100   1.00000
      9382 IM1      193      IM1      DC1      DRUD    -2.551600        0.4000           0   0.00000   0.00000
      9383 IM1      193      IM1      H1       HDA3A    0.094000        1.0080           0   0.00000   0.00000
      9384 IM1      193      IM1      H2       HDA3A    0.094000        1.0080           0   0.00000   0.00000
      9385 IM1      193      IM1      H3       HDA3A    0.094000        1.0080           0   0.00000   0.00000
      9386 IM1      193      IM1      N1       ND2R5A   2.670300       13.6070           0   -1.06300   1.30000
      9387 IM1      193      IM1      DN1      DRUD    -2.530300        0.4000           0   0.00000   0.00000
      9388 IM1      193      IM1      C2       CD2R5A   2.511900       11.6110           0   -1.37800   1.30000
      9389 IM1      193      IM1      DC2      DRUD    -2.880900        0.4000           0   0.00000   0.00000
      9390 IM1      193      IM1      H4       HDR5A    0.150000        1.0080           0   0.00000   0.00000
      9391 IM1      193      IM1      C3       CD2R5A   3.068900       11.6110           0   -1.37800   1.30000
      9392 IM1      193      IM1      DC3      DRUD    -2.880900        0.4000           0   0.00000   0.00000
      9393 IM1      193      IM1      H5       HDR5A    0.053000        1.0080           0   0.00000   0.00000
      9394 IM1      193      IM1      C4       CD2R5B   2.404400       11.6110           0   -0.868000   1.30000
      9395 IM1      193      IM1      DC4      DRUD    -2.286400        0.4000           0   0.00000   0.00000
      9396 IM1      193      IM1      H6       HDR5B    0.073000        1.0080           0   0.00000   0.00000
      9397 IM1      193      IM1      N2       ND2R5B   2.249300       13.6070           0   -0.840000   1.00000
      9398 IM1      193      IM1      DN2      DRUD    -2.249300        0.4000           0   0.00000   0.00000
      9399 IM1      193      IM1      H7       HDP1A    0.000000        1.0080           0   0.00000   0.00000
      9400 IM1      193      IM1      LPN21    LPD     -0.474000        0.0000           -1   0.00000   0.00000
      9401 IM1      194      IM1      C1       CD33G    2.390600       11.6110           0   -1.08100   1.00000
      9402 IM1      194      IM1      DC1      DRUD    -2.551600        0.4000           0   0.00000   0.00000
      9403 IM1      194      IM1      H1       HDA3A    0.094000        1.0080           0   0.00000   0.00000
      9404 IM1      194      IM1      H2       HDA3A    0.094000        1.0080           0   0.00000   0.00000
      9405 IM1      194      IM1      H3       HDA3A    0.094000        1.0080           0   0.00000   0.00000
      9406 IM1      194      IM1      N1       ND2R5A   2.670300       13.6070           0   -1.06300   1.30000
      9407 IM1      194      IM1      DN1      DRUD    -2.530300        0.4000           0   0.00000   0.00000
      9408 IM1      194      IM1      C2       CD2R5A   2.511900       11.6110           0   -1.37800   1.30000
      9409 IM1      194      IM1      DC2      DRUD    -2.880900        0.4000           0   0.00000   0.00000
      9410 IM1      194      IM1      H4       HDR5A    0.150000        1.0080           0   0.00000   0.00000
      9411 IM1      194      IM1      C3       CD2R5A   3.068900       11.6110           0   -1.37800   1.30000
      9412 IM1      194      IM1      DC3      DRUD    -2.880900        0.4000           0   0.00000   0.00000
      9413 IM1      194      IM1      H5       HDR5A    0.053000        1.0080           0   0.00000   0.00000
      9414 IM1      194      IM1      C4       CD2R5B   2.404400       11.6110           0   -0.868000   1.30000
      9415 IM1      194      IM1      DC4      DRUD    -2.286400        0.4000           0   0.00000   0.00000
      9416 IM1      194      IM1      H6       HDR5B    0.073000        1.0080           0   0.00000   0.00000
      9417 IM1      194      IM1      N2       ND2R5B   2.249300       13.6070           0   -0.840000   1.00000
      9418 IM1      194      IM1      DN2      DRUD    -2.249300        0.4000           0   0.00000   0.00000
      9419 IM1      194      IM1      H7       HDP1A    0.000000        1.0080           0   0.00000   0.00000
      9420 IM1      194      IM1      LPN21    LPD     -0.474000        0.0000           -1   0.00000   0.00000
      9421 IM1      195      IM1      C1       CD33G    2.390600       11.6110           0   -1.08100   1.00000
      9422 IM1      195      IM1      DC1      DRUD    -2.551600        0.4000           0   0.00000   0.00000
      9423 IM1      195      IM1      H1       HDA3A    0.094000        1.0080           0   0.00000   0.00000
      9424 IM1      195      IM1      H2       HDA3A    0.094000        1.0080           0   0.00000   0.00000
      9425 IM1      195      IM1      H3       HDA3A    0.094000        1.0080           0   0.00000   0.00000
      9426 IM1      195      IM1      N1       ND2R5A   2.670300       13.6070           0   -1.06300   1.30000
      9427 IM1      195      IM1      DN1      DRUD    -2.530300        0.4000           0   0.00000   0.00000
      9428 IM1      195      IM1      C2       CD2R5A   2.511900       11.6110           0   -1.37800   1.30000
      9429 IM1      195      IM1      DC2      DRUD    -2.880900        0.4000           0   0.00000   0.00000
      9430 IM1      195      IM1      H4       HDR5A    0.150000        1.0080           0   0.00000   0.00000
      9431 IM1      195      IM1      C3       CD2R5A   3.068900       11.6110           0   -1.37800   1.30000
      9432 IM1      195      IM1      DC3      DRUD    -2.880900        0.4000           0   0.00000   0.00000
      9433 IM1      195      IM1      H5       HDR5A    0.053000        1.0080           0   0.00000   0.00000
      9434 IM1      195      IM1      C4       CD2R5B   2.404400       11.6110           0   -0.868000   1.30000
      9435 IM1      195      IM1      DC4      DRUD    -2.286400        0.4000           0   0.00000   0.00000
      9436 IM1      195      IM1      H6       HDR5B    0.073000        1.0080           0   0.00000   0.00000
      9437 IM1      195      IM1      N2       ND2R5B   2.249300       13.6070           0   -0.840000   1.00000
      9438 IM1      195      IM1      DN2      DRUD    -2.249300        0.4000           0   0.00000   0.00000
      9439 IM1      195      IM1      H7       HDP1A    0.000000        1.0080           0   0.00000   0.00000
      9440 IM1      195      IM1      LPN21    LPD     -0.474000        0.0000           -1   0.00000   0.00000
      9441 IM1      196      IM1      C1       CD33G    2.390600       11.6110           0   -1.08100   1.00000
      9442 IM1      196      IM1      DC1      DRUD    -2.551600        0.4000           0   0.00000   0.00000
      9443 IM1      196      IM1      H1       HDA3A    0.094000        1.0080           0   0.00000   0.00000
      9444 IM1      196      IM1      H2       HDA3A    0.094000        1.0080           0   0.00000   0.00000
      9445 IM1      196      IM1      H3       HDA3A    0.094000        1.0080           0   0.00000   0.00000
      9446 IM1      196      IM1      N1       ND2R5A   2.670300       13.6070           0   -1.06300   1.30000
      9447 IM1      196      IM1      DN1      DRUD    -2.530300        0.4000           0   0.00000   0.00000
      9448 IM1      196      IM1      C2       CD2R5A   2.511900       11.6110           0   -1.37800   1.30000
      9449 IM1      196      IM1      DC2      DRUD    -2.880900        0.4000           0   0.00000   0.00000
      9450 IM1      196      IM1      H4       HDR5A    0.150000        1.0080           0   0.00000   0.00000
      9451 IM1      196      IM1      C3       CD2R5A   3.068900       11.6110           0   -1.37800   1.30000
      9452 IM1      196      IM1      DC3      DRUD    -2.880900        0.4000           0   0.00000   0.00000
      9453 IM1      196      IM1      H5       HDR5A    0.053000        1.0080           0   0.00000   0.00000
      9454 IM1      196      IM1      C4       CD2R5B   2.404400       11.6110           0   -0.868000   1.30000
      9455 IM1      196      IM1      DC4      DRUD    -2.286400        0.4000           0   0.00000   0.00000
      9456 IM1      196      IM1      H6       HDR5B    0.073000        1.0080           0   0.00000   0.00000
      9457 IM1      196      IM1      N2       ND2R5B   2.249300       13.6070           0   -0.840000   1.00000
      9458 IM1      196      IM1      DN2      DRUD    -2.249300        0.4000           0   0.00000   0.00000
      9459 IM1      196      IM1      H7       HDP1A    0.000000        1.0080           0   0.00000   0.00000
      9460 IM1      196      IM1      LPN21    LPD     -0.474000        0.0000           -1   0.00000   0.00000
      9461 IM1      197      IM1      C1       CD33G    2.390600       11.6110           0   -1.08100   1.00000
      9462 IM1      197      IM1      DC1      DRUD    -2.551600        0.4000           0   0.00000   0.00000
      9463 IM1      197      IM1      H1       HDA3A    0.094000        1.0080           0   0.00000   0.00000
      9464 IM1      197      IM1      H2       HDA3A    0.094000        1.0080           0   0.00000   0.00000
      9465 IM1      197      IM1      H3       HDA3A    0.094000        1.0080           0   0.00000   0.00000
      9466 IM1      197      IM1      N1       ND2R5A   2.670300       13.6070           0   -1.06300   1.30000
      9467 IM1      197      IM1      DN1      DRUD    -2.530300        0.4000           0   0.00000   0.00000
      9468 IM1      197      IM1      C2       CD2R5A   2.511900       11.6110           0   -1.37800   1.30000
      9469 IM1      197      IM1      DC2      DRUD    -2.880900        0.4000           0   0.00000   0.00000
      9470 IM1      197      IM1      H4       HDR5A    0.150000        1.0080           0   0.00000   0.00000
      9471 IM1      197      IM1      C3       CD2R5A   3.068900       11.6110           0   -1.37800   1.30000
      9472 IM1      197      IM1      DC3      DRUD    -2.880900        0.4000           0   0.00000   0.00000
      9473 IM1      197      IM1      H5       HDR5A    0.053000        1.0080           0   0.00000   0.00000
      9474 IM1      197      IM1      C4       CD2R5B   2.404400       11.6110           0   -0.868000   1.30000
      9475 IM1      197      IM1      DC4      DRUD    -2.286400        0.4000           0   0.00000   0.00000
      9476 IM1      197      IM1      H6       HDR5B    0.073000        1.0080           0   0.00000   0.00000
      9477 IM1      197      IM1      N2       ND2R5B   2.249300       13.6070           0   -0.840000   1.00000
      9478 IM1      197      IM1      DN2      DRUD    -2.249300        0.4000           0   0.00000   0.00000
      9479 IM1      197      IM1      H7       HDP1A    0.000000        1.0080           0   0.00000   0.00000
      9480 IM1      197      IM1      LPN21    LPD     -0.474000        0.0000           -1   0.00000   0.00000
      9481 IM1      198      IM1      C1       CD33G    2.390600       11.6110           0   -1.08100   1.00000
      9482 IM1      198      IM1      DC1      DRUD    -2.551600        0.4000           0   0.00000   0.00000
      9483 IM1      198      IM1      H1       HDA3A    0.094000        1.0080           0   0.00000   0.00000
      9484 IM1      198      IM1      H2       HDA3A    0.094000        1.0080           0   0.00000   0.00000
      9485 IM1      198      IM1      H3       HDA3A    0.094000        1.0080           0   0.00000   0.00000
      9486 IM1      198      IM1      N1       ND2R5A   2.670300       13.6070           0   -1.06300   1.30000
      9487 IM1      198      IM1      DN1      DRUD    -2.530300        0.4000           0   0.00000   0.00000
      9488 IM1      198      IM1      C2       CD2R5A   2.511900       11.6110           0   -1.37800   1.30000
      9489 IM1      198      IM1      DC2      DRUD    -2.880900        0.4000           0   0.00000   0.00000
      9490 IM1      198      IM1      H4       HDR5A    0.150000        1.0080           0   0.00000   0.00000
      9491 IM1      198      IM1      C3       CD2R5A   3.068900       11.6110           0   -1.37800   1.30000
      9492 IM1      198      IM1      DC3      DRUD    -2.880900        0.4000           0   0.00000   0.00000
      9493 IM1      198      IM1      H5       HDR5A    0.053000        1.0080           0   0.00000   0.00000
      9494 IM1      198      IM1      C4       CD2R5B   2.404400       11.6110           0   -0.868000   1.30000
      9495 IM1      198      IM1      DC4      DRUD    -2.286400        0.4000           0   0.00000   0.00000
      9496 IM1      198      IM1      H6       HDR5B    0.073000        1.0080           0   0.00000   0.00000
      9497 IM1      198      IM1      N2       ND2R5B   2.249300       13.6070           0   -0.840000   1.00000
      9498 IM1      198      IM1      DN2      DRUD    -2.249300        0.4000           0   0.00000   0.00000
      9499 IM1      198      IM1      H7       HDP1A    0.000000        1.0080           0   0.00000   0.00000
      9500 IM1      198      IM1      LPN21    LPD     -0.474000        0.0000           -1   0.00000   0.00000
      9501 IM1      199      IM1      C1       CD33G    2.390600       11.6110           0   -1.08100   1.00000
      9502 IM1      199      IM1      DC1      DRUD    -2.551600        0.4000           0   0.00000   0.00000
      9503 IM1      199      IM1      H1       HDA3A    0.094000        1.0080           0   0.00000   0.00000
      9504 IM1      199      IM1      H2       HDA3A    0.094000        1.0080           0   0.00000   0.00000
      9505 IM1      199      IM1      H3       HDA3A    0.094000        1.0080           0   0.00000   0.00000
      9506 IM1      199      IM1      N1       ND2R5A   2.670300       13.6070           0   -1.06300   1.30000
      9507 IM1      199      IM1      DN1      DRUD    -2.530300        0.4000           0   0.00000   0.00000
      9508 IM1      199      IM1      C2       CD2R5A   2.511900       11.6110           0   -1.37800   1.30000
      9509 IM1      199      IM1      DC2      DRUD    -2.880900        0.4000           0   0.00000   0.00000
      9510 IM1      199      IM1      H4       HDR5A    0.150000        1.0080           0   0.00000   0.00000
      9511 IM1      199      IM1      C3       CD2R5A   3.068900       11.6110           0   -1.37800   1.30000
      9512 IM1      199      IM1      DC3      DRUD    -2.880900        0.4000           0   0.00000   0.00000
      9513 IM1      199      IM1      H5       HDR5A    0.053000        1.0080           0   0.00000   0.00000
      9514 IM1      199      IM1      C4       CD2R5B   2.404400       11.6110           0   -0.868000   1.30000
      9515 IM1      199      IM1      DC4      DRUD    -2.286400        0.4000           0   0.00000   0.00000
      9516 IM1      199      IM1      H6       HDR5B    0.073000        1.0080           0   0.00000   0.00000
      9517 IM1      199      IM1      N2       ND2R5B   2.249300       13.6070           0   -0.840000   1.00000
      9518 IM1      199      IM1      DN2      DRUD    -2.249300        0.4000           0   0.00000   0.00000
      9519 IM1      199      IM1      H7       HDP1A    0.000000        1.0080           0   0.00000   0.00000
      9520 IM1      199      IM1      LPN21    LPD     -0.474000        0.0000           -1   0.00000   0.00000
      9521 IM1      200      IM1      C1       CD33G    2.390600       11.6110           0   -1.08100   1.00000
      9522 IM1      200      IM1      DC1      DRUD    -2.551600        0.4000           0   0.00000   0.00000
      9523 IM1      200      IM1      H1       HDA3A    0.094000        1.0080           0   0.00000   0.00000
      9524 IM1      200      IM1      H2       HDA3A    0.094000        1.0080           0   0.00000   0.00000
      9525 IM1      200      IM1      H3       HDA3A    0.094000        1.0080           0   0.00000   0.00000
      9526 IM1      200      IM1      N1       ND2R5A   2.670300       13.6070           0   -1.06300   1.30000
      9527 IM1      200      IM1      DN1      DRUD    -2.530300        0.4000           0   0.00000   0.00000
      9528 IM1      200      IM1      C2       CD2R5A   2.511900       11.6110           0   -1.37800   1.30000
      9529 IM1      200      IM1      DC2      DRUD    -2.880900        0.4000           0   0.00000   0.00000
      9530 IM1      200      IM1      H4       HDR5A    0.150000        1.0080           0   0.00000   0.00000
      9531 IM1      200      IM1      C3       CD2R5A   3.068900       11.6110           0   -1.37800   1.30000
      9532 IM1      200      IM1      DC3      DRUD    -2.880900        0.4000           0   0.00000   0.00000
      9533 IM1      200      IM1      H5       HDR5A    0.053000        1.0080           0   0.00000   0.00000
      9534 IM1      200      IM1      C4       CD2R5B   2.404400       11.6110           0   -0.868000   1.30000
      9535 IM1      200      IM1      DC4      DRUD    -2.286400        0.4000           0   0.00000   0.00000
      9536 IM1      200      IM1      H6       HDR5B    0.073000        1.0080           0   0.00000   0.00000
      9537 IM1      200      IM1      N2       ND2R5B   2.249300       13.6070           0   -0.840000   1.00000
      9538 IM1      200      IM1      DN2      DRUD    -2.249300        0.4000           0   0.00000   0.00000
      9539 IM1      200      IM1      H7       HDP1A    0.000000        1.0080           0   0.00000   0.00000
      9540 IM1      200      IM1      LPN21    LPD     -0.474000        0.0000           -1   0.00000   0.00000
      9541 IM1      201      IM1      C1       CD33G    2.390600       11.6110           0   -1.08100   1.00000
      9542 IM1      201      IM1      DC1      DRUD    -2.551600        0.4000           0   0.00000   0.00000
      9543 IM1      201      IM1      H1       HDA3A    0.094000        1.0080           0   0.00000   0.00000
      9544 IM1      201      IM1      H2       HDA3A    0.094000        1.0080           0   0.00000   0.00000
      9545 IM1      201      IM1      H3       HDA3A    0.094000        1.0080           0   0.00000   0.00000
      9546 IM1      201      IM1      N1       ND2R5A   2.670300       13.6070           0   -1.06300   1.30000
      9547 IM1      201      IM1      DN1      DRUD    -2.530300        0.4000           0   0.00000   0.00000
      9548 IM1      201      IM1      C2       CD2R5A   2.511900       11.6110           0   -1.37800   1.30000
      9549 IM1      201      IM1      DC2      DRUD    -2.880900        0.4000           0   0.00000   0.00000
      9550 IM1      201      IM1      H4       HDR5A    0.150000        1.0080           0   0.00000   0.00000
      9551 IM1      201      IM1      C3       CD2R5A   3.068900       11.6110           0   -1.37800   1.30000
      9552 IM1      201      IM1      DC3      DRUD    -2.880900        0.4000           0   0.00000   0.00000
      9553 IM1      201      IM1      H5       HDR5A    0.053000        1.0080           0   0.00000   0.00000
      9554 IM1      201      IM1      C4       CD2R5B   2.404400       11.6110           0   -0.868000   1.30000
      9555 IM1      201      IM1      DC4      DRUD    -2.286400        0.4000           0   0.00000   0.00000
      9556 IM1      201      IM1      H6       HDR5B    0.073000        1.0080           0   0.00000   0.00000
      9557 IM1      201      IM1      N2       ND2R5B   2.249300       13.6070           0   -0.840000   1.00000
      9558 IM1      201      IM1      DN2      DRUD    -2.249300        0.4000           0   0.00000   0.00000
      9559 IM1      201      IM1      H7       HDP1A    0.000000        1.0080           0   0.00000   0.00000
      9560 IM1      201      IM1      LPN21    LPD     -0.474000        0.0000           -1   0.00000   0.00000
      9561 IM1      202      IM1      C1       CD33G    2.390600       11.6110           0   -1.08100   1.00000
      9562 IM1      202      IM1      DC1      DRUD    -2.551600        0.4000           0   0.00000   0.00000
      9563 IM1      202      IM1      H1       HDA3A    0.094000        1.0080           0   0.00000   0.00000
      9564 IM1      202      IM1      H2       HDA3A    0.094000        1.0080           0   0.00000   0.00000
      9565 IM1      202      IM1      H3       HDA3A    0.094000        1.0080           0   0.00000   0.00000
      9566 IM1      202      IM1      N1       ND2R5A   2.670300       13.6070           0   -1.06300   1.30000
      9567 IM1      202      IM1      DN1      DRUD    -2.530300        0.4000           0   0.00000   0.00000
      9568 IM1      202      IM1      C2       CD2R5A   2.511900       11.6110           0   -1.37800   1.30000
      9569 IM1      202      IM1      DC2      DRUD    -2.880900        0.4000           0   0.00000   0.00000
      9570 IM1      202      IM1      H4       HDR5A    0.150000        1.0080           0   0.00000   0.00000
      9571 IM1      202      IM1      C3       CD2R5A   3.068900       11.6110           0   -1.37800   1.30000
      9572 IM1      202      IM1      DC3      DRUD    -2.880900        0.4000           0   0.00000   0.00000
      9573 IM1      202      IM1      H5       HDR5A    0.053000        1.0080           0   0.00000   0.00000
      9574 IM1      202      IM1      C4       CD2R5B   2.404400       11.6110           0   -0.868000   1.30000
      9575 IM1      202      IM1      DC4      DRUD    -2.286400        0.4000           0   0.00000   0.00000
      9576 IM1      202      IM1      H6       HDR5B    0.073000        1.0080           0   0.00000   0.00000
      9577 IM1      202      IM1      N2       ND2R5B   2.249300       13.6070           0   -0.840000   1.00000
      9578 IM1      202      IM1      DN2      DRUD    -2.249300        0.4000           0   0.00000   0.00000
      9579 IM1      202      IM1      H7       HDP1A    0.000000        1.0080           0   0.00000   0.00000
      9580 IM1      202      IM1      LPN21    LPD     -0.474000        0.0000           -1   0.00000   0.00000
      9581 IM1      203      IM1      C1       CD33G    2.390600       11.6110           0   -1.08100   1.00000
      9582 IM1      203      IM1      DC1      DRUD    -2.551600        0.4000           0   0.00000   0.00000
      9583 IM1      203      IM1      H1       HDA3A    0.094000        1.0080           0   0.00000   0.00000
      9584 IM1      203      IM1      H2       HDA3A    0.094000        1.0080           0   0.00000   0.00000
      9585 IM1      203      IM1      H3       HDA3A    0.094000        1.0080           0   0.00000   0.00000
      9586 IM1      203      IM1      N1       ND2R5A   2.670300       13.6070           0   -1.06300   1.30000
      9587 IM1      203      IM1      DN1      DRUD    -2.530300        0.4000           0   0.00000   0.00000
      9588 IM1      203      IM1      C2       CD2R5A   2.511900       11.6110           0   -1.37800   1.30000
      9589 IM1      203      IM1      DC2      DRUD    -2.880900        0.4000           0   0.00000   0.00000
      9590 IM1      203      IM1      H4       HDR5A    0.150000        1.0080           0   0.00000   0.00000
      9591 IM1      203      IM1      C3       CD2R5A   3.068900       11.6110           0   -1.37800   1.30000
      9592 IM1      203      IM1      DC3      DRUD    -2.880900        0.4000           0   0.00000   0.00000
      9593 IM1      203      IM1      H5       HDR5A    0.053000        1.0080           0   0.00000   0.00000
      9594 IM1      203      IM1      C4       CD2R5B   2.404400       11.6110           0   -0.868000   1.30000
      9595 IM1      203      IM1      DC4      DRUD    -2.286400        0.4000           0   0.00000   0.00000
      9596 IM1      203      IM1      H6       HDR5B    0.073000        1.0080           0   0.00000   0.00000
      9597 IM1      203      IM1      N2       ND2R5B   2.249300       13.6070           0   -0.840000   1.00000
      9598 IM1      203      IM1      DN2      DRUD    -2.249300        0.4000           0   0.00000   0.00000
      9599 IM1      203      IM1      H7       HDP1A    0.000000        1.0080           0   0.00000   0.00000
      9600 IM1      203      IM1      LPN21    LPD     -0.474000        0.0000           -1   0.00000   0.00000
      9601 IM1      204      IM1      C1       CD33G    2.390600       11.6110           0   -1.08100   1.00000
      9602 IM1      204      IM1      DC1      DRUD    -2.551600        0.4000           0   0.00000   0.00000
      9603 IM1      204      IM1      H1       HDA3A    0.094000        1.0080           0   0.00000   0.00000
      9604 IM1      204      IM1      H2       HDA3A    0.094000        1.0080           0   0.00000   0.00000
      9605 IM1      204      IM1      H3       HDA3A    0.094000        1.0080           0   0.00000   0.00000
      9606 IM1      204      IM1      N1       ND2R5A   2.670300       13.6070           0   -1.06300   1.30000
      9607 IM1      204      IM1      DN1      DRUD    -2.530300        0.4000           0   0.00000   0.00000
      9608 IM1      204      IM1      C2       CD2R5A   2.511900       11.6110           0   -1.37800   1.30000
      9609 IM1      204      IM1      DC2      DRUD    -2.880900        0.4000           0   0.00000   0.00000
      9610 IM1      204      IM1      H4       HDR5A    0.150000        1.0080           0   0.00000   0.00000
      9611 IM1      204      IM1      C3       CD2R5A   3.068900       11.6110           0   -1.37800   1.30000
      9612 IM1      204      IM1      DC3      DRUD    -2.880900        0.4000           0   0.00000   0.00000
      9613 IM1      204      IM1      H5       HDR5A    0.053000        1.0080           0   0.00000   0.00000
      9614 IM1      204      IM1      C4       CD2R5B   2.404400       11.6110           0   -0.868000   1.30000
      9615 IM1      204      IM1      DC4      DRUD    -2.286400        0.4000           0   0.00000   0.00000
      9616 IM1      204      IM1      H6       HDR5B    0.073000        1.0080           0   0.00000   0.00000
      9617 IM1      204      IM1      N2       ND2R5B   2.249300       13.6070           0   -0.840000   1.00000
      9618 IM1      204      IM1      DN2      DRUD    -2.249300        0.4000           0   0.00000   0.00000
      9619 IM1      204      IM1      H7       HDP1A    0.000000        1.0080           0   0.00000   0.00000
      9620 IM1      204      IM1      LPN21    LPD     -0.474000        0.0000           -1   0.00000   0.00000
      9621 IM1      205      IM1      C1       CD33G    2.390600       11.6110           0   -1.08100   1.00000
      9622 IM1      205      IM1      DC1      DRUD    -2.551600        0.4000           0   0.00000   0.00000
      9623 IM1      205      IM1      H1       HDA3A    0.094000        1.0080           0   0.00000   0.00000
      9624 IM1      205      IM1      H2       HDA3A    0.094000        1.0080           0   0.00000   0.00000
      9625 IM1      205      IM1      H3       HDA3A    0.094000        1.0080           0   0.00000   0.00000
      9626 IM1      205      IM1      N1       ND2R5A   2.670300       13.6070           0   -1.06300   1.30000
      9627 IM1      205      IM1      DN1      DRUD    -2.530300        0.4000           0   0.00000   0.00000
      9628 IM1      205      IM1      C2       CD2R5A   2.511900       11.6110           0   -1.37800   1.30000
      9629 IM1      205      IM1      DC2      DRUD    -2.880900        0.4000           0   0.00000   0.00000
      9630 IM1      205      IM1      H4       HDR5A    0.150000        1.0080           0   0.00000   0.00000
      9631 IM1      205      IM1      C3       CD2R5A   3.068900       11.6110           0   -1.37800   1.30000
      9632 IM1      205      IM1      DC3      DRUD    -2.880900        0.4000           0   0.00000   0.00000
      9633 IM1      205      IM1      H5       HDR5A    0.053000        1.0080           0   0.00000   0.00000
      9634 IM1      205      IM1      C4       CD2R5B   2.404400       11.6110           0   -0.868000   1.30000
      9635 IM1      205      IM1      DC4      DRUD    -2.286400        0.4000           0   0.00000   0.00000
      9636 IM1      205      IM1      H6       HDR5B    0.073000        1.0080           0   0.00000   0.00000
      9637 IM1      205      IM1      N2       ND2R5B   2.249300       13.6070           0   -0.840000   1.00000
      9638 IM1      205      IM1      DN2      DRUD    -2.249300        0.4000           0   0.00000   0.00000
      9639 IM1      205      IM1      H7       HDP1A    0.000000        1.0080           0   0.00000   0.00000
      9640 IM1      205      IM1      LPN21    LPD     -0.474000        0.0000           -1   0.00000   0.00000
      9641 IM1      206      IM1      C1       CD33G    2.390600       11.6110           0   -1.08100   1.00000
      9642 IM1      206      IM1      DC1      DRUD    -2.551600        0.4000           0   0.00000   0.00000
      9643 IM1      206      IM1      H1       HDA3A    0.094000        1.0080           0   0.00000   0.00000
      9644 IM1      206      IM1      H2       HDA3A    0.094000        1.0080           0   0.00000   0.00000
      9645 IM1      206      IM1      H3       HDA3A    0.094000        1.0080           0   0.00000   0.00000
      9646 IM1      206      IM1      N1       ND2R5A   2.670300       13.6070           0   -1.06300   1.30000
      9647 IM1      206      IM1      DN1      DRUD    -2.530300        0.4000           0   0.00000   0.00000
      9648 IM1      206      IM1      C2       CD2R5A   2.511900       11.6110           0   -1.37800   1.30000
      9649 IM1      206      IM1      DC2      DRUD    -2.880900        0.4000           0   0.00000   0.00000
      9650 IM1      206      IM1      H4       HDR5A    0.150000        1.0080           0   0.00000   0.00000
      9651 IM1      206      IM1      C3       CD2R5A   3.068900       11.6110           0   -1.37800   1.30000
      9652 IM1      206      IM1      DC3      DRUD    -2.880900        0.4000           0   0.00000   0.00000
      9653 IM1      206      IM1      H5       HDR5A    0.053000        1.0080           0   0.00000   0.00000
      9654 IM1      206      IM1      C4       CD2R5B   2.404400       11.6110           0   -0.868000   1.30000
      9655 IM1      206      IM1      DC4      DRUD    -2.286400        0.4000           0   0.00000   0.00000
      9656 IM1      206      IM1      H6       HDR5B    0.073000        1.0080           0   0.00000   0.00000
      9657 IM1      206      IM1      N2       ND2R5B   2.249300       13.6070           0   -0.840000   1.00000
      9658 IM1      206      IM1      DN2      DRUD    -2.249300        0.4000           0   0.00000   0.00000
      9659 IM1      206      IM1      H7       HDP1A    0.000000        1.0080           0   0.00000   0.00000
      9660 IM1      206      IM1      LPN21    LPD     -0.474000        0.0000           -1   0.00000   0.00000
      9661 IM1      207      IM1      C1       CD33G    2.390600       11.6110           0   -1.08100   1.00000
      9662 IM1      207      IM1      DC1      DRUD    -2.551600        0.4000           0   0.00000   0.00000
      9663 IM1      207      IM1      H1       HDA3A    0.094000        1.0080           0   0.00000   0.00000
      9664 IM1      207      IM1      H2       HDA3A    0.094000        1.0080           0   0.00000   0.00000
      9665 IM1      207      IM1      H3       HDA3A    0.094000        1.0080           0   0.00000   0.00000
      9666 IM1      207      IM1      N1       ND2R5A   2.670300       13.6070           0   -1.06300   1.30000
      9667 IM1      207      IM1      DN1      DRUD    -2.530300        0.4000           0   0.00000   0.00000
      9668 IM1      207      IM1      C2       CD2R5A   2.511900       11.6110           0   -1.37800   1.30000
      9669 IM1      207      IM1      DC2      DRUD    -2.880900        0.4000           0   0.00000   0.00000
      9670 IM1      207      IM1      H4       HDR5A    0.150000        1.0080           0   0.00000   0.00000
      9671 IM1      207      IM1      C3       CD2R5A   3.068900       11.6110           0   -1.37800   1.30000
      9672 IM1      207      IM1      DC3      DRUD    -2.880900        0.4000           0   0.00000   0.00000
      9673 IM1      207      IM1      H5       HDR5A    0.053000        1.0080           0   0.00000   0.00000
      9674 IM1      207      IM1      C4       CD2R5B   2.404400       11.6110           0   -0.868000   1.30000
      9675 IM1      207      IM1      DC4      DRUD    -2.286400        0.4000           0   0.00000   0.00000
      9676 IM1      207      IM1      H6       HDR5B    0.073000        1.0080           0   0.00000   0.00000
      9677 IM1      207      IM1      N2       ND2R5B   2.249300       13.6070           0   -0.840000   1.00000
      9678 IM1      207      IM1      DN2      DRUD    -2.249300        0.4000           0   0.00000   0.00000
      9679 IM1      207      IM1      H7       HDP1A    0.000000        1.0080           0   0.00000   0.00000
      9680 IM1      207      IM1      LPN21    LPD     -0.474000        0.0000           -1   0.00000   0.00000
      9681 IM1      208      IM1      C1       CD33G    2.390600       11.6110           0   -1.08100   1.00000
      9682 IM1      208      IM1      DC1      DRUD    -2.551600        0.4000           0   0.00000   0.00000
      9683 IM1      208      IM1      H1       HDA3A    0.094000        1.0080           0   0.00000   0.00000
      9684 IM1      208      IM1      H2       HDA3A    0.094000        1.0080           0   0.00000   0.00000
      9685 IM1      208      IM1      H3       HDA3A    0.094000        1.0080           0   0.00000   0.00000
      9686 IM1      208      IM1      N1       ND2R5A   2.670300       13.6070           0   -1.06300   1.30000
      9687 IM1      208      IM1      DN1      DRUD    -2.530300        0.4000           0   0.00000   0.00000
      9688 IM1      208      IM1      C2       CD2R5A   2.511900       11.6110           0   -1.37800   1.30000
      9689 IM1      208      IM1      DC2      DRUD    -2.880900        0.4000           0   0.00000   0.00000
      9690 IM1      208      IM1      H4       HDR5A    0.150000        1.0080           0   0.00000   0.00000
      9691 IM1      208      IM1      C3       CD2R5A   3.068900       11.6110           0   -1.37800   1.30000
      9692 IM1      208      IM1      DC3      DRUD    -2.880900        0.4000           0   0.00000   0.00000
      9693 IM1      208      IM1      H5       HDR5A    0.053000        1.0080           0   0.00000   0.00000
      9694 IM1      208      IM1      C4       CD2R5B   2.404400       11.6110           0   -0.868000   1.30000
      9695 IM1      208      IM1      DC4      DRUD    -2.286400        0.4000           0   0.00000   0.00000
      9696 IM1      208      IM1      H6       HDR5B    0.073000        1.0080           0   0.00000   0.00000
      9697 IM1      208      IM1      N2       ND2R5B   2.249300       13.6070           0   -0.840000   1.00000
      9698 IM1      208      IM1      DN2      DRUD    -2.249300        0.4000           0   0.00000   0.00000
      9699 IM1      208      IM1      H7       HDP1A    0.000000        1.0080           0   0.00000   0.00000
      9700 IM1      208      IM1      LPN21    LPD     -0.474000        0.0000           -1   0.00000   0.00000
      9701 IM1      209      IM1      C1       CD33G    2.390600       11.6110           0   -1.08100   1.00000
      9702 IM1      209      IM1      DC1      DRUD    -2.551600        0.4000           0   0.00000   0.00000
      9703 IM1      209      IM1      H1       HDA3A    0.094000        1.0080           0   0.00000   0.00000
      9704 IM1      209      IM1      H2       HDA3A    0.094000        1.0080           0   0.00000   0.00000
      9705 IM1      209      IM1      H3       HDA3A    0.094000        1.0080           0   0.00000   0.00000
      9706 IM1      209      IM1      N1       ND2R5A   2.670300       13.6070           0   -1.06300   1.30000
      9707 IM1      209      IM1      DN1      DRUD    -2.530300        0.4000           0   0.00000   0.00000
      9708 IM1      209      IM1      C2       CD2R5A   2.511900       11.6110           0   -1.37800   1.30000
      9709 IM1      209      IM1      DC2      DRUD    -2.880900        0.4000           0   0.00000   0.00000
      9710 IM1      209      IM1      H4       HDR5A    0.150000        1.0080           0   0.00000   0.00000
      9711 IM1      209      IM1      C3       CD2R5A   3.068900       11.6110           0   -1.37800   1.30000
      9712 IM1      209      IM1      DC3      DRUD    -2.880900        0.4000           0   0.00000   0.00000
      9713 IM1      209      IM1      H5       HDR5A    0.053000        1.0080           0   0.00000   0.00000
      9714 IM1      209      IM1      C4       CD2R5B   2.404400       11.6110           0   -0.868000   1.30000
      9715 IM1      209      IM1      DC4      DRUD    -2.286400        0.4000           0   0.00000   0.00000
      9716 IM1      209      IM1      H6       HDR5B    0.073000        1.0080           0   0.00000   0.00000
      9717 IM1      209      IM1      N2       ND2R5B   2.249300       13.6070           0   -0.840000   1.00000
      9718 IM1      209      IM1      DN2      DRUD    -2.249300        0.4000           0   0.00000   0.00000
      9719 IM1      209      IM1      H7       HDP1A    0.000000        1.0080           0   0.00000   0.00000
      9720 IM1      209      IM1      LPN21    LPD     -0.474000        0.0000           -1   0.00000   0.00000
      9721 IM1      210      IM1      C1       CD33G    2.390600       11.6110           0   -1.08100   1.00000
      9722 IM1      210      IM1      DC1      DRUD    -2.551600        0.4000           0   0.00000   0.00000
      9723 IM1      210      IM1      H1       HDA3A    0.094000        1.0080           0   0.00000   0.00000
      9724 IM1      210      IM1      H2       HDA3A    0.094000        1.0080           0   0.00000   0.00000
      9725 IM1      210      IM1      H3       HDA3A    0.094000        1.0080           0   0.00000   0.00000
      9726 IM1      210      IM1      N1       ND2R5A   2.670300       13.6070           0   -1.06300   1.30000
      9727 IM1      210      IM1      DN1      DRUD    -2.530300        0.4000           0   0.00000   0.00000
      9728 IM1      210      IM1      C2       CD2R5A   2.511900       11.6110           0   -1.37800   1.30000
      9729 IM1      210      IM1      DC2      DRUD    -2.880900        0.4000           0   0.00000   0.00000
      9730 IM1      210      IM1      H4       HDR5A    0.150000        1.0080           0   0.00000   0.00000
      9731 IM1      210      IM1      C3       CD2R5A   3.068900       11.6110           0   -1.37800   1.30000
      9732 IM1      210      IM1      DC3      DRUD    -2.880900        0.4000           0   0.00000   0.00000
      9733 IM1      210      IM1      H5       HDR5A    0.053000        1.0080           0   0.00000   0.00000
      9734 IM1      210      IM1      C4       CD2R5B   2.404400       11.6110           0   -0.868000   1.30000
      9735 IM1      210      IM1      DC4      DRUD    -2.286400        0.4000           0   0.00000   0.00000
      9736 IM1      210      IM1      H6       HDR5B    0.073000        1.0080           0   0.00000   0.00000
      9737 IM1      210      IM1      N2       ND2R5B   2.249300       13.6070           0   -0.840000   1.00000
      9738 IM1      210      IM1      DN2      DRUD    -2.249300        0.4000           0   0.00000   0.00000
      9739 IM1      210      IM1      H7       HDP1A    0.000000        1.0080           0   0.00000   0.00000
      9740 IM1      210      IM1      LPN21    LPD     -0.474000        0.0000           -1   0.00000   0.00000
      9741 IM1      211      IM1      C1       CD33G    2.390600       11.6110           0   -1.08100   1.00000
      9742 IM1      211      IM1      DC1      DRUD    -2.551600        0.4000           0   0.00000   0.00000
      9743 IM1      211      IM1      H1       HDA3A    0.094000        1.0080           0   0.00000   0.00000
      9744 IM1      211      IM1      H2       HDA3A    0.094000        1.0080           0   0.00000   0.00000
      9745 IM1      211      IM1      H3       HDA3A    0.094000        1.0080           0   0.00000   0.00000
      9746 IM1      211      IM1      N1       ND2R5A   2.670300       13.6070           0   -1.06300   1.30000
      9747 IM1      211      IM1      DN1      DRUD    -2.530300        0.4000           0   0.00000   0.00000
      9748 IM1      211      IM1      C2       CD2R5A   2.511900       11.6110           0   -1.37800   1.30000
      9749 IM1      211      IM1      DC2      DRUD    -2.880900        0.4000           0   0.00000   0.00000
      9750 IM1      211      IM1      H4       HDR5A    0.150000        1.0080           0   0.00000   0.00000
      9751 IM1      211      IM1      C3       CD2R5A   3.068900       11.6110           0   -1.37800   1.30000
      9752 IM1      211      IM1      DC3      DRUD    -2.880900        0.4000           0   0.00000   0.00000
      9753 IM1      211      IM1      H5       HDR5A    0.053000        1.0080           0   0.00000   0.00000
      9754 IM1      211      IM1      C4       CD2R5B   2.404400       11.6110           0   -0.868000   1.30000
      9755 IM1      211      IM1      DC4      DRUD    -2.286400        0.4000           0   0.00000   0.00000
      9756 IM1      211      IM1      H6       HDR5B    0.073000        1.0080           0   0.00000   0.00000
      9757 IM1      211      IM1      N2       ND2R5B   2.249300       13.6070           0   -0.840000   1.00000
      9758 IM1      211      IM1      DN2      DRUD    -2.249300        0.4000           0   0.00000   0.00000
      9759 IM1      211      IM1      H7       HDP1A    0.000000        1.0080           0   0.00000   0.00000
      9760 IM1      211      IM1      LPN21    LPD     -0.474000        0.0000           -1   0.00000   0.00000
      9761 IM1      212      IM1      C1       CD33G    2.390600       11.6110           0   -1.08100   1.00000
      9762 IM1      212      IM1      DC1      DRUD    -2.551600        0.4000           0   0.00000   0.00000
      9763 IM1      212      IM1      H1       HDA3A    0.094000        1.0080           0   0.00000   0.00000
      9764 IM1      212      IM1      H2       HDA3A    0.094000        1.0080           0   0.00000   0.00000
      9765 IM1      212      IM1      H3       HDA3A    0.094000        1.0080           0   0.00000   0.00000
      9766 IM1      212      IM1      N1       ND2R5A   2.670300       13.6070           0   -1.06300   1.30000
      9767 IM1      212      IM1      DN1      DRUD    -2.530300        0.4000           0   0.00000   0.00000
      9768 IM1      212      IM1      C2       CD2R5A   2.511900       11.6110           0   -1.37800   1.30000
      9769 IM1      212      IM1      DC2      DRUD    -2.880900        0.4000           0   0.00000   0.00000
      9770 IM1      212      IM1      H4       HDR5A    0.150000        1.0080           0   0.00000   0.00000
      9771 IM1      212      IM1      C3       CD2R5A   3.068900       11.6110           0   -1.37800   1.30000
      9772 IM1      212      IM1      DC3      DRUD    -2.880900        0.4000           0   0.00000   0.00000
      9773 IM1      212      IM1      H5       HDR5A    0.053000        1.0080           0   0.00000   0.00000
      9774 IM1      212      IM1      C4       CD2R5B   2.404400       11.6110           0   -0.868000   1.30000
      9775 IM1      212      IM1      DC4      DRUD    -2.286400        0.4000           0   0.00000   0.00000
      9776 IM1      212      IM1      H6       HDR5B    0.073000        1.0080           0   0.00000   0.00000
      9777 IM1      212      IM1      N2       ND2R5B   2.249300       13.6070           0   -0.840000   1.00000
      9778 IM1      212      IM1      DN2      DRUD    -2.249300        0.4000           0   0.00000   0.00000
      9779 IM1      212      IM1      H7       HDP1A    0.000000        1.0080           0   0.00000   0.00000
      9780 IM1      212      IM1      LPN21    LPD     -0.474000        0.0000           -1   0.00000   0.00000
      9781 IM1      213      IM1      C1       CD33G    2.390600       11.6110           0   -1.08100   1.00000
      9782 IM1      213      IM1      DC1      DRUD    -2.551600        0.4000           0   0.00000   0.00000
      9783 IM1      213      IM1      H1       HDA3A    0.094000        1.0080           0   0.00000   0.00000
      9784 IM1      213      IM1      H2       HDA3A    0.094000        1.0080           0   0.00000   0.00000
      9785 IM1      213      IM1      H3       HDA3A    0.094000        1.0080           0   0.00000   0.00000
      9786 IM1      213      IM1      N1       ND2R5A   2.670300       13.6070           0   -1.06300   1.30000
      9787 IM1      213      IM1      DN1      DRUD    -2.530300        0.4000           0   0.00000   0.00000
      9788 IM1      213      IM1      C2       CD2R5A   2.511900       11.6110           0   -1.37800   1.30000
      9789 IM1      213      IM1      DC2      DRUD    -2.880900        0.4000           0   0.00000   0.00000
      9790 IM1      213      IM1      H4       HDR5A    0.150000        1.0080           0   0.00000   0.00000
      9791 IM1      213      IM1      C3       CD2R5A   3.068900       11.6110           0   -1.37800   1.30000
      9792 IM1      213      IM1      DC3      DRUD    -2.880900        0.4000           0   0.00000   0.00000
      9793 IM1      213      IM1      H5       HDR5A    0.053000        1.0080           0   0.00000   0.00000
      9794 IM1      213      IM1      C4       CD2R5B   2.404400       11.6110           0   -0.868000   1.30000
      9795 IM1      213      IM1      DC4      DRUD    -2.286400        0.4000           0   0.00000   0.00000
      9796 IM1      213      IM1      H6       HDR5B    0.073000        1.0080           0   0.00000   0.00000
      9797 IM1      213      IM1      N2       ND2R5B   2.249300       13.6070           0   -0.840000   1.00000
      9798 IM1      213      IM1      DN2      DRUD    -2.249300        0.4000           0   0.00000   0.00000
      9799 IM1      213      IM1      H7       HDP1A    0.000000        1.0080           0   0.00000   0.00000
      9800 IM1      213      IM1      LPN21    LPD     -0.474000        0.0000           -1   0.00000   0.00000
      9801 IM1      214      IM1      C1       CD33G    2.390600       11.6110           0   -1.08100   1.00000
      9802 IM1      214      IM1      DC1      DRUD    -2.551600        0.4000           0   0.00000   0.00000
      9803 IM1      214      IM1      H1       HDA3A    0.094000        1.0080           0   0.00000   0.00000
      9804 IM1      214      IM1      H2       HDA3A    0.094000        1.0080           0   0.00000   0.00000
      9805 IM1      214      IM1      H3       HDA3A    0.094000        1.0080           0   0.00000   0.00000
      9806 IM1      214      IM1      N1       ND2R5A   2.670300       13.6070           0   -1.06300   1.30000
      9807 IM1      214      IM1      DN1      DRUD    -2.530300        0.4000           0   0.00000   0.00000
      9808 IM1      214      IM1      C2       CD2R5A   2.511900       11.6110           0   -1.37800   1.30000
      9809 IM1      214      IM1      DC2      DRUD    -2.880900        0.4000           0   0.00000   0.00000
      9810 IM1      214      IM1      H4       HDR5A    0.150000        1.0080           0   0.00000   0.00000
      9811 IM1      214      IM1      C3       CD2R5A   3.068900       11.6110           0   -1.37800   1.30000
      9812 IM1      214      IM1      DC3      DRUD    -2.880900        0.4000           0   0.00000   0.00000
      9813 IM1      214      IM1      H5       HDR5A    0.053000        1.0080           0   0.00000   0.00000
      9814 IM1      214      IM1      C4       CD2R5B   2.404400       11.6110           0   -0.868000   1.30000
      9815 IM1      214      IM1      DC4      DRUD    -2.286400        0.4000           0   0.00000   0.00000
      9816 IM1      214      IM1      H6       HDR5B    0.073000        1.0080           0   0.00000   0.00000
      9817 IM1      214      IM1      N2       ND2R5B   2.249300       13.6070           0   -0.840000   1.00000
      9818 IM1      214      IM1      DN2      DRUD    -2.249300        0.4000           0   0.00000   0.00000
      9819 IM1      214      IM1      H7       HDP1A    0.000000        1.0080           0   0.00000   0.00000
      9820 IM1      214      IM1      LPN21    LPD     -0.474000        0.0000           -1   0.00000   0.00000
      9821 IM1      215      IM1      C1       CD33G    2.390600       11.6110           0   -1.08100   1.00000
      9822 IM1      215      IM1      DC1      DRUD    -2.551600        0.4000           0   0.00000   0.00000
      9823 IM1      215      IM1      H1       HDA3A    0.094000        1.0080           0   0.00000   0.00000
      9824 IM1      215      IM1      H2       HDA3A    0.094000        1.0080           0   0.00000   0.00000
      9825 IM1      215      IM1      H3       HDA3A    0.094000        1.0080           0   0.00000   0.00000
      9826 IM1      215      IM1      N1       ND2R5A   2.670300       13.6070           0   -1.06300   1.30000
      9827 IM1      215      IM1      DN1      DRUD    -2.530300        0.4000           0   0.00000   0.00000
      9828 IM1      215      IM1      C2       CD2R5A   2.511900       11.6110           0   -1.37800   1.30000
      9829 IM1      215      IM1      DC2      DRUD    -2.880900        0.4000           0   0.00000   0.00000
      9830 IM1      215      IM1      H4       HDR5A    0.150000        1.0080           0   0.00000   0.00000
      9831 IM1      215      IM1      C3       CD2R5A   3.068900       11.6110           0   -1.37800   1.30000
      9832 IM1      215      IM1      DC3      DRUD    -2.880900        0.4000           0   0.00000   0.00000
      9833 IM1      215      IM1      H5       HDR5A    0.053000        1.0080           0   0.00000   0.00000
      9834 IM1      215      IM1      C4       CD2R5B   2.404400       11.6110           0   -0.868000   1.30000
      9835 IM1      215      IM1      DC4      DRUD    -2.286400        0.4000           0   0.00000   0.00000
      9836 IM1      215      IM1      H6       HDR5B    0.073000        1.0080           0   0.00000   0.00000
      9837 IM1      215      IM1      N2       ND2R5B   2.249300       13.6070           0   -0.840000   1.00000
      9838 IM1      215      IM1      DN2      DRUD    -2.249300        0.4000           0   0.00000   0.00000
      9839 IM1      215      IM1      H7       HDP1A    0.000000        1.0080           0   0.00000   0.00000
      9840 IM1      215      IM1      LPN21    LPD     -0.474000        0.0000           -1   0.00000   0.00000
      9841 IM1      216      IM1      C1       CD33G    2.390600       11.6110           0   -1.08100   1.00000
      9842 IM1      216      IM1      DC1      DRUD    -2.551600        0.4000           0   0.00000   0.00000
      9843 IM1      216      IM1      H1       HDA3A    0.094000        1.0080           0   0.00000   0.00000
      9844 IM1      216      IM1      H2       HDA3A    0.094000        1.0080           0   0.00000   0.00000
      9845 IM1      216      IM1      H3       HDA3A    0.094000        1.0080           0   0.00000   0.00000
      9846 IM1      216      IM1      N1       ND2R5A   2.670300       13.6070           0   -1.06300   1.30000
      9847 IM1      216      IM1      DN1      DRUD    -2.530300        0.4000           0   0.00000   0.00000
      9848 IM1      216      IM1      C2       CD2R5A   2.511900       11.6110           0   -1.37800   1.30000
      9849 IM1      216      IM1      DC2      DRUD    -2.880900        0.4000           0   0.00000   0.00000
      9850 IM1      216      IM1      H4       HDR5A    0.150000        1.0080           0   0.00000   0.00000
      9851 IM1      216      IM1      C3       CD2R5A   3.068900       11.6110           0   -1.37800   1.30000
      9852 IM1      216      IM1      DC3      DRUD    -2.880900        0.4000           0   0.00000   0.00000
      9853 IM1      216      IM1      H5       HDR5A    0.053000        1.0080           0   0.00000   0.00000
      9854 IM1      216      IM1      C4       CD2R5B   2.404400       11.6110           0   -0.868000   1.30000
      9855 IM1      216      IM1      DC4      DRUD    -2.286400        0.4000           0   0.00000   0.00000
      9856 IM1      216      IM1      H6       HDR5B    0.073000        1.0080           0   0.00000   0.00000
      9857 IM1      216      IM1      N2       ND2R5B   2.249300       13.6070           0   -0.840000   1.00000
      9858 IM1      216      IM1      DN2      DRUD    -2.249300        0.4000           0   0.00000   0.00000
      9859 IM1      216      IM1      H7       HDP1A    0.000000        1.0080           0   0.00000   0.00000
      9860 IM1      216      IM1      LPN21    LPD     -0.474000        0.0000           -1   0.00000   0.00000
      9861 IM1      217      IM1      C1       CD33G    2.390600       11.6110           0   -1.08100   1.00000
      9862 IM1      217      IM1      DC1      DRUD    -2.551600        0.4000           0   0.00000   0.00000
      9863 IM1      217      IM1      H1       HDA3A    0.094000        1.0080           0   0.00000   0.00000
      9864 IM1      217      IM1      H2       HDA3A    0.094000        1.0080           0   0.00000   0.00000
      9865 IM1      217      IM1      H3       HDA3A    0.094000        1.0080           0   0.00000   0.00000
      9866 IM1      217      IM1      N1       ND2R5A   2.670300       13.6070           0   -1.06300   1.30000
      9867 IM1      217      IM1      DN1      DRUD    -2.530300        0.4000           0   0.00000   0.00000
      9868 IM1      217      IM1      C2       CD2R5A   2.511900       11.6110           0   -1.37800   1.30000
      9869 IM1      217      IM1      DC2      DRUD    -2.880900        0.4000           0   0.00000   0.00000
      9870 IM1      217      IM1      H4       HDR5A    0.150000        1.0080           0   0.00000   0.00000
      9871 IM1      217      IM1      C3       CD2R5A   3.068900       11.6110           0   -1.37800   1.30000
      9872 IM1      217      IM1      DC3      DRUD    -2.880900        0.4000           0   0.00000   0.00000
      9873 IM1      217      IM1      H5       HDR5A    0.053000        1.0080           0   0.00000   0.00000
      9874 IM1      217      IM1      C4       CD2R5B   2.404400       11.6110           0   -0.868000   1.30000
      9875 IM1      217      IM1      DC4      DRUD    -2.286400        0.4000           0   0.00000   0.00000
      9876 IM1      217      IM1      H6       HDR5B    0.073000        1.0080           0   0.00000   0.00000
      9877 IM1      217      IM1      N2       ND2R5B   2.249300       13.6070           0   -0.840000   1.00000
      9878 IM1      217      IM1      DN2      DRUD    -2.249300        0.4000           0   0.00000   0.00000
      9879 IM1      217      IM1      H7       HDP1A    0.000000        1.0080           0   0.00000   0.00000
      9880 IM1      217      IM1      LPN21    LPD     -0.474000        0.0000           -1   0.00000   0.00000
      9881 IM1      218      IM1      C1       CD33G    2.390600       11.6110           0   -1.08100   1.00000
      9882 IM1      218      IM1      DC1      DRUD    -2.551600        0.4000           0   0.00000   0.00000
      9883 IM1      218      IM1      H1       HDA3A    0.094000        1.0080           0   0.00000   0.00000
      9884 IM1      218      IM1      H2       HDA3A    0.094000        1.0080           0   0.00000   0.00000
      9885 IM1      218      IM1      H3       HDA3A    0.094000        1.0080           0   0.00000   0.00000
      9886 IM1      218      IM1      N1       ND2R5A   2.670300       13.6070           0   -1.06300   1.30000
      9887 IM1      218      IM1      DN1      DRUD    -2.530300        0.4000           0   0.00000   0.00000
      9888 IM1      218      IM1      C2       CD2R5A   2.511900       11.6110           0   -1.37800   1.30000
      9889 IM1      218      IM1      DC2      DRUD    -2.880900        0.4000           0   0.00000   0.00000
      9890 IM1      218      IM1      H4       HDR5A    0.150000        1.0080           0   0.00000   0.00000
      9891 IM1      218      IM1      C3       CD2R5A   3.068900       11.6110           0   -1.37800   1.30000
      9892 IM1      218      IM1      DC3      DRUD    -2.880900        0.4000           0   0.00000   0.00000
      9893 IM1      218      IM1      H5       HDR5A    0.053000        1.0080           0   0.00000   0.00000
      9894 IM1      218      IM1      C4       CD2R5B   2.404400       11.6110           0   -0.868000   1.30000
      9895 IM1      218      IM1      DC4      DRUD    -2.286400        0.4000           0   0.00000   0.00000
      9896 IM1      218      IM1      H6       HDR5B    0.073000        1.0080           0   0.00000   0.00000
      9897 IM1      218      IM1      N2       ND2R5B   2.249300       13.6070           0   -0.840000   1.00000
      9898 IM1      218      IM1      DN2      DRUD    -2.249300        0.4000           0   0.00000   0.00000
      9899 IM1      218      IM1      H7       HDP1A    0.000000        1.0080           0   0.00000   0.00000
      9900 IM1      218      IM1      LPN21    LPD     -0.474000        0.0000           -1   0.00000   0.00000
      9901 IM1      219      IM1      C1       CD33G    2.390600       11.6110           0   -1.08100   1.00000
      9902 IM1      219      IM1      DC1      DRUD    -2.551600        0.4000           0   0.00000   0.00000
      9903 IM1      219      IM1      H1       HDA3A    0.094000        1.0080           0   0.00000   0.00000
      9904 IM1      219      IM1      H2       HDA3A    0.094000        1.0080           0   0.00000   0.00000
      9905 IM1      219      IM1      H3       HDA3A    0.094000        1.0080           0   0.00000   0.00000
      9906 IM1      219      IM1      N1       ND2R5A   2.670300       13.6070           0   -1.06300   1.30000
      9907 IM1      219      IM1      DN1      DRUD    -2.530300        0.4000           0   0.00000   0.00000
      9908 IM1      219      IM1      C2       CD2R5A   2.511900       11.6110           0   -1.37800   1.30000
      9909 IM1      219      IM1      DC2      DRUD    -2.880900        0.4000           0   0.00000   0.00000
      9910 IM1      219      IM1      H4       HDR5A    0.150000        1.0080           0   0.00000   0.00000
      9911 IM1      219      IM1      C3       CD2R5A   3.068900       11.6110           0   -1.37800   1.30000
      9912 IM1      219      IM1      DC3      DRUD    -2.880900        0.4000           0   0.00000   0.00000
      9913 IM1      219      IM1      H5       HDR5A    0.053000        1.0080           0   0.00000   0.00000
      9914 IM1      219      IM1      C4       CD2R5B   2.404400       11.6110           0   -0.868000   1.30000
      9915 IM1      219      IM1      DC4      DRUD    -2.286400        0.4000           0   0.00000   0.00000
      9916 IM1      219      IM1      H6       HDR5B    0.073000        1.0080           0   0.00000   0.00000
      9917 IM1      219      IM1      N2       ND2R5B   2.249300       13.6070           0   -0.840000   1.00000
      9918 IM1      219      IM1      DN2      DRUD    -2.249300        0.4000           0   0.00000   0.00000
      9919 IM1      219      IM1      H7       HDP1A    0.000000        1.0080           0   0.00000   0.00000
      9920 IM1      219      IM1      LPN21    LPD     -0.474000        0.0000           -1   0.00000   0.00000
      9921 IM1      220      IM1      C1       CD33G    2.390600       11.6110           0   -1.08100   1.00000
      9922 IM1      220      IM1      DC1      DRUD    -2.551600        0.4000           0   0.00000   0.00000
      9923 IM1      220      IM1      H1       HDA3A    0.094000        1.0080           0   0.00000   0.00000
      9924 IM1      220      IM1      H2       HDA3A    0.094000        1.0080           0   0.00000   0.00000
      9925 IM1      220      IM1      H3       HDA3A    0.094000        1.0080           0   0.00000   0.00000
      9926 IM1      220      IM1      N1       ND2R5A   2.670300       13.6070           0   -1.06300   1.30000
      9927 IM1      220      IM1      DN1      DRUD    -2.530300        0.4000           0   0.00000   0.00000
      9928 IM1      220      IM1      C2       CD2R5A   2.511900       11.6110           0   -1.37800   1.30000
      9929 IM1      220      IM1      DC2      DRUD    -2.880900        0.4000           0   0.00000   0.00000
      9930 IM1      220      IM1      H4       HDR5A    0.150000        1.0080           0   0.00000   0.00000
      9931 IM1      220      IM1      C3       CD2R5A   3.068900       11.6110           0   -1.37800   1.30000
      9932 IM1      220      IM1      DC3      DRUD    -2.880900        0.4000           0   0.00000   0.00000
      9933 IM1      220      IM1      H5       HDR5A    0.053000        1.0080           0   0.00000   0.00000
      9934 IM1      220      IM1      C4       CD2R5B   2.404400       11.6110           0   -0.868000   1.30000
      9935 IM1      220      IM1      DC4      DRUD    -2.286400        0.4000           0   0.00000   0.00000
      9936 IM1      220      IM1      H6       HDR5B    0.073000        1.0080           0   0.00000   0.00000
      9937 IM1      220      IM1      N2       ND2R5B   2.249300       13.6070           0   -0.840000   1.00000
      9938 IM1      220      IM1      DN2      DRUD    -2.249300        0.4000           0   0.00000   0.00000
      9939 IM1      220      IM1      H7       HDP1A    0.000000        1.0080           0   0.00000   0.00000
      9940 IM1      220      IM1      LPN21    LPD     -0.474000        0.0000           -1   0.00000   0.00000
      9941 IM1      221      IM1      C1       CD33G    2.390600       11.6110           0   -1.08100   1.00000
      9942 IM1      221      IM1      DC1      DRUD    -2.551600        0.4000           0   0.00000   0.00000
      9943 IM1      221      IM1      H1       HDA3A    0.094000        1.0080           0   0.00000   0.00000
      9944 IM1      221      IM1      H2       HDA3A    0.094000        1.0080           0   0.00000   0.00000
      9945 IM1      221      IM1      H3       HDA3A    0.094000        1.0080           0   0.00000   0.00000
      9946 IM1      221      IM1      N1       ND2R5A   2.670300       13.6070           0   -1.06300   1.30000
      9947 IM1      221      IM1      DN1      DRUD    -2.530300        0.4000           0   0.00000   0.00000
      9948 IM1      221      IM1      C2       CD2R5A   2.511900       11.6110           0   -1.37800   1.30000
      9949 IM1      221      IM1      DC2      DRUD    -2.880900        0.4000           0   0.00000   0.00000
      9950 IM1      221      IM1      H4       HDR5A    0.150000        1.0080           0   0.00000   0.00000
      9951 IM1      221      IM1      C3       CD2R5A   3.068900       11.6110           0   -1.37800   1.30000
      9952 IM1      221      IM1      DC3      DRUD    -2.880900        0.4000           0   0.00000   0.00000
      9953 IM1      221      IM1      H5       HDR5A    0.053000        1.0080           0   0.00000   0.00000
      9954 IM1      221      IM1      C4       CD2R5B   2.404400       11.6110           0   -0.868000   1.30000
      9955 IM1      221      IM1      DC4      DRUD    -2.286400        0.4000           0   0.00000   0.00000
      9956 IM1      221      IM1      H6       HDR5B    0.073000        1.0080           0   0.00000   0.00000
      9957 IM1      221      IM1      N2       ND2R5B   2.249300       13.6070           0   -0.840000   1.00000
      9958 IM1      221      IM1      DN2      DRUD    -2.249300        0.4000           0   0.00000   0.00000
      9959 IM1      221      IM1      H7       HDP1A    0.000000        1.0080           0   0.00000   0.00000
      9960 IM1      221      IM1      LPN21    LPD     -0.474000        0.0000           -1   0.00000   0.00000
      9961 IM1      222      IM1      C1       CD33G    2.390600       11.6110           0   -1.08100   1.00000
      9962 IM1      222      IM1      DC1      DRUD    -2.551600        0.4000           0   0.00000   0.00000
      9963 IM1      222      IM1      H1       HDA3A    0.094000        1.0080           0   0.00000   0.00000
      9964 IM1      222      IM1      H2       HDA3A    0.094000        1.0080           0   0.00000   0.00000
      9965 IM1      222      IM1      H3       HDA3A    0.094000        1.0080           0   0.00000   0.00000
      9966 IM1      222      IM1      N1       ND2R5A   2.670300       13.6070           0   -1.06300   1.30000
      9967 IM1      222      IM1      DN1      DRUD    -2.530300        0.4000           0   0.00000   0.00000
      9968 IM1      222      IM1      C2       CD2R5A   2.511900       11.6110           0   -1.37800   1.30000
      9969 IM1      222      IM1      DC2      DRUD    -2.880900        0.4000           0   0.00000   0.00000
      9970 IM1      222      IM1      H4       HDR5A    0.150000        1.0080           0   0.00000   0.00000
      9971 IM1      222      IM1      C3       CD2R5A   3.068900       11.6110           0   -1.37800   1.30000
      9972 IM1      222      IM1      DC3      DRUD    -2.880900        0.4000           0   0.00000   0.00000
      9973 IM1      222      IM1      H5       HDR5A    0.053000        1.0080           0   0.00000   0.00000
      9974 IM1      222      IM1      C4       CD2R5B   2.404400       11.6110           0   -0.868000   1.30000
      9975 IM1      222      IM1      DC4      DRUD    -2.286400        0.4000           0   0.00000   0.00000
      9976 IM1      222      IM1      H6       HDR5B    0.073000        1.0080           0   0.00000   0.00000
      9977 IM1      222      IM1      N2       ND2R5B   2.249300       13.6070           0   -0.840000   1.00000
      9978 IM1      222      IM1      DN2      DRUD    -2.249300        0.4000           0   0.00000   0.00000
      9979 IM1      222      IM1      H7       HDP1A    0.000000        1.0080           0   0.00000   0.00000
      9980 IM1      222      IM1      LPN21    LPD     -0.474000        0.0000           -1   0.00000   0.00000
      9981 IM1      223      IM1      C1       CD33G    2.390600       11.6110           0   -1.08100   1.00000
      9982 IM1      223      IM1      DC1      DRUD    -2.551600        0.4000           0   0.00000   0.00000
      9983 IM1      223      IM1      H1       HDA3A    0.094000        1.0080           0   0.00000   0.00000
      9984 IM1      223      IM1      H2       HDA3A    0.094000        1.0080           0   0.00000   0.00000
      9985 IM1      223      IM1      H3       HDA3A    0.094000        1.0080           0   0.00000   0.00000
      9986 IM1      223      IM1      N1       ND2R5A   2.670300       13.6070           0   -1.06300   1.30000
      9987 IM1      223      IM1      DN1      DRUD    -2.530300        0.4000           0   0.00000   0.00000
      9988 IM1      223      IM1      C2       CD2R5A   2.511900       11.6110           0   -1.37800   1.30000
      9989 IM1      223      IM1      DC2      DRUD    -2.880900        0.4000           0   0.00000   0.00000
      9990 IM1      223      IM1      H4       HDR5A    0.150000        1.0080           0   0.00000   0.00000
      9991 IM1      223      IM1      C3       CD2R5A   3.068900       11.6110           0   -1.37800   1.30000
      9992 IM1      223      IM1      DC3      DRUD    -2.880900        0.4000           0   0.00000   0.00000
      9993 IM1      223      IM1      H5       HDR5A    0.053000        1.0080           0   0.00000   0.00000
      9994 IM1      223      IM1      C4       CD2R5B   2.404400       11.6110           0   -0.868000   1.30000
      9995 IM1      223      IM1      DC4      DRUD    -2.286400        0.4000           0   0.00000   0.00000
      9996 IM1      223      IM1      H6       HDR5B    0.073000        1.0080           0   0.00000   0.00000
      9997 IM1      223      IM1      N2       ND2R5B   2.249300       13.6070           0   -0.840000   1.00000
      9998 IM1      223      IM1      DN2      DRUD    -2.249300        0.4000           0   0.00000   0.00000
      9999 IM1      223      IM1      H7       HDP1A    0.000000        1.0080           0   0.00000   0.00000
     10000 IM1      223      IM1      LPN21    LPD     -0.474000        0.0000           -1   0.00000   0.00000
     10001 IM1      224      IM1      C1       CD33G    2.390600       11.6110           0   -1.08100   1.00000
     10002 IM1      224      IM1      DC1      DRUD    -2.551600        0.4000           0   0.00000   0.00000
     10003 IM1      224      IM1      H1       HDA3A    0.094000        1.0080           0   0.00000   0.00000
     10004 IM1      224      IM1      H2       HDA3A    0.094000        1.0080           0   0.00000   0.00000
     10005 IM1      224      IM1      H3       HDA3A    0.094000        1.0080           0   0.00000   0.00000
     10006 IM1      224      IM1      N1       ND2R5A   2.670300       13.6070           0   -1.06300   1.30000
     10007 IM1      224      IM1      DN1      DRUD    -2.530300        0.4000           0   0.00000   0.00000
     10008 IM1      224      IM1      C2       CD2R5A   2.511900       11.6110           0   -1.37800   1.30000
     10009 IM1      224      IM1      DC2      DRUD    -2.880900        0.4000           0   0.00000   0.00000
     10010 IM1      224      IM1      H4       HDR5A    0.150000        1.0080           0   0.00000   0.00000
     10011 IM1      224      IM1      C3       CD2R5A   3.068900       11.6110           0   -1.37800   1.30000
     10012 IM1      224      IM1      DC3      DRUD    -2.880900        0.4000           0   0.00000   0.00000
     10013 IM1      224      IM1      H5       HDR5A    0.053000        1.0080           0   0.00000   0.00000
     10014 IM1      224      IM1      C4       CD2R5B   2.404400       11.6110           0   -0.868000   1.30000
     10015 IM1      224      IM1      DC4      DRUD    -2.286400        0.4000           0   0.00000   0.00000
     10016 IM1      224      IM1      H6       HDR5B    0.073000        1.0080           0   0.00000   0.00000
     10017 IM1      224      IM1      N2       ND2R5B   2.249300       13.6070           0   -0.840000   1.00000
     10018 IM1      224      IM1      DN2      DRUD    -2.249300        0.4000           0   0.00000   0.00000
     10019 IM1      224      IM1      H7       HDP1A    0.000000        1.0080           0   0.00000   0.00000
     10020 IM1      224      IM1      LPN21    LPD     -0.474000        0.0000           -1   0.00000   0.00000
     10021 IM1      225      IM1      C1       CD33G    2.390600       11.6110           0   -1.08100   1.00000
     10022 IM1      225      IM1      DC1      DRUD    -2.551600        0.4000           0   0.00000   0.00000
     10023 IM1      225      IM1      H1       HDA3A    0.094000        1.0080           0   0.00000   0.00000
     10024 IM1      225      IM1      H2       HDA3A    0.094000        1.0080           0   0.00000   0.00000
     10025 IM1      225      IM1      H3       HDA3A    0.094000        1.0080           0   0.00000   0.00000
     10026 IM1      225      IM1      N1       ND2R5A   2.670300       13.6070           0   -1.06300   1.30000
     10027 IM1      225      IM1      DN1      DRUD    -2.530300        0.4000           0   0.00000   0.00000
     10028 IM1      225      IM1      C2       CD2R5A   2.511900       11.6110           0   -1.37800   1.30000
     10029 IM1      225      IM1      DC2      DRUD    -2.880900        0.4000           0   0.00000   0.00000
     10030 IM1      225      IM1      H4       HDR5A    0.150000        1.0080           0   0.00000   0.00000
     10031 IM1      225      IM1      C3       CD2R5A   3.068900       11.6110           0   -1.37800   1.30000
     10032 IM1      225      IM1      DC3      DRUD    -2.880900        0.4000           0   0.00000   0.00000
     10033 IM1      225      IM1      H5       HDR5A    0.053000        1.0080           0   0.00000   0.00000
     10034 IM1      225      IM1      C4       CD2R5B   2.404400       11.6110           0   -0.868000   1.30000
     10035 IM1      225      IM1      DC4      DRUD    -2.286400        0.4000           0   0.00000   0.00000
     10036 IM1      225      IM1      H6       HDR5B    0.073000        1.0080           0   0.00000   0.00000
     10037 IM1      225      IM1      N2       ND2R5B   2.249300       13.6070           0   -0.840000   1.00000
     10038 IM1      225      IM1      DN2      DRUD    -2.249300        0.4000           0   0.00000   0.00000
     10039 IM1      225      IM1      H7       HDP1A    0.000000        1.0080           0   0.00000   0.00000
     10040 IM1      225      IM1      LPN21    LPD     -0.474000        0.0000           -1   0.00000   0.00000
     10041 IM1      226      IM1      C1       CD33G    2.390600       11.6110           0   -1.08100   1.00000
     10042 IM1      226      IM1      DC1      DRUD    -2.551600        0.4000           0   0.00000   0.00000
     10043 IM1      226      IM1      H1       HDA3A    0.094000        1.0080           0   0.00000   0.00000
     10044 IM1      226      IM1      H2       HDA3A    0.094000        1.0080           0   0.00000   0.00000
     10045 IM1      226      IM1      H3       HDA3A    0.094000        1.0080           0   0.00000   0.00000
     10046 IM1      226      IM1      N1       ND2R5A   2.670300       13.6070           0   -1.06300   1.30000
     10047 IM1      226      IM1      DN1      DRUD    -2.530300        0.4000           0   0.00000   0.00000
     10048 IM1      226      IM1      C2       CD2R5A   2.511900       11.6110           0   -1.37800   1.30000
     10049 IM1      226      IM1      DC2      DRUD    -2.880900        0.4000           0   0.00000   0.00000
     10050 IM1      226      IM1      H4       HDR5A    0.150000        1.0080           0   0.00000   0.00000
     10051 IM1      226      IM1      C3       CD2R5A   3.068900       11.6110           0   -1.37800   1.30000
     10052 IM1      226      IM1      DC3      DRUD    -2.880900        0.4000           0   0.00000   0.00000
     10053 IM1      226      IM1      H5       HDR5A    0.053000        1.0080           0   0.00000   0.00000
     10054 IM1      226      IM1      C4       CD2R5B   2.404400       11.6110           0   -0.868000   1.30000
     10055 IM1      226      IM1      DC4      DRUD    -2.286400        0.4000           0   0.00000   0.00000
     10056 IM1      226      IM1      H6       HDR5B    0.073000        1.0080           0   0.00000   0.00000
     10057 IM1      226      IM1      N2       ND2R5B   2.249300       13.6070           0   -0.840000   1.00000
     10058 IM1      226      IM1      DN2      DRUD    -2.249300        0.4000           0   0.00000   0.00000
     10059 IM1      226      IM1      H7       HDP1A    0.000000        1.0080           0   0.00000   0.00000
     10060 IM1      226      IM1      LPN21    LPD     -0.474000        0.0000           -1   0.00000   0.00000
     10061 IM1      227      IM1      C1       CD33G    2.390600       11.6110           0   -1.08100   1.00000
     10062 IM1      227      IM1      DC1      DRUD    -2.551600        0.4000           0   0.00000   0.00000
     10063 IM1      227      IM1      H1       HDA3A    0.094000        1.0080           0   0.00000   0.00000
     10064 IM1      227      IM1      H2       HDA3A    0.094000        1.0080           0   0.00000   0.00000
     10065 IM1      227      IM1      H3       HDA3A    0.094000        1.0080           0   0.00000   0.00000
     10066 IM1      227      IM1      N1       ND2R5A   2.670300       13.6070           0   -1.06300   1.30000
     10067 IM1      227      IM1      DN1      DRUD    -2.530300        0.4000           0   0.00000   0.00000
     10068 IM1      227      IM1      C2       CD2R5A   2.511900       11.6110           0   -1.37800   1.30000
     10069 IM1      227      IM1      DC2      DRUD    -2.880900        0.4000           0   0.00000   0.00000
     10070 IM1      227      IM1      H4       HDR5A    0.150000        1.0080           0   0.00000   0.00000
     10071 IM1      227      IM1      C3       CD2R5A   3.068900       11.6110           0   -1.37800   1.30000
     10072 IM1      227      IM1      DC3      DRUD    -2.880900        0.4000           0   0.00000   0.00000
     10073 IM1      227      IM1      H5       HDR5A    0.053000        1.0080           0   0.00000   0.00000
     10074 IM1      227      IM1      C4       CD2R5B   2.404400       11.6110           0   -0.868000   1.30000
     10075 IM1      227      IM1      DC4      DRUD    -2.286400        0.4000           0   0.00000   0.00000
     10076 IM1      227      IM1      H6       HDR5B    0.073000        1.0080           0   0.00000   0.00000
     10077 IM1      227      IM1      N2       ND2R5B   2.249300       13.6070           0   -0.840000   1.00000
     10078 IM1      227      IM1      DN2      DRUD    -2.249300        0.4000           0   0.00000   0.00000
     10079 IM1      227      IM1      H7       HDP1A    0.000000        1.0080           0   0.00000   0.00000
     10080 IM1      227      IM1      LPN21    LPD     -0.474000        0.0000           -1   0.00000   0.00000
     10081 IM1      228      IM1      C1       CD33G    2.390600       11.6110           0   -1.08100   1.00000
     10082 IM1      228      IM1      DC1      DRUD    -2.551600        0.4000           0   0.00000   0.00000
     10083 IM1      228      IM1      H1       HDA3A    0.094000        1.0080           0   0.00000   0.00000
     10084 IM1      228      IM1      H2       HDA3A    0.094000        1.0080           0   0.00000   0.00000
     10085 IM1      228      IM1      H3       HDA3A    0.094000        1.0080           0   0.00000   0.00000
     10086 IM1      228      IM1      N1       ND2R5A   2.670300       13.6070           0   -1.06300   1.30000
     10087 IM1      228      IM1      DN1      DRUD    -2.530300        0.4000           0   0.00000   0.00000
     10088 IM1      228      IM1      C2       CD2R5A   2.511900       11.6110           0   -1.37800   1.30000
     10089 IM1      228      IM1      DC2      DRUD    -2.880900        0.4000           0   0.00000   0.00000
     10090 IM1      228      IM1      H4       HDR5A    0.150000        1.0080           0   0.00000   0.00000
     10091 IM1      228      IM1      C3       CD2R5A   3.068900       11.6110           0   -1.37800   1.30000
     10092 IM1      228      IM1      DC3      DRUD    -2.880900        0.4000           0   0.00000   0.00000
     10093 IM1      228      IM1      H5       HDR5A    0.053000        1.0080           0   0.00000   0.00000
     10094 IM1      228      IM1      C4       CD2R5B   2.404400       11.6110           0   -0.868000   1.30000
     10095 IM1      228      IM1      DC4      DRUD    -2.286400        0.4000           0   0.00000   0.00000
     10096 IM1      228      IM1      H6       HDR5B    0.073000        1.0080           0   0.00000   0.00000
     10097 IM1      228      IM1      N2       ND2R5B   2.249300       13.6070           0   -0.840000   1.00000
     10098 IM1      228      IM1      DN2      DRUD    -2.249300        0.4000           0   0.00000   0.00000
     10099 IM1      228      IM1      H7       HDP1A    0.000000        1.0080           0   0.00000   0.00000
     10100 IM1      228      IM1      LPN21    LPD     -0.474000        0.0000           -1   0.00000   0.00000
     10101 IM1      229      IM1      C1       CD33G    2.390600       11.6110           0   -1.08100   1.00000
     10102 IM1      229      IM1      DC1      DRUD    -2.551600        0.4000           0   0.00000   0.00000
     10103 IM1      229      IM1      H1       HDA3A    0.094000        1.0080           0   0.00000   0.00000
     10104 IM1      229      IM1      H2       HDA3A    0.094000        1.0080           0   0.00000   0.00000
     10105 IM1      229      IM1      H3       HDA3A    0.094000        1.0080           0   0.00000   0.00000
     10106 IM1      229      IM1      N1       ND2R5A   2.670300       13.6070           0   -1.06300   1.30000
     10107 IM1      229      IM1      DN1      DRUD    -2.530300        0.4000           0   0.00000   0.00000
     10108 IM1      229      IM1      C2       CD2R5A   2.511900       11.6110           0   -1.37800   1.30000
     10109 IM1      229      IM1      DC2      DRUD    -2.880900        0.4000           0   0.00000   0.00000
     10110 IM1      229      IM1      H4       HDR5A    0.150000        1.0080           0   0.00000   0.00000
     10111 IM1      229      IM1      C3       CD2R5A   3.068900       11.6110           0   -1.37800   1.30000
     10112 IM1      229      IM1      DC3      DRUD    -2.880900        0.4000           0   0.00000   0.00000
     10113 IM1      229      IM1      H5       HDR5A    0.053000        1.0080           0   0.00000   0.00000
     10114 IM1      229      IM1      C4       CD2R5B   2.404400       11.6110           0   -0.868000   1.30000
     10115 IM1      229      IM1      DC4      DRUD    -2.286400        0.4000           0   0.00000   0.00000
     10116 IM1      229      IM1      H6       HDR5B    0.073000        1.0080           0   0.00000   0.00000
     10117 IM1      229      IM1      N2       ND2R5B   2.249300       13.6070           0   -0.840000   1.00000
     10118 IM1      229      IM1      DN2      DRUD    -2.249300        0.4000           0   0.00000   0.00000
     10119 IM1      229      IM1      H7       HDP1A    0.000000        1.0080           0   0.00000   0.00000
     10120 IM1      229      IM1      LPN21    LPD     -0.474000        0.0000           -1   0.00000   0.00000
     10121 IM1      230      IM1      C1       CD33G    2.390600       11.6110           0   -1.08100   1.00000
     10122 IM1      230      IM1      DC1      DRUD    -2.551600        0.4000           0   0.00000   0.00000
     10123 IM1      230      IM1      H1       HDA3A    0.094000        1.0080           0   0.00000   0.00000
     10124 IM1      230      IM1      H2       HDA3A    0.094000        1.0080           0   0.00000   0.00000
     10125 IM1      230      IM1      H3       HDA3A    0.094000        1.0080           0   0.00000   0.00000
     10126 IM1      230      IM1      N1       ND2R5A   2.670300       13.6070           0   -1.06300   1.30000
     10127 IM1      230      IM1      DN1      DRUD    -2.530300        0.4000           0   0.00000   0.00000
     10128 IM1      230      IM1      C2       CD2R5A   2.511900       11.6110           0   -1.37800   1.30000
     10129 IM1      230      IM1      DC2      DRUD    -2.880900        0.4000           0   0.00000   0.00000
     10130 IM1      230      IM1      H4       HDR5A    0.150000        1.0080           0   0.00000   0.00000
     10131 IM1      230      IM1      C3       CD2R5A   3.068900       11.6110           0   -1.37800   1.30000
     10132 IM1      230      IM1      DC3      DRUD    -2.880900        0.4000           0   0.00000   0.00000
     10133 IM1      230      IM1      H5       HDR5A    0.053000        1.0080           0   0.00000   0.00000
     10134 IM1      230      IM1      C4       CD2R5B   2.404400       11.6110           0   -0.868000   1.30000
     10135 IM1      230      IM1      DC4      DRUD    -2.286400        0.4000           0   0.00000   0.00000
     10136 IM1      230      IM1      H6       HDR5B    0.073000        1.0080           0   0.00000   0.00000
     10137 IM1      230      IM1      N2       ND2R5B   2.249300       13.6070           0   -0.840000   1.00000
     10138 IM1      230      IM1      DN2      DRUD    -2.249300        0.4000           0   0.00000   0.00000
     10139 IM1      230      IM1      H7       HDP1A    0.000000        1.0080           0   0.00000   0.00000
     10140 IM1      230      IM1      LPN21    LPD     -0.474000        0.0000           -1   0.00000   0.00000
     10141 IM1      231      IM1      C1       CD33G    2.390600       11.6110           0   -1.08100   1.00000
     10142 IM1      231      IM1      DC1      DRUD    -2.551600        0.4000           0   0.00000   0.00000
     10143 IM1      231      IM1      H1       HDA3A    0.094000        1.0080           0   0.00000   0.00000
     10144 IM1      231      IM1      H2       HDA3A    0.094000        1.0080           0   0.00000   0.00000
     10145 IM1      231      IM1      H3       HDA3A    0.094000        1.0080           0   0.00000   0.00000
     10146 IM1      231      IM1      N1       ND2R5A   2.670300       13.6070           0   -1.06300   1.30000
     10147 IM1      231      IM1      DN1      DRUD    -2.530300        0.4000           0   0.00000   0.00000
     10148 IM1      231      IM1      C2       CD2R5A   2.511900       11.6110           0   -1.37800   1.30000
     10149 IM1      231      IM1      DC2      DRUD    -2.880900        0.4000           0   0.00000   0.00000
     10150 IM1      231      IM1      H4       HDR5A    0.150000        1.0080           0   0.00000   0.00000
     10151 IM1      231      IM1      C3       CD2R5A   3.068900       11.6110           0   -1.37800   1.30000
     10152 IM1      231      IM1      DC3      DRUD    -2.880900        0.4000           0   0.00000   0.00000
     10153 IM1      231      IM1      H5       HDR5A    0.053000        1.0080           0   0.00000   0.00000
     10154 IM1      231      IM1      C4       CD2R5B   2.404400       11.6110           0   -0.868000   1.30000
     10155 IM1      231      IM1      DC4      DRUD    -2.286400        0.4000           0   0.00000   0.00000
     10156 IM1      231      IM1      H6       HDR5B    0.073000        1.0080           0   0.00000   0.00000
     10157 IM1      231      IM1      N2       ND2R5B   2.249300       13.6070           0   -0.840000   1.00000
     10158 IM1      231      IM1      DN2      DRUD    -2.249300        0.4000           0   0.00000   0.00000
     10159 IM1      231      IM1      H7       HDP1A    0.000000        1.0080           0   0.00000   0.00000
     10160 IM1      231      IM1      LPN21    LPD     -0.474000        0.0000           -1   0.00000   0.00000
     10161 IM1      232      IM1      C1       CD33G    2.390600       11.6110           0   -1.08100   1.00000
     10162 IM1      232      IM1      DC1      DRUD    -2.551600        0.4000           0   0.00000   0.00000
     10163 IM1      232      IM1      H1       HDA3A    0.094000        1.0080           0   0.00000   0.00000
     10164 IM1      232      IM1      H2       HDA3A    0.094000        1.0080           0   0.00000   0.00000
     10165 IM1      232      IM1      H3       HDA3A    0.094000        1.0080           0   0.00000   0.00000
     10166 IM1      232      IM1      N1       ND2R5A   2.670300       13.6070           0   -1.06300   1.30000
     10167 IM1      232      IM1      DN1      DRUD    -2.530300        0.4000           0   0.00000   0.00000
     10168 IM1      232      IM1      C2       CD2R5A   2.511900       11.6110           0   -1.37800   1.30000
     10169 IM1      232      IM1      DC2      DRUD    -2.880900        0.4000           0   0.00000   0.00000
     10170 IM1      232      IM1      H4       HDR5A    0.150000        1.0080           0   0.00000   0.00000
     10171 IM1      232      IM1      C3       CD2R5A   3.068900       11.6110           0   -1.37800   1.30000
     10172 IM1      232      IM1      DC3      DRUD    -2.880900        0.4000           0   0.00000   0.00000
     10173 IM1      232      IM1      H5       HDR5A    0.053000        1.0080           0   0.00000   0.00000
     10174 IM1      232      IM1      C4       CD2R5B   2.404400       11.6110           0   -0.868000   1.30000
     10175 IM1      232      IM1      DC4      DRUD    -2.286400        0.4000           0   0.00000   0.00000
     10176 IM1      232      IM1      H6       HDR5B    0.073000        1.0080           0   0.00000   0.00000
     10177 IM1      232      IM1      N2       ND2R5B   2.249300       13.6070           0   -0.840000   1.00000
     10178 IM1      232      IM1      DN2      DRUD    -2.249300        0.4000           0   0.00000   0.00000
     10179 IM1      232      IM1      H7       HDP1A    0.000000        1.0080           0   0.00000   0.00000
     10180 IM1      232      IM1      LPN21    LPD     -0.474000        0.0000           -1   0.00000   0.00000
     10181 IM1      233      IM1      C1       CD33G    2.390600       11.6110           0   -1.08100   1.00000
     10182 IM1      233      IM1      DC1      DRUD    -2.551600        0.4000           0   0.00000   0.00000
     10183 IM1      233      IM1      H1       HDA3A    0.094000        1.0080           0   0.00000   0.00000
     10184 IM1      233      IM1      H2       HDA3A    0.094000        1.0080           0   0.00000   0.00000
     10185 IM1      233      IM1      H3       HDA3A    0.094000        1.0080           0   0.00000   0.00000
     10186 IM1      233      IM1      N1       ND2R5A   2.670300       13.6070           0   -1.06300   1.30000
     10187 IM1      233      IM1      DN1      DRUD    -2.530300        0.4000           0   0.00000   0.00000
     10188 IM1      233      IM1      C2       CD2R5A   2.511900       11.6110           0   -1.37800   1.30000
     10189 IM1      233      IM1      DC2      DRUD    -2.880900        0.4000           0   0.00000   0.00000
     10190 IM1      233      IM1      H4       HDR5A    0.150000        1.0080           0   0.00000   0.00000
     10191 IM1      233      IM1      C3       CD2R5A   3.068900       11.6110           0   -1.37800   1.30000
     10192 IM1      233      IM1      DC3      DRUD    -2.880900        0.4000           0   0.00000   0.00000
     10193 IM1      233      IM1      H5       HDR5A    0.053000        1.0080           0   0.00000   0.00000
     10194 IM1      233      IM1      C4       CD2R5B   2.404400       11.6110           0   -0.868000   1.30000
     10195 IM1      233      IM1      DC4      DRUD    -2.286400        0.4000           0   0.00000   0.00000
     10196 IM1      233      IM1      H6       HDR5B    0.073000        1.0080           0   0.00000   0.00000
     10197 IM1      233      IM1      N2       ND2R5B   2.249300       13.6070           0   -0.840000   1.00000
     10198 IM1      233      IM1      DN2      DRUD    -2.249300        0.4000           0   0.00000   0.00000
     10199 IM1      233      IM1      H7       HDP1A    0.000000        1.0080           0   0.00000   0.00000
     10200 IM1      233      IM1      LPN21    LPD     -0.474000        0.0000           -1   0.00000   0.00000
     10201 IM1      234      IM1      C1       CD33G    2.390600       11.6110           0   -1.08100   1.00000
     10202 IM1      234      IM1      DC1      DRUD    -2.551600        0.4000           0   0.00000   0.00000
     10203 IM1      234      IM1      H1       HDA3A    0.094000        1.0080           0   0.00000   0.00000
     10204 IM1      234      IM1      H2       HDA3A    0.094000        1.0080           0   0.00000   0.00000
     10205 IM1      234      IM1      H3       HDA3A    0.094000        1.0080           0   0.00000   0.00000
     10206 IM1      234      IM1      N1       ND2R5A   2.670300       13.6070           0   -1.06300   1.30000
     10207 IM1      234      IM1      DN1      DRUD    -2.530300        0.4000           0   0.00000   0.00000
     10208 IM1      234      IM1      C2       CD2R5A   2.511900       11.6110           0   -1.37800   1.30000
     10209 IM1      234      IM1      DC2      DRUD    -2.880900        0.4000           0   0.00000   0.00000
     10210 IM1      234      IM1      H4       HDR5A    0.150000        1.0080           0   0.00000   0.00000
     10211 IM1      234      IM1      C3       CD2R5A   3.068900       11.6110           0   -1.37800   1.30000
     10212 IM1      234      IM1      DC3      DRUD    -2.880900        0.4000           0   0.00000   0.00000
     10213 IM1      234      IM1      H5       HDR5A    0.053000        1.0080           0   0.00000   0.00000
     10214 IM1      234      IM1      C4       CD2R5B   2.404400       11.6110           0   -0.868000   1.30000
     10215 IM1      234      IM1      DC4      DRUD    -2.286400        0.4000           0   0.00000   0.00000
     10216 IM1      234      IM1      H6       HDR5B    0.073000        1.0080           0   0.00000   0.00000
     10217 IM1      234      IM1      N2       ND2R5B   2.249300       13.6070           0   -0.840000   1.00000
     10218 IM1      234      IM1      DN2      DRUD    -2.249300        0.4000           0   0.00000   0.00000
     10219 IM1      234      IM1      H7       HDP1A    0.000000        1.0080           0   0.00000   0.00000
     10220 IM1      234      IM1      LPN21    LPD     -0.474000        0.0000           -1   0.00000   0.00000
     10221 IM1      235      IM1      C1       CD33G    2.390600       11.6110           0   -1.08100   1.00000
     10222 IM1      235      IM1      DC1      DRUD    -2.551600        0.4000           0   0.00000   0.00000
     10223 IM1      235      IM1      H1       HDA3A    0.094000        1.0080           0   0.00000   0.00000
     10224 IM1      235      IM1      H2       HDA3A    0.094000        1.0080           0   0.00000   0.00000
     10225 IM1      235      IM1      H3       HDA3A    0.094000        1.0080           0   0.00000   0.00000
     10226 IM1      235      IM1      N1       ND2R5A   2.670300       13.6070           0   -1.06300   1.30000
     10227 IM1      235      IM1      DN1      DRUD    -2.530300        0.4000           0   0.00000   0.00000
     10228 IM1      235      IM1      C2       CD2R5A   2.511900       11.6110           0   -1.37800   1.30000
     10229 IM1      235      IM1      DC2      DRUD    -2.880900        0.4000           0   0.00000   0.00000
     10230 IM1      235      IM1      H4       HDR5A    0.150000        1.0080           0   0.00000   0.00000
     10231 IM1      235      IM1      C3       CD2R5A   3.068900       11.6110           0   -1.37800   1.30000
     10232 IM1      235      IM1      DC3      DRUD    -2.880900        0.4000           0   0.00000   0.00000
     10233 IM1      235      IM1      H5       HDR5A    0.053000        1.0080           0   0.00000   0.00000
     10234 IM1      235      IM1      C4       CD2R5B   2.404400       11.6110           0   -0.868000   1.30000
     10235 IM1      235      IM1      DC4      DRUD    -2.286400        0.4000           0   0.00000   0.00000
     10236 IM1      235      IM1      H6       HDR5B    0.073000        1.0080           0   0.00000   0.00000
     10237 IM1      235      IM1      N2       ND2R5B   2.249300       13.6070           0   -0.840000   1.00000
     10238 IM1      235      IM1      DN2      DRUD    -2.249300        0.4000           0   0.00000   0.00000
     10239 IM1      235      IM1      H7       HDP1A    0.000000        1.0080           0   0.00000   0.00000
     10240 IM1      235      IM1      LPN21    LPD     -0.474000        0.0000           -1   0.00000   0.00000
     10241 IM1      236      IM1      C1       CD33G    2.390600       11.6110           0   -1.08100   1.00000
     10242 IM1      236      IM1      DC1      DRUD    -2.551600        0.4000           0   0.00000   0.00000
     10243 IM1      236      IM1      H1       HDA3A    0.094000        1.0080           0   0.00000   0.00000
     10244 IM1      236      IM1      H2       HDA3A    0.094000        1.0080           0   0.00000   0.00000
     10245 IM1      236      IM1      H3       HDA3A    0.094000        1.0080           0   0.00000   0.00000
     10246 IM1      236      IM1      N1       ND2R5A   2.670300       13.6070           0   -1.06300   1.30000
     10247 IM1      236      IM1      DN1      DRUD    -2.530300        0.4000           0   0.00000   0.00000
     10248 IM1      236      IM1      C2       CD2R5A   2.511900       11.6110           0   -1.37800   1.30000
     10249 IM1      236      IM1      DC2      DRUD    -2.880900        0.4000           0   0.00000   0.00000
     10250 IM1      236      IM1      H4       HDR5A    0.150000        1.0080           0   0.00000   0.00000
     10251 IM1      236      IM1      C3       CD2R5A   3.068900       11.6110           0   -1.37800   1.30000
     10252 IM1      236      IM1      DC3      DRUD    -2.880900        0.4000           0   0.00000   0.00000
     10253 IM1      236      IM1      H5       HDR5A    0.053000        1.0080           0   0.00000   0.00000
     10254 IM1      236      IM1      C4       CD2R5B   2.404400       11.6110           0   -0.868000   1.30000
     10255 IM1      236      IM1      DC4      DRUD    -2.286400        0.4000           0   0.00000   0.00000
     10256 IM1      236      IM1      H6       HDR5B    0.073000        1.0080           0   0.00000   0.00000
     10257 IM1      236      IM1      N2       ND2R5B   2.249300       13.6070           0   -0.840000   1.00000
     10258 IM1      236      IM1      DN2      DRUD    -2.249300        0.4000           0   0.00000   0.00000
     10259 IM1      236      IM1      H7       HDP1A    0.000000        1.0080           0   0.00000   0.00000
     10260 IM1      236      IM1      LPN21    LPD     -0.474000        0.0000           -1   0.00000   0.00000
     10261 IM1      237      IM1      C1       CD33G    2.390600       11.6110           0   -1.08100   1.00000
     10262 IM1      237      IM1      DC1      DRUD    -2.551600        0.4000           0   0.00000   0.00000
     10263 IM1      237      IM1      H1       HDA3A    0.094000        1.0080           0   0.00000   0.00000
     10264 IM1      237      IM1      H2       HDA3A    0.094000        1.0080           0   0.00000   0.00000
     10265 IM1      237      IM1      H3       HDA3A    0.094000        1.0080           0   0.00000   0.00000
     10266 IM1      237      IM1      N1       ND2R5A   2.670300       13.6070           0   -1.06300   1.30000
     10267 IM1      237      IM1      DN1      DRUD    -2.530300        0.4000           0   0.00000   0.00000
     10268 IM1      237      IM1      C2       CD2R5A   2.511900       11.6110           0   -1.37800   1.30000
     10269 IM1      237      IM1      DC2      DRUD    -2.880900        0.4000           0   0.00000   0.00000
     10270 IM1      237      IM1      H4       HDR5A    0.150000        1.0080           0   0.00000   0.00000
     10271 IM1      237      IM1      C3       CD2R5A   3.068900       11.6110           0   -1.37800   1.30000
     10272 IM1      237      IM1      DC3      DRUD    -2.880900        0.4000           0   0.00000   0.00000
     10273 IM1      237      IM1      H5       HDR5A    0.053000        1.0080           0   0.00000   0.00000
     10274 IM1      237      IM1      C4       CD2R5B   2.404400       11.6110           0   -0.868000   1.30000
     10275 IM1      237      IM1      DC4      DRUD    -2.286400        0.4000           0   0.00000   0.00000
     10276 IM1      237      IM1      H6       HDR5B    0.073000        1.0080           0   0.00000   0.00000
     10277 IM1      237      IM1      N2       ND2R5B   2.249300       13.6070           0   -0.840000   1.00000
     10278 IM1      237      IM1      DN2      DRUD    -2.249300        0.4000           0   0.00000   0.00000
     10279 IM1      237      IM1      H7       HDP1A    0.000000        1.0080           0   0.00000   0.00000
     10280 IM1      237      IM1      LPN21    LPD     -0.474000        0.0000           -1   0.00000   0.00000
     10281 IM1      238      IM1      C1       CD33G    2.390600       11.6110           0   -1.08100   1.00000
     10282 IM1      238      IM1      DC1      DRUD    -2.551600        0.4000           0   0.00000   0.00000
     10283 IM1      238      IM1      H1       HDA3A    0.094000        1.0080           0   0.00000   0.00000
     10284 IM1      238      IM1      H2       HDA3A    0.094000        1.0080           0   0.00000   0.00000
     10285 IM1      238      IM1      H3       HDA3A    0.094000        1.0080           0   0.00000   0.00000
     10286 IM1      238      IM1      N1       ND2R5A   2.670300       13.6070           0   -1.06300   1.30000
     10287 IM1      238      IM1      DN1      DRUD    -2.530300        0.4000           0   0.00000   0.00000
     10288 IM1      238      IM1      C2       CD2R5A   2.511900       11.6110           0   -1.37800   1.30000
     10289 IM1      238      IM1      DC2      DRUD    -2.880900        0.4000           0   0.00000   0.00000
     10290 IM1      238      IM1      H4       HDR5A    0.150000        1.0080           0   0.00000   0.00000
     10291 IM1      238      IM1      C3       CD2R5A   3.068900       11.6110           0   -1.37800   1.30000
     10292 IM1      238      IM1      DC3      DRUD    -2.880900        0.4000           0   0.00000   0.00000
     10293 IM1      238      IM1      H5       HDR5A    0.053000        1.0080           0   0.00000   0.00000
     10294 IM1      238      IM1      C4       CD2R5B   2.404400       11.6110           0   -0.868000   1.30000
     10295 IM1      238      IM1      DC4      DRUD    -2.286400        0.4000           0   0.00000   0.00000
     10296 IM1      238      IM1      H6       HDR5B    0.073000        1.0080           0   0.00000   0.00000
     10297 IM1      238      IM1      N2       ND2R5B   2.249300       13.6070           0   -0.840000   1.00000
     10298 IM1      238      IM1      DN2      DRUD    -2.249300        0.4000           0   0.00000   0.00000
     10299 IM1      238      IM1      H7       HDP1A    0.000000        1.0080           0   0.00000   0.00000
     10300 IM1      238      IM1      LPN21    LPD     -0.474000        0.0000           -1   0.00000   0.00000
     10301 IM1      239      IM1      C1       CD33G    2.390600       11.6110           0   -1.08100   1.00000
     10302 IM1      239      IM1      DC1      DRUD    -2.551600        0.4000           0   0.00000   0.00000
     10303 IM1      239      IM1      H1       HDA3A    0.094000        1.0080           0   0.00000   0.00000
     10304 IM1      239      IM1      H2       HDA3A    0.094000        1.0080           0   0.00000   0.00000
     10305 IM1      239      IM1      H3       HDA3A    0.094000        1.0080           0   0.00000   0.00000
     10306 IM1      239      IM1      N1       ND2R5A   2.670300       13.6070           0   -1.06300   1.30000
     10307 IM1      239      IM1      DN1      DRUD    -2.530300        0.4000           0   0.00000   0.00000
     10308 IM1      239      IM1      C2       CD2R5A   2.511900       11.6110           0   -1.37800   1.30000
     10309 IM1      239      IM1      DC2      DRUD    -2.880900        0.4000           0   0.00000   0.00000
     10310 IM1      239      IM1      H4       HDR5A    0.150000        1.0080           0   0.00000   0.00000
     10311 IM1      239      IM1      C3       CD2R5A   3.068900       11.6110           0   -1.37800   1.30000
     10312 IM1      239      IM1      DC3      DRUD    -2.880900        0.4000           0   0.00000   0.00000
     10313 IM1      239      IM1      H5       HDR5A    0.053000        1.0080           0   0.00000   0.00000
     10314 IM1      239      IM1      C4       CD2R5B   2.404400       11.6110           0   -0.868000   1.30000
     10315 IM1      239      IM1      DC4      DRUD    -2.286400        0.4000           0   0.00000   0.00000
     10316 IM1      239      IM1      H6       HDR5B    0.073000        1.0080           0   0.00000   0.00000
     10317 IM1      239      IM1      N2       ND2R5B   2.249300       13.6070           0   -0.840000   1.00000
     10318 IM1      239      IM1      DN2      DRUD    -2.249300        0.4000           0   0.00000   0.00000
     10319 IM1      239      IM1      H7       HDP1A    0.000000        1.0080           0   0.00000   0.00000
     10320 IM1      239      IM1      LPN21    LPD     -0.474000        0.0000           -1   0.00000   0.00000
     10321 IM1      240      IM1      C1       CD33G    2.390600       11.6110           0   -1.08100   1.00000
     10322 IM1      240      IM1      DC1      DRUD    -2.551600        0.4000           0   0.00000   0.00000
     10323 IM1      240      IM1      H1       HDA3A    0.094000        1.0080           0   0.00000   0.00000
     10324 IM1      240      IM1      H2       HDA3A    0.094000        1.0080           0   0.00000   0.00000
     10325 IM1      240      IM1      H3       HDA3A    0.094000        1.0080           0   0.00000   0.00000
     10326 IM1      240      IM1      N1       ND2R5A   2.670300       13.6070           0   -1.06300   1.30000
     10327 IM1      240      IM1      DN1      DRUD    -2.530300        0.4000           0   0.00000   0.00000
     10328 IM1      240      IM1      C2       CD2R5A   2.511900       11.6110           0   -1.37800   1.30000
     10329 IM1      240      IM1      DC2      DRUD    -2.880900        0.4000           0   0.00000   0.00000
     10330 IM1      240      IM1      H4       HDR5A    0.150000        1.0080           0   0.00000   0.00000
     10331 IM1      240      IM1      C3       CD2R5A   3.068900       11.6110           0   -1.37800   1.30000
     10332 IM1      240      IM1      DC3      DRUD    -2.880900        0.4000           0   0.00000   0.00000
     10333 IM1      240      IM1      H5       HDR5A    0.053000        1.0080           0   0.00000   0.00000
     10334 IM1      240      IM1      C4       CD2R5B   2.404400       11.6110           0   -0.868000   1.30000
     10335 IM1      240      IM1      DC4      DRUD    -2.286400        0.4000           0   0.00000   0.00000
     10336 IM1      240      IM1      H6       HDR5B    0.073000        1.0080           0   0.00000   0.00000
     10337 IM1      240      IM1      N2       ND2R5B   2.249300       13.6070           0   -0.840000   1.00000
     10338 IM1      240      IM1      DN2      DRUD    -2.249300        0.4000           0   0.00000   0.00000
     10339 IM1      240      IM1      H7       HDP1A    0.000000        1.0080           0   0.00000   0.00000
     10340 IM1      240      IM1      LPN21    LPD     -0.474000        0.0000           -1   0.00000   0.00000
     10341 IM1      241      IM1      C1       CD33G    2.390600       11.6110           0   -1.08100   1.00000
     10342 IM1      241      IM1      DC1      DRUD    -2.551600        0.4000           0   0.00000   0.00000
     10343 IM1      241      IM1      H1       HDA3A    0.094000        1.0080           0   0.00000   0.00000
     10344 IM1      241      IM1      H2       HDA3A    0.094000        1.0080           0   0.00000   0.00000
     10345 IM1      241      IM1      H3       HDA3A    0.094000        1.0080           0   0.00000   0.00000
     10346 IM1      241      IM1      N1       ND2R5A   2.670300       13.6070           0   -1.06300   1.30000
     10347 IM1      241      IM1      DN1      DRUD    -2.530300        0.4000           0   0.00000   0.00000
     10348 IM1      241      IM1      C2       CD2R5A   2.511900       11.6110           0   -1.37800   1.30000
     10349 IM1      241      IM1      DC2      DRUD    -2.880900        0.4000           0   0.00000   0.00000
     10350 IM1      241      IM1      H4       HDR5A    0.150000        1.0080           0   0.00000   0.00000
     10351 IM1      241      IM1      C3       CD2R5A   3.068900       11.6110           0   -1.37800   1.30000
     10352 IM1      241      IM1      DC3      DRUD    -2.880900        0.4000           0   0.00000   0.00000
     10353 IM1      241      IM1      H5       HDR5A    0.053000        1.0080           0   0.00000   0.00000
     10354 IM1      241      IM1      C4       CD2R5B   2.404400       11.6110           0   -0.868000   1.30000
     10355 IM1      241      IM1      DC4      DRUD    -2.286400        0.4000           0   0.00000   0.00000
     10356 IM1      241      IM1      H6       HDR5B    0.073000        1.0080           0   0.00000   0.00000
     10357 IM1      241      IM1      N2       ND2R5B   2.249300       13.6070           0   -0.840000   1.00000
     10358 IM1      241      IM1      DN2      DRUD    -2.249300        0.4000           0   0.00000   0.00000
     10359 IM1      241      IM1      H7       HDP1A    0.000000        1.0080           0   0.00000   0.00000
     10360 IM1      241      IM1      LPN21    LPD     -0.474000        0.0000           -1   0.00000   0.00000
     10361 IM1      242      IM1      C1       CD33G    2.390600       11.6110           0   -1.08100   1.00000
     10362 IM1      242      IM1      DC1      DRUD    -2.551600        0.4000           0   0.00000   0.00000
     10363 IM1      242      IM1      H1       HDA3A    0.094000        1.0080           0   0.00000   0.00000
     10364 IM1      242      IM1      H2       HDA3A    0.094000        1.0080           0   0.00000   0.00000
     10365 IM1      242      IM1      H3       HDA3A    0.094000        1.0080           0   0.00000   0.00000
     10366 IM1      242      IM1      N1       ND2R5A   2.670300       13.6070           0   -1.06300   1.30000
     10367 IM1      242      IM1      DN1      DRUD    -2.530300        0.4000           0   0.00000   0.00000
     10368 IM1      242      IM1      C2       CD2R5A   2.511900       11.6110           0   -1.37800   1.30000
     10369 IM1      242      IM1      DC2      DRUD    -2.880900        0.4000           0   0.00000   0.00000
     10370 IM1      242      IM1      H4       HDR5A    0.150000        1.0080           0   0.00000   0.00000
     10371 IM1      242      IM1      C3       CD2R5A   3.068900       11.6110           0   -1.37800   1.30000
     10372 IM1      242      IM1      DC3      DRUD    -2.880900        0.4000           0   0.00000   0.00000
     10373 IM1      242      IM1      H5       HDR5A    0.053000        1.0080           0   0.00000   0.00000
     10374 IM1      242      IM1      C4       CD2R5B   2.404400       11.6110           0   -0.868000   1.30000
     10375 IM1      242      IM1      DC4      DRUD    -2.286400        0.4000           0   0.00000   0.00000
     10376 IM1      242      IM1      H6       HDR5B    0.073000        1.0080           0   0.00000   0.00000
     10377 IM1      242      IM1      N2       ND2R5B   2.249300       13.6070           0   -0.840000   1.00000
     10378 IM1      242      IM1      DN2      DRUD    -2.249300        0.4000           0   0.00000   0.00000
     10379 IM1      242      IM1      H7       HDP1A    0.000000        1.0080           0   0.00000   0.00000
     10380 IM1      242      IM1      LPN21    LPD     -0.474000        0.0000           -1   0.00000   0.00000
     10381 IM1      243      IM1      C1       CD33G    2.390600       11.6110           0   -1.08100   1.00000
     10382 IM1      243      IM1      DC1      DRUD    -2.551600        0.4000           0   0.00000   0.00000
     10383 IM1      243      IM1      H1       HDA3A    0.094000        1.0080           0   0.00000   0.00000
     10384 IM1      243      IM1      H2       HDA3A    0.094000        1.0080           0   0.00000   0.00000
     10385 IM1      243      IM1      H3       HDA3A    0.094000        1.0080           0   0.00000   0.00000
     10386 IM1      243      IM1      N1       ND2R5A   2.670300       13.6070           0   -1.06300   1.30000
     10387 IM1      243      IM1      DN1      DRUD    -2.530300        0.4000           0   0.00000   0.00000
     10388 IM1      243      IM1      C2       CD2R5A   2.511900       11.6110           0   -1.37800   1.30000
     10389 IM1      243      IM1      DC2      DRUD    -2.880900        0.4000           0   0.00000   0.00000
     10390 IM1      243      IM1      H4       HDR5A    0.150000        1.0080           0   0.00000   0.00000
     10391 IM1      243      IM1      C3       CD2R5A   3.068900       11.6110           0   -1.37800   1.30000
     10392 IM1      243      IM1      DC3      DRUD    -2.880900        0.4000           0   0.00000   0.00000
     10393 IM1      243      IM1      H5       HDR5A    0.053000        1.0080           0   0.00000   0.00000
     10394 IM1      243      IM1      C4       CD2R5B   2.404400       11.6110           0   -0.868000   1.30000
     10395 IM1      243      IM1      DC4      DRUD    -2.286400        0.4000           0   0.00000   0.00000
     10396 IM1      243      IM1      H6       HDR5B    0.073000        1.0080           0   0.00000   0.00000
     10397 IM1      243      IM1      N2       ND2R5B   2.249300       13.6070           0   -0.840000   1.00000
     10398 IM1      243      IM1      DN2      DRUD    -2.249300        0.4000           0   0.00000   0.00000
     10399 IM1      243      IM1      H7       HDP1A    0.000000        1.0080           0   0.00000   0.00000
     10400 IM1      243      IM1      LPN21    LPD     -0.474000        0.0000           -1   0.00000   0.00000
     10401 IM1      244      IM1      C1       CD33G    2.390600       11.6110           0   -1.08100   1.00000
     10402 IM1      244      IM1      DC1      DRUD    -2.551600        0.4000           0   0.00000   0.00000
     10403 IM1      244      IM1      H1       HDA3A    0.094000        1.0080           0   0.00000   0.00000
     10404 IM1      244      IM1      H2       HDA3A    0.094000        1.0080           0   0.00000   0.00000
     10405 IM1      244      IM1      H3       HDA3A    0.094000        1.0080           0   0.00000   0.00000
     10406 IM1      244      IM1      N1       ND2R5A   2.670300       13.6070           0   -1.06300   1.30000
     10407 IM1      244      IM1      DN1      DRUD    -2.530300        0.4000           0   0.00000   0.00000
     10408 IM1      244      IM1      C2       CD2R5A   2.511900       11.6110           0   -1.37800   1.30000
     10409 IM1      244      IM1      DC2      DRUD    -2.880900        0.4000           0   0.00000   0.00000
     10410 IM1      244      IM1      H4       HDR5A    0.150000        1.0080           0   0.00000   0.00000
     10411 IM1      244      IM1      C3       CD2R5A   3.068900       11.6110           0   -1.37800   1.30000
     10412 IM1      244      IM1      DC3      DRUD    -2.880900        0.4000           0   0.00000   0.00000
     10413 IM1      244      IM1      H5       HDR5A    0.053000        1.0080           0   0.00000   0.00000
     10414 IM1      244      IM1      C4       CD2R5B   2.404400       11.6110           0   -0.868000   1.30000
     10415 IM1      244      IM1      DC4      DRUD    -2.286400        0.4000           0   0.00000   0.00000
     10416 IM1      244      IM1      H6       HDR5B    0.073000        1.0080           0   0.00000   0.00000
     10417 IM1      244      IM1      N2       ND2R5B   2.249300       13.6070           0   -0.840000   1.00000
     10418 IM1      244      IM1      DN2      DRUD    -2.249300        0.4000           0   0.00000   0.00000
     10419 IM1      244      IM1      H7       HDP1A    0.000000        1.0080           0   0.00000   0.00000
     10420 IM1      244      IM1      LPN21    LPD     -0.474000        0.0000           -1   0.00000   0.00000
     10421 IM1      245      IM1      C1       CD33G    2.390600       11.6110           0   -1.08100   1.00000
     10422 IM1      245      IM1      DC1      DRUD    -2.551600        0.4000           0   0.00000   0.00000
     10423 IM1      245      IM1      H1       HDA3A    0.094000        1.0080           0   0.00000   0.00000
     10424 IM1      245      IM1      H2       HDA3A    0.094000        1.0080           0   0.00000   0.00000
     10425 IM1      245      IM1      H3       HDA3A    0.094000        1.0080           0   0.00000   0.00000
     10426 IM1      245      IM1      N1       ND2R5A   2.670300       13.6070           0   -1.06300   1.30000
     10427 IM1      245      IM1      DN1      DRUD    -2.530300        0.4000           0   0.00000   0.00000
     10428 IM1      245      IM1      C2       CD2R5A   2.511900       11.6110           0   -1.37800   1.30000
     10429 IM1      245      IM1      DC2      DRUD    -2.880900        0.4000           0   0.00000   0.00000
     10430 IM1      245      IM1      H4       HDR5A    0.150000        1.0080           0   0.00000   0.00000
     10431 IM1      245      IM1      C3       CD2R5A   3.068900       11.6110           0   -1.37800   1.30000
     10432 IM1      245      IM1      DC3      DRUD    -2.880900        0.4000           0   0.00000   0.00000
     10433 IM1      245      IM1      H5       HDR5A    0.053000        1.0080           0   0.00000   0.00000
     10434 IM1      245      IM1      C4       CD2R5B   2.404400       11.6110           0   -0.868000   1.30000
     10435 IM1      245      IM1      DC4      DRUD    -2.286400        0.4000           0   0.00000   0.00000
     10436 IM1      245      IM1      H6       HDR5B    0.073000        1.0080           0   0.00000   0.00000
     10437 IM1      245      IM1      N2       ND2R5B   2.249300       13.6070           0   -0.840000   1.00000
     10438 IM1      245      IM1      DN2      DRUD    -2.249300        0.4000           0   0.00000   0.00000
     10439 IM1      245      IM1      H7       HDP1A    0.000000        1.0080           0   0.00000   0.00000
     10440 IM1      245      IM1      LPN21    LPD     -0.474000        0.0000           -1   0.00000   0.00000
     10441 IM1      246      IM1      C1       CD33G    2.390600       11.6110           0   -1.08100   1.00000
     10442 IM1      246      IM1      DC1      DRUD    -2.551600        0.4000           0   0.00000   0.00000
     10443 IM1      246      IM1      H1       HDA3A    0.094000        1.0080           0   0.00000   0.00000
     10444 IM1      246      IM1      H2       HDA3A    0.094000        1.0080           0   0.00000   0.00000
     10445 IM1      246      IM1      H3       HDA3A    0.094000        1.0080           0   0.00000   0.00000
     10446 IM1      246      IM1      N1       ND2R5A   2.670300       13.6070           0   -1.06300   1.30000
     10447 IM1      246      IM1      DN1      DRUD    -2.530300        0.4000           0   0.00000   0.00000
     10448 IM1      246      IM1      C2       CD2R5A   2.511900       11.6110           0   -1.37800   1.30000
     10449 IM1      246      IM1      DC2      DRUD    -2.880900        0.4000           0   0.00000   0.00000
     10450 IM1      246      IM1      H4       HDR5A    0.150000        1.0080           0   0.00000   0.00000
     10451 IM1      246      IM1      C3       CD2R5A   3.068900       11.6110           0   -1.37800   1.30000
     10452 IM1      246      IM1      DC3      DRUD    -2.880900        0.4000           0   0.00000   0.00000
     10453 IM1      246      IM1      H5       HDR5A    0.053000        1.0080           0   0.00000   0.00000
     10454 IM1      246      IM1      C4       CD2R5B   2.404400       11.6110           0   -0.868000   1.30000
     10455 IM1      246      IM1      DC4      DRUD    -2.286400        0.4000           0   0.00000   0.00000
     10456 IM1      246      IM1      H6       HDR5B    0.073000        1.0080           0   0.00000   0.00000
     10457 IM1      246      IM1      N2       ND2R5B   2.249300       13.6070           0   -0.840000   1.00000
     10458 IM1      246      IM1      DN2      DRUD    -2.249300        0.4000           0   0.00000   0.00000
     10459 IM1      246      IM1      H7       HDP1A    0.000000        1.0080           0   0.00000   0.00000
     10460 IM1      246      IM1      LPN21    LPD     -0.474000        0.0000           -1   0.00000   0.00000
     10461 IM1      247      IM1      C1       CD33G    2.390600       11.6110           0   -1.08100   1.00000
     10462 IM1      247      IM1      DC1      DRUD    -2.551600        0.4000           0   0.00000   0.00000
     10463 IM1      247      IM1      H1       HDA3A    0.094000        1.0080           0   0.00000   0.00000
     10464 IM1      247      IM1      H2       HDA3A    0.094000        1.0080           0   0.00000   0.00000
     10465 IM1      247      IM1      H3       HDA3A    0.094000        1.0080           0   0.00000   0.00000
     10466 IM1      247      IM1      N1       ND2R5A   2.670300       13.6070           0   -1.06300   1.30000
     10467 IM1      247      IM1      DN1      DRUD    -2.530300        0.4000           0   0.00000   0.00000
     10468 IM1      247      IM1      C2       CD2R5A   2.511900       11.6110           0   -1.37800   1.30000
     10469 IM1      247      IM1      DC2      DRUD    -2.880900        0.4000           0   0.00000   0.00000
     10470 IM1      247      IM1      H4       HDR5A    0.150000        1.0080           0   0.00000   0.00000
     10471 IM1      247      IM1      C3       CD2R5A   3.068900       11.6110           0   -1.37800   1.30000
     10472 IM1      247      IM1      DC3      DRUD    -2.880900        0.4000           0   0.00000   0.00000
     10473 IM1      247      IM1      H5       HDR5A    0.053000        1.0080           0   0.00000   0.00000
     10474 IM1      247      IM1      C4       CD2R5B   2.404400       11.6110           0   -0.868000   1.30000
     10475 IM1      247      IM1      DC4      DRUD    -2.286400        0.4000           0   0.00000   0.00000
     10476 IM1      247      IM1      H6       HDR5B    0.073000        1.0080           0   0.00000   0.00000
     10477 IM1      247      IM1      N2       ND2R5B   2.249300       13.6070           0   -0.840000   1.00000
     10478 IM1      247      IM1      DN2      DRUD    -2.249300        0.4000           0   0.00000   0.00000
     10479 IM1      247      IM1      H7       HDP1A    0.000000        1.0080           0   0.00000   0.00000
     10480 IM1      247      IM1      LPN21    LPD     -0.474000        0.0000           -1   0.00000   0.00000
     10481 IM1      248      IM1      C1       CD33G    2.390600       11.6110           0   -1.08100   1.00000
     10482 IM1      248      IM1      DC1      DRUD    -2.551600        0.4000           0   0.00000   0.00000
     10483 IM1      248      IM1      H1       HDA3A    0.094000        1.0080           0   0.00000   0.00000
     10484 IM1      248      IM1      H2       HDA3A    0.094000        1.0080           0   0.00000   0.00000
     10485 IM1      248      IM1      H3       HDA3A    0.094000        1.0080           0   0.00000   0.00000
     10486 IM1      248      IM1      N1       ND2R5A   2.670300       13.6070           0   -1.06300   1.30000
     10487 IM1      248      IM1      DN1      DRUD    -2.530300        0.4000           0   0.00000   0.00000
     10488 IM1      248      IM1      C2       CD2R5A   2.511900       11.6110           0   -1.37800   1.30000
     10489 IM1      248      IM1      DC2      DRUD    -2.880900        0.4000           0   0.00000   0.00000
     10490 IM1      248      IM1      H4       HDR5A    0.150000        1.0080           0   0.00000   0.00000
     10491 IM1      248      IM1      C3       CD2R5A   3.068900       11.6110           0   -1.37800   1.30000
     10492 IM1      248      IM1      DC3      DRUD    -2.880900        0.4000           0   0.00000   0.00000
     10493 IM1      248      IM1      H5       HDR5A    0.053000        1.0080           0   0.00000   0.00000
     10494 IM1      248      IM1      C4       CD2R5B   2.404400       11.6110           0   -0.868000   1.30000
     10495 IM1      248      IM1      DC4      DRUD    -2.286400        0.4000           0   0.00000   0.00000
     10496 IM1      248      IM1      H6       HDR5B    0.073000        1.0080           0   0.00000   0.00000
     10497 IM1      248      IM1      N2       ND2R5B   2.249300       13.6070           0   -0.840000   1.00000
     10498 IM1      248      IM1      DN2      DRUD    -2.249300        0.4000           0   0.00000   0.00000
     10499 IM1      248      IM1      H7       HDP1A    0.000000        1.0080           0   0.00000   0.00000
     10500 IM1      248      IM1      LPN21    LPD     -0.474000        0.0000           -1   0.00000   0.00000
     10501 IM1      249      IM1      C1       CD33G    2.390600       11.6110           0   -1.08100   1.00000
     10502 IM1      249      IM1      DC1      DRUD    -2.551600        0.4000           0   0.00000   0.00000
     10503 IM1      249      IM1      H1       HDA3A    0.094000        1.0080           0   0.00000   0.00000
     10504 IM1      249      IM1      H2       HDA3A    0.094000        1.0080           0   0.00000   0.00000
     10505 IM1      249      IM1      H3       HDA3A    0.094000        1.0080           0   0.00000   0.00000
     10506 IM1      249      IM1      N1       ND2R5A   2.670300       13.6070           0   -1.06300   1.30000
     10507 IM1      249      IM1      DN1      DRUD    -2.530300        0.4000           0   0.00000   0.00000
     10508 IM1      249      IM1      C2       CD2R5A   2.511900       11.6110           0   -1.37800   1.30000
     10509 IM1      249      IM1      DC2      DRUD    -2.880900        0.4000           0   0.00000   0.00000
     10510 IM1      249      IM1      H4       HDR5A    0.150000        1.0080           0   0.00000   0.00000
     10511 IM1      249      IM1      C3       CD2R5A   3.068900       11.6110           0   -1.37800   1.30000
     10512 IM1      249      IM1      DC3      DRUD    -2.880900        0.4000           0   0.00000   0.00000
     10513 IM1      249      IM1      H5       HDR5A    0.053000        1.0080           0   0.00000   0.00000
     10514 IM1      249      IM1      C4       CD2R5B   2.404400       11.6110           0   -0.868000   1.30000
     10515 IM1      249      IM1      DC4      DRUD    -2.286400        0.4000           0   0.00000   0.00000
     10516 IM1      249      IM1      H6       HDR5B    0.073000        1.0080           0   0.00000   0.00000
     10517 IM1      249      IM1      N2       ND2R5B   2.249300       13.6070           0   -0.840000   1.00000
     10518 IM1      249      IM1      DN2      DRUD    -2.249300        0.4000           0   0.00000   0.00000
     10519 IM1      249      IM1      H7       HDP1A    0.000000        1.0080           0   0.00000   0.00000
     10520 IM1      249      IM1      LPN21    LPD     -0.474000        0.0000           -1   0.00000   0.00000
     10521 IM1      250      IM1      C1       CD33G    2.390600       11.6110           0   -1.08100   1.00000
     10522 IM1      250      IM1      DC1      DRUD    -2.551600        0.4000           0   0.00000   0.00000
     10523 IM1      250      IM1      H1       HDA3A    0.094000        1.0080           0   0.00000   0.00000
     10524 IM1      250      IM1      H2       HDA3A    0.094000        1.0080           0   0.00000   0.00000
     10525 IM1      250      IM1      H3       HDA3A    0.094000        1.0080           0   0.00000   0.00000
     10526 IM1      250      IM1      N1       ND2R5A   2.670300       13.6070           0   -1.06300   1.30000
     10527 IM1      250      IM1      DN1      DRUD    -2.530300        0.4000           0   0.00000   0.00000
     10528 IM1      250      IM1      C2       CD2R5A   2.511900       11.6110           0   -1.37800   1.30000
     10529 IM1      250      IM1      DC2      DRUD    -2.880900        0.4000           0   0.00000   0.00000
     10530 IM1      250      IM1      H4       HDR5A    0.150000        1.0080           0   0.00000   0.00000
     10531 IM1      250      IM1      C3       CD2R5A   3.068900       11.6110           0   -1.37800   1.30000
     10532 IM1      250      IM1      DC3      DRUD    -2.880900        0.4000           0   0.00000   0.00000
     10533 IM1      250      IM1      H5       HDR5A    0.053000        1.0080           0   0.00000   0.00000
     10534 IM1      250      IM1      C4       CD2R5B   2.404400       11.6110           0   -0.868000   1.30000
     10535 IM1      250      IM1      DC4      DRUD    -2.286400        0.4000           0   0.00000   0.00000
     10536 IM1      250      IM1      H6       HDR5B    0.073000        1.0080           0   0.00000   0.00000
     10537 IM1      250      IM1      N2       ND2R5B   2.249300       13.6070           0   -0.840000   1.00000
     10538 IM1      250      IM1      DN2      DRUD    -2.249300        0.4000           0   0.00000   0.00000
     10539 IM1      250      IM1      H7       HDP1A    0.000000        1.0080           0   0.00000   0.00000
     10540 IM1      250      IM1      LPN21    LPD     -0.474000        0.0000           -1   0.00000   0.00000
     10541 IM1      251      IM1      C1       CD33G    2.390600       11.6110           0   -1.08100   1.00000
     10542 IM1      251      IM1      DC1      DRUD    -2.551600        0.4000           0   0.00000   0.00000
     10543 IM1      251      IM1      H1       HDA3A    0.094000        1.0080           0   0.00000   0.00000
     10544 IM1      251      IM1      H2       HDA3A    0.094000        1.0080           0   0.00000   0.00000
     10545 IM1      251      IM1      H3       HDA3A    0.094000        1.0080           0   0.00000   0.00000
     10546 IM1      251      IM1      N1       ND2R5A   2.670300       13.6070           0   -1.06300   1.30000
     10547 IM1      251      IM1      DN1      DRUD    -2.530300        0.4000           0   0.00000   0.00000
     10548 IM1      251      IM1      C2       CD2R5A   2.511900       11.6110           0   -1.37800   1.30000
     10549 IM1      251      IM1      DC2      DRUD    -2.880900        0.4000           0   0.00000   0.00000
     10550 IM1      251      IM1      H4       HDR5A    0.150000        1.0080           0   0.00000   0.00000
     10551 IM1      251      IM1      C3       CD2R5A   3.068900       11.6110           0   -1.37800   1.30000
     10552 IM1      251      IM1      DC3      DRUD    -2.880900        0.4000           0   0.00000   0.00000
     10553 IM1      251      IM1      H5       HDR5A    0.053000        1.0080           0   0.00000   0.00000
     10554 IM1      251      IM1      C4       CD2R5B   2.404400       11.6110           0   -0.868000   1.30000
     10555 IM1      251      IM1      DC4      DRUD    -2.286400        0.4000           0   0.00000   0.00000
     10556 IM1      251      IM1      H6       HDR5B    0.073000        1.0080           0   0.00000   0.00000
     10557 IM1      251      IM1      N2       ND2R5B   2.249300       13.6070           0   -0.840000   1.00000
     10558 IM1      251      IM1      DN2      DRUD    -2.249300        0.4000           0   0.00000   0.00000
     10559 IM1      251      IM1      H7       HDP1A    0.000000        1.0080           0   0.00000   0.00000
     10560 IM1      251      IM1      LPN21    LPD     -0.474000        0.0000           -1   0.00000   0.00000
     10561 IM1      252      IM1      C1       CD33G    2.390600       11.6110           0   -1.08100   1.00000
     10562 IM1      252      IM1      DC1      DRUD    -2.551600        0.4000           0   0.00000   0.00000
     10563 IM1      252      IM1      H1       HDA3A    0.094000        1.0080           0   0.00000   0.00000
     10564 IM1      252      IM1      H2       HDA3A    0.094000        1.0080           0   0.00000   0.00000
     10565 IM1      252      IM1      H3       HDA3A    0.094000        1.0080           0   0.00000   0.00000
     10566 IM1      252      IM1      N1       ND2R5A   2.670300       13.6070           0   -1.06300   1.30000
     10567 IM1      252      IM1      DN1      DRUD    -2.530300        0.4000           0   0.00000   0.00000
     10568 IM1      252      IM1      C2       CD2R5A   2.511900       11.6110           0   -1.37800   1.30000
     10569 IM1      252      IM1      DC2      DRUD    -2.880900        0.4000           0   0.00000   0.00000
     10570 IM1      252      IM1      H4       HDR5A    0.150000        1.0080           0   0.00000   0.00000
     10571 IM1      252      IM1      C3       CD2R5A   3.068900       11.6110           0   -1.37800   1.30000
     10572 IM1      252      IM1      DC3      DRUD    -2.880900        0.4000           0   0.00000   0.00000
     10573 IM1      252      IM1      H5       HDR5A    0.053000        1.0080           0   0.00000   0.00000
     10574 IM1      252      IM1      C4       CD2R5B   2.404400       11.6110           0   -0.868000   1.30000
     10575 IM1      252      IM1      DC4      DRUD    -2.286400        0.4000           0   0.00000   0.00000
     10576 IM1      252      IM1      H6       HDR5B    0.073000        1.0080           0   0.00000   0.00000
     10577 IM1      252      IM1      N2       ND2R5B   2.249300       13.6070           0   -0.840000   1.00000
     10578 IM1      252      IM1      DN2      DRUD    -2.249300        0.4000           0   0.00000   0.00000
     10579 IM1      252      IM1      H7       HDP1A    0.000000        1.0080           0   0.00000   0.00000
     10580 IM1      252      IM1      LPN21    LPD     -0.474000        0.0000           -1   0.00000   0.00000
     10581 IM1      253      IM1      C1       CD33G    2.390600       11.6110           0   -1.08100   1.00000
     10582 IM1      253      IM1      DC1      DRUD    -2.551600        0.4000           0   0.00000   0.00000
     10583 IM1      253      IM1      H1       HDA3A    0.094000        1.0080           0   0.00000   0.00000
     10584 IM1      253      IM1      H2       HDA3A    0.094000        1.0080           0   0.00000   0.00000
     10585 IM1      253      IM1      H3       HDA3A    0.094000        1.0080           0   0.00000   0.00000
     10586 IM1      253      IM1      N1       ND2R5A   2.670300       13.6070           0   -1.06300   1.30000
     10587 IM1      253      IM1      DN1      DRUD    -2.530300        0.4000           0   0.00000   0.00000
     10588 IM1      253      IM1      C2       CD2R5A   2.511900       11.6110           0   -1.37800   1.30000
     10589 IM1      253      IM1      DC2      DRUD    -2.880900        0.4000           0   0.00000   0.00000
     10590 IM1      253      IM1      H4       HDR5A    0.150000        1.0080           0   0.00000   0.00000
     10591 IM1      253      IM1      C3       CD2R5A   3.068900       11.6110           0   -1.37800   1.30000
     10592 IM1      253      IM1      DC3      DRUD    -2.880900        0.4000           0   0.00000   0.00000
     10593 IM1      253      IM1      H5       HDR5A    0.053000        1.0080           0   0.00000   0.00000
     10594 IM1      253      IM1      C4       CD2R5B   2.404400       11.6110           0   -0.868000   1.30000
     10595 IM1      253      IM1      DC4      DRUD    -2.286400        0.4000           0   0.00000   0.00000
     10596 IM1      253      IM1      H6       HDR5B    0.073000        1.0080           0   0.00000   0.00000
     10597 IM1      253      IM1      N2       ND2R5B   2.249300       13.6070           0   -0.840000   1.00000
     10598 IM1      253      IM1      DN2      DRUD    -2.249300        0.4000           0   0.00000   0.00000
     10599 IM1      253      IM1      H7       HDP1A    0.000000        1.0080           0   0.00000   0.00000
     10600 IM1      253      IM1      LPN21    LPD     -0.474000        0.0000           -1   0.00000   0.00000
     10601 IM1      254      IM1      C1       CD33G    2.390600       11.6110           0   -1.08100   1.00000
     10602 IM1      254      IM1      DC1      DRUD    -2.551600        0.4000           0   0.00000   0.00000
     10603 IM1      254      IM1      H1       HDA3A    0.094000        1.0080           0   0.00000   0.00000
     10604 IM1      254      IM1      H2       HDA3A    0.094000        1.0080           0   0.00000   0.00000
     10605 IM1      254      IM1      H3       HDA3A    0.094000        1.0080           0   0.00000   0.00000
     10606 IM1      254      IM1      N1       ND2R5A   2.670300       13.6070           0   -1.06300   1.30000
     10607 IM1      254      IM1      DN1      DRUD    -2.530300        0.4000           0   0.00000   0.00000
     10608 IM1      254      IM1      C2       CD2R5A   2.511900       11.6110           0   -1.37800   1.30000
     10609 IM1      254      IM1      DC2      DRUD    -2.880900        0.4000           0   0.00000   0.00000
     10610 IM1      254      IM1      H4       HDR5A    0.150000        1.0080           0   0.00000   0.00000
     10611 IM1      254      IM1      C3       CD2R5A   3.068900       11.6110           0   -1.37800   1.30000
     10612 IM1      254      IM1      DC3      DRUD    -2.880900        0.4000           0   0.00000   0.00000
     10613 IM1      254      IM1      H5       HDR5A    0.053000        1.0080           0   0.00000   0.00000
     10614 IM1      254      IM1      C4       CD2R5B   2.404400       11.6110           0   -0.868000   1.30000
     10615 IM1      254      IM1      DC4      DRUD    -2.286400        0.4000           0   0.00000   0.00000
     10616 IM1      254      IM1      H6       HDR5B    0.073000        1.0080           0   0.00000   0.00000
     10617 IM1      254      IM1      N2       ND2R5B   2.249300       13.6070           0   -0.840000   1.00000
     10618 IM1      254      IM1      DN2      DRUD    -2.249300        0.4000           0   0.00000   0.00000
     10619 IM1      254      IM1      H7       HDP1A    0.000000        1.0080           0   0.00000   0.00000
     10620 IM1      254      IM1      LPN21    LPD     -0.474000        0.0000           -1   0.00000   0.00000
     10621 IM1      255      IM1      C1       CD33G    2.390600       11.6110           0   -1.08100   1.00000
     10622 IM1      255      IM1      DC1      DRUD    -2.551600        0.4000           0   0.00000   0.00000
     10623 IM1      255      IM1      H1       HDA3A    0.094000        1.0080           0   0.00000   0.00000
     10624 IM1      255      IM1      H2       HDA3A    0.094000        1.0080           0   0.00000   0.00000
     10625 IM1      255      IM1      H3       HDA3A    0.094000        1.0080           0   0.00000   0.00000
     10626 IM1      255      IM1      N1       ND2R5A   2.670300       13.6070           0   -1.06300   1.30000
     10627 IM1      255      IM1      DN1      DRUD    -2.530300        0.4000           0   0.00000   0.00000
     10628 IM1      255      IM1      C2       CD2R5A   2.511900       11.6110           0   -1.37800   1.30000
     10629 IM1      255      IM1      DC2      DRUD    -2.880900        0.4000           0   0.00000   0.00000
     10630 IM1      255      IM1      H4       HDR5A    0.150000        1.0080           0   0.00000   0.00000
     10631 IM1      255      IM1      C3       CD2R5A   3.068900       11.6110           0   -1.37800   1.30000
     10632 IM1      255      IM1      DC3      DRUD    -2.880900        0.4000           0   0.00000   0.00000
     10633 IM1      255      IM1      H5       HDR5A    0.053000        1.0080           0   0.00000   0.00000
     10634 IM1      255      IM1      C4       CD2R5B   2.404400       11.6110           0   -0.868000   1.30000
     10635 IM1      255      IM1      DC4      DRUD    -2.286400        0.4000           0   0.00000   0.00000
     10636 IM1      255      IM1      H6       HDR5B    0.073000        1.0080           0   0.00000   0.00000
     10637 IM1      255      IM1      N2       ND2R5B   2.249300       13.6070           0   -0.840000   1.00000
     10638 IM1      255      IM1      DN2      DRUD    -2.249300        0.4000           0   0.00000   0.00000
     10639 IM1      255      IM1      H7       HDP1A    0.000000        1.0080           0   0.00000   0.00000
     10640 IM1      255      IM1      LPN21    LPD     -0.474000        0.0000           -1   0.00000   0.00000
     10641 IM1      256      IM1      C1       CD33G    2.390600       11.6110           0   -1.08100   1.00000
     10642 IM1      256      IM1      DC1      DRUD    -2.551600        0.4000           0   0.00000   0.00000
     10643 IM1      256      IM1      H1       HDA3A    0.094000        1.0080           0   0.00000   0.00000
     10644 IM1      256      IM1      H2       HDA3A    0.094000        1.0080           0   0.00000   0.00000
     10645 IM1      256      IM1      H3       HDA3A    0.094000        1.0080           0   0.00000   0.00000
     10646 IM1      256      IM1      N1       ND2R5A   2.670300       13.6070           0   -1.06300   1.30000
     10647 IM1      256      IM1      DN1      DRUD    -2.530300        0.4000           0   0.00000   0.00000
     10648 IM1      256      IM1      C2       CD2R5A   2.511900       11.6110           0   -1.37800   1.30000
     10649 IM1      256      IM1      DC2      DRUD    -2.880900        0.4000           0   0.00000   0.00000
     10650 IM1      256      IM1      H4       HDR5A    0.150000        1.0080           0   0.00000   0.00000
     10651 IM1      256      IM1      C3       CD2R5A   3.068900       11.6110           0   -1.37800   1.30000
     10652 IM1      256      IM1      DC3      DRUD    -2.880900        0.4000           0   0.00000   0.00000
     10653 IM1      256      IM1      H5       HDR5A    0.053000        1.0080           0   0.00000   0.00000
     10654 IM1      256      IM1      C4       CD2R5B   2.404400       11.6110           0   -0.868000   1.30000
     10655 IM1      256      IM1      DC4      DRUD    -2.286400        0.4000           0   0.00000   0.00000
     10656 IM1      256      IM1      H6       HDR5B    0.073000        1.0080           0   0.00000   0.00000
     10657 IM1      256      IM1      N2       ND2R5B   2.249300       13.6070           0   -0.840000   1.00000
     10658 IM1      256      IM1      DN2      DRUD    -2.249300        0.4000           0   0.00000   0.00000
     10659 IM1      256      IM1      H7       HDP1A    0.000000        1.0080           0   0.00000   0.00000
     10660 IM1      256      IM1      LPN21    LPD     -0.474000        0.0000           -1   0.00000   0.00000
     10661 IM1      257      IM1      C1       CD33G    2.390600       11.6110           0   -1.08100   1.00000
     10662 IM1      257      IM1      DC1      DRUD    -2.551600        0.4000           0   0.00000   0.00000
     10663 IM1      257      IM1      H1       HDA3A    0.094000        1.0080           0   0.00000   0.00000
     10664 IM1      257      IM1      H2       HDA3A    0.094000        1.0080           0   0.00000   0.00000
     10665 IM1      257      IM1      H3       HDA3A    0.094000        1.0080           0   0.00000   0.00000
     10666 IM1      257      IM1      N1       ND2R5A   2.670300       13.6070           0   -1.06300   1.30000
     10667 IM1      257      IM1      DN1      DRUD    -2.530300        0.4000           0   0.00000   0.00000
     10668 IM1      257      IM1      C2       CD2R5A   2.511900       11.6110           0   -1.37800   1.30000
     10669 IM1      257      IM1      DC2      DRUD    -2.880900        0.4000           0   0.00000   0.00000
     10670 IM1      257      IM1      H4       HDR5A    0.150000        1.0080           0   0.00000   0.00000
     10671 IM1      257      IM1      C3       CD2R5A   3.068900       11.6110           0   -1.37800   1.30000
     10672 IM1      257      IM1      DC3      DRUD    -2.880900        0.4000           0   0.00000   0.00000
     10673 IM1      257      IM1      H5       HDR5A    0.053000        1.0080           0   0.00000   0.00000
     10674 IM1      257      IM1      C4       CD2R5B   2.404400       11.6110           0   -0.868000   1.30000
     10675 IM1      257      IM1      DC4      DRUD    -2.286400        0.4000           0   0.00000   0.00000
     10676 IM1      257      IM1      H6       HDR5B    0.073000        1.0080           0   0.00000   0.00000
     10677 IM1      257      IM1      N2       ND2R5B   2.249300       13.6070           0   -0.840000   1.00000
     10678 IM1      257      IM1      DN2      DRUD    -2.249300        0.4000           0   0.00000   0.00000
     10679 IM1      257      IM1      H7       HDP1A    0.000000        1.0080           0   0.00000   0.00000
     10680 IM1      257      IM1      LPN21    LPD     -0.474000        0.0000           -1   0.00000   0.00000
     10681 IM1      258      IM1      C1       CD33G    2.390600       11.6110           0   -1.08100   1.00000
     10682 IM1      258      IM1      DC1      DRUD    -2.551600        0.4000           0   0.00000   0.00000
     10683 IM1      258      IM1      H1       HDA3A    0.094000        1.0080           0   0.00000   0.00000
     10684 IM1      258      IM1      H2       HDA3A    0.094000        1.0080           0   0.00000   0.00000
     10685 IM1      258      IM1      H3       HDA3A    0.094000        1.0080           0   0.00000   0.00000
     10686 IM1      258      IM1      N1       ND2R5A   2.670300       13.6070           0   -1.06300   1.30000
     10687 IM1      258      IM1      DN1      DRUD    -2.530300        0.4000           0   0.00000   0.00000
     10688 IM1      258      IM1      C2       CD2R5A   2.511900       11.6110           0   -1.37800   1.30000
     10689 IM1      258      IM1      DC2      DRUD    -2.880900        0.4000           0   0.00000   0.00000
     10690 IM1      258      IM1      H4       HDR5A    0.150000        1.0080           0   0.00000   0.00000
     10691 IM1      258      IM1      C3       CD2R5A   3.068900       11.6110           0   -1.37800   1.30000
     10692 IM1      258      IM1      DC3      DRUD    -2.880900        0.4000           0   0.00000   0.00000
     10693 IM1      258      IM1      H5       HDR5A    0.053000        1.0080           0   0.00000   0.00000
     10694 IM1      258      IM1      C4       CD2R5B   2.404400       11.6110           0   -0.868000   1.30000
     10695 IM1      258      IM1      DC4      DRUD    -2.286400        0.4000           0   0.00000   0.00000
     10696 IM1      258      IM1      H6       HDR5B    0.073000        1.0080           0   0.00000   0.00000
     10697 IM1      258      IM1      N2       ND2R5B   2.249300       13.6070           0   -0.840000   1.00000
     10698 IM1      258      IM1      DN2      DRUD    -2.249300        0.4000           0   0.00000   0.00000
     10699 IM1      258      IM1      H7       HDP1A    0.000000        1.0080           0   0.00000   0.00000
     10700 IM1      258      IM1      LPN21    LPD     -0.474000        0.0000           -1   0.00000   0.00000
     10701 IM1      259      IM1      C1       CD33G    2.390600       11.6110           0   -1.08100   1.00000
     10702 IM1      259      IM1      DC1      DRUD    -2.551600        0.4000           0   0.00000   0.00000
     10703 IM1      259      IM1      H1       HDA3A    0.094000        1.0080           0   0.00000   0.00000
     10704 IM1      259      IM1      H2       HDA3A    0.094000        1.0080           0   0.00000   0.00000
     10705 IM1      259      IM1      H3       HDA3A    0.094000        1.0080           0   0.00000   0.00000
     10706 IM1      259      IM1      N1       ND2R5A   2.670300       13.6070           0   -1.06300   1.30000
     10707 IM1      259      IM1      DN1      DRUD    -2.530300        0.4000           0   0.00000   0.00000
     10708 IM1      259      IM1      C2       CD2R5A   2.511900       11.6110           0   -1.37800   1.30000
     10709 IM1      259      IM1      DC2      DRUD    -2.880900        0.4000           0   0.00000   0.00000
     10710 IM1      259      IM1      H4       HDR5A    0.150000        1.0080           0   0.00000   0.00000
     10711 IM1      259      IM1      C3       CD2R5A   3.068900       11.6110           0   -1.37800   1.30000
     10712 IM1      259      IM1      DC3      DRUD    -2.880900        0.4000           0   0.00000   0.00000
     10713 IM1      259      IM1      H5       HDR5A    0.053000        1.0080           0   0.00000   0.00000
     10714 IM1      259      IM1      C4       CD2R5B   2.404400       11.6110           0   -0.868000   1.30000
     10715 IM1      259      IM1      DC4      DRUD    -2.286400        0.4000           0   0.00000   0.00000
     10716 IM1      259      IM1      H6       HDR5B    0.073000        1.0080           0   0.00000   0.00000
     10717 IM1      259      IM1      N2       ND2R5B   2.249300       13.6070           0   -0.840000   1.00000
     10718 IM1      259      IM1      DN2      DRUD    -2.249300        0.4000           0   0.00000   0.00000
     10719 IM1      259      IM1      H7       HDP1A    0.000000        1.0080           0   0.00000   0.00000
     10720 IM1      259      IM1      LPN21    LPD     -0.474000        0.0000           -1   0.00000   0.00000
     10721 IM1      260      IM1      C1       CD33G    2.390600       11.6110           0   -1.08100   1.00000
     10722 IM1      260      IM1      DC1      DRUD    -2.551600        0.4000           0   0.00000   0.00000
     10723 IM1      260      IM1      H1       HDA3A    0.094000        1.0080           0   0.00000   0.00000
     10724 IM1      260      IM1      H2       HDA3A    0.094000        1.0080           0   0.00000   0.00000
     10725 IM1      260      IM1      H3       HDA3A    0.094000        1.0080           0   0.00000   0.00000
     10726 IM1      260      IM1      N1       ND2R5A   2.670300       13.6070           0   -1.06300   1.30000
     10727 IM1      260      IM1      DN1      DRUD    -2.530300        0.4000           0   0.00000   0.00000
     10728 IM1      260      IM1      C2       CD2R5A   2.511900       11.6110           0   -1.37800   1.30000
     10729 IM1      260      IM1      DC2      DRUD    -2.880900        0.4000           0   0.00000   0.00000
     10730 IM1      260      IM1      H4       HDR5A    0.150000        1.0080           0   0.00000   0.00000
     10731 IM1      260      IM1      C3       CD2R5A   3.068900       11.6110           0   -1.37800   1.30000
     10732 IM1      260      IM1      DC3      DRUD    -2.880900        0.4000           0   0.00000   0.00000
     10733 IM1      260      IM1      H5       HDR5A    0.053000        1.0080           0   0.00000   0.00000
     10734 IM1      260      IM1      C4       CD2R5B   2.404400       11.6110           0   -0.868000   1.30000
     10735 IM1      260      IM1      DC4      DRUD    -2.286400        0.4000           0   0.00000   0.00000
     10736 IM1      260      IM1      H6       HDR5B    0.073000        1.0080           0   0.00000   0.00000
     10737 IM1      260      IM1      N2       ND2R5B   2.249300       13.6070           0   -0.840000   1.00000
     10738 IM1      260      IM1      DN2      DRUD    -2.249300        0.4000           0   0.00000   0.00000
     10739 IM1      260      IM1      H7       HDP1A    0.000000        1.0080           0   0.00000   0.00000
     10740 IM1      260      IM1      LPN21    LPD     -0.474000        0.0000           -1   0.00000   0.00000
     10741 IM1      261      IM1      C1       CD33G    2.390600       11.6110           0   -1.08100   1.00000
     10742 IM1      261      IM1      DC1      DRUD    -2.551600        0.4000           0   0.00000   0.00000
     10743 IM1      261      IM1      H1       HDA3A    0.094000        1.0080           0   0.00000   0.00000
     10744 IM1      261      IM1      H2       HDA3A    0.094000        1.0080           0   0.00000   0.00000
     10745 IM1      261      IM1      H3       HDA3A    0.094000        1.0080           0   0.00000   0.00000
     10746 IM1      261      IM1      N1       ND2R5A   2.670300       13.6070           0   -1.06300   1.30000
     10747 IM1      261      IM1      DN1      DRUD    -2.530300        0.4000           0   0.00000   0.00000
     10748 IM1      261      IM1      C2       CD2R5A   2.511900       11.6110           0   -1.37800   1.30000
     10749 IM1      261      IM1      DC2      DRUD    -2.880900        0.4000           0   0.00000   0.00000
     10750 IM1      261      IM1      H4       HDR5A    0.150000        1.0080           0   0.00000   0.00000
     10751 IM1      261      IM1      C3       CD2R5A   3.068900       11.6110           0   -1.37800   1.30000
     10752 IM1      261      IM1      DC3      DRUD    -2.880900        0.4000           0   0.00000   0.00000
     10753 IM1      261      IM1      H5       HDR5A    0.053000        1.0080           0   0.00000   0.00000
     10754 IM1      261      IM1      C4       CD2R5B   2.404400       11.6110           0   -0.868000   1.30000
     10755 IM1      261      IM1      DC4      DRUD    -2.286400        0.4000           0   0.00000   0.00000
     10756 IM1      261      IM1      H6       HDR5B    0.073000        1.0080           0   0.00000   0.00000
     10757 IM1      261      IM1      N2       ND2R5B   2.249300       13.6070           0   -0.840000   1.00000
     10758 IM1      261      IM1      DN2      DRUD    -2.249300        0.4000           0   0.00000   0.00000
     10759 IM1      261      IM1      H7       HDP1A    0.000000        1.0080           0   0.00000   0.00000
     10760 IM1      261      IM1      LPN21    LPD     -0.474000        0.0000           -1   0.00000   0.00000
     10761 IM1      262      IM1      C1       CD33G    2.390600       11.6110           0   -1.08100   1.00000
     10762 IM1      262      IM1      DC1      DRUD    -2.551600        0.4000           0   0.00000   0.00000
     10763 IM1      262      IM1      H1       HDA3A    0.094000        1.0080           0   0.00000   0.00000
     10764 IM1      262      IM1      H2       HDA3A    0.094000        1.0080           0   0.00000   0.00000
     10765 IM1      262      IM1      H3       HDA3A    0.094000        1.0080           0   0.00000   0.00000
     10766 IM1      262      IM1      N1       ND2R5A   2.670300       13.6070           0   -1.06300   1.30000
     10767 IM1      262      IM1      DN1      DRUD    -2.530300        0.4000           0   0.00000   0.00000
     10768 IM1      262      IM1      C2       CD2R5A   2.511900       11.6110           0   -1.37800   1.30000
     10769 IM1      262      IM1      DC2      DRUD    -2.880900        0.4000           0   0.00000   0.00000
     10770 IM1      262      IM1      H4       HDR5A    0.150000        1.0080           0   0.00000   0.00000
     10771 IM1      262      IM1      C3       CD2R5A   3.068900       11.6110           0   -1.37800   1.30000
     10772 IM1      262      IM1      DC3      DRUD    -2.880900        0.4000           0   0.00000   0.00000
     10773 IM1      262      IM1      H5       HDR5A    0.053000        1.0080           0   0.00000   0.00000
     10774 IM1      262      IM1      C4       CD2R5B   2.404400       11.6110           0   -0.868000   1.30000
     10775 IM1      262      IM1      DC4      DRUD    -2.286400        0.4000           0   0.00000   0.00000
     10776 IM1      262      IM1      H6       HDR5B    0.073000        1.0080           0   0.00000   0.00000
     10777 IM1      262      IM1      N2       ND2R5B   2.249300       13.6070           0   -0.840000   1.00000
     10778 IM1      262      IM1      DN2      DRUD    -2.249300        0.4000           0   0.00000   0.00000
     10779 IM1      262      IM1      H7       HDP1A    0.000000        1.0080           0   0.00000   0.00000
     10780 IM1      262      IM1      LPN21    LPD     -0.474000        0.0000           -1   0.00000   0.00000
     10781 IM1      263      IM1      C1       CD33G    2.390600       11.6110           0   -1.08100   1.00000
     10782 IM1      263      IM1      DC1      DRUD    -2.551600        0.4000           0   0.00000   0.00000
     10783 IM1      263      IM1      H1       HDA3A    0.094000        1.0080           0   0.00000   0.00000
     10784 IM1      263      IM1      H2       HDA3A    0.094000        1.0080           0   0.00000   0.00000
     10785 IM1      263      IM1      H3       HDA3A    0.094000        1.0080           0   0.00000   0.00000
     10786 IM1      263      IM1      N1       ND2R5A   2.670300       13.6070           0   -1.06300   1.30000
     10787 IM1      263      IM1      DN1      DRUD    -2.530300        0.4000           0   0.00000   0.00000
     10788 IM1      263      IM1      C2       CD2R5A   2.511900       11.6110           0   -1.37800   1.30000
     10789 IM1      263      IM1      DC2      DRUD    -2.880900        0.4000           0   0.00000   0.00000
     10790 IM1      263      IM1      H4       HDR5A    0.150000        1.0080           0   0.00000   0.00000
     10791 IM1      263      IM1      C3       CD2R5A   3.068900       11.6110           0   -1.37800   1.30000
     10792 IM1      263      IM1      DC3      DRUD    -2.880900        0.4000           0   0.00000   0.00000
     10793 IM1      263      IM1      H5       HDR5A    0.053000        1.0080           0   0.00000   0.00000
     10794 IM1      263      IM1      C4       CD2R5B   2.404400       11.6110           0   -0.868000   1.30000
     10795 IM1      263      IM1      DC4      DRUD    -2.286400        0.4000           0   0.00000   0.00000
     10796 IM1      263      IM1      H6       HDR5B    0.073000        1.0080           0   0.00000   0.00000
     10797 IM1      263      IM1      N2       ND2R5B   2.249300       13.6070           0   -0.840000   1.00000
     10798 IM1      263      IM1      DN2      DRUD    -2.249300        0.4000           0   0.00000   0.00000
     10799 IM1      263      IM1      H7       HDP1A    0.000000        1.0080           0   0.00000   0.00000
     10800 IM1      263      IM1      LPN21    LPD     -0.474000        0.0000           -1   0.00000   0.00000
     10801 IM1      264      IM1      C1       CD33G    2.390600       11.6110           0   -1.08100   1.00000
     10802 IM1      264      IM1      DC1      DRUD    -2.551600        0.4000           0   0.00000   0.00000
     10803 IM1      264      IM1      H1       HDA3A    0.094000        1.0080           0   0.00000   0.00000
     10804 IM1      264      IM1      H2       HDA3A    0.094000        1.0080           0   0.00000   0.00000
     10805 IM1      264      IM1      H3       HDA3A    0.094000        1.0080           0   0.00000   0.00000
     10806 IM1      264      IM1      N1       ND2R5A   2.670300       13.6070           0   -1.06300   1.30000
     10807 IM1      264      IM1      DN1      DRUD    -2.530300        0.4000           0   0.00000   0.00000
     10808 IM1      264      IM1      C2       CD2R5A   2.511900       11.6110           0   -1.37800   1.30000
     10809 IM1      264      IM1      DC2      DRUD    -2.880900        0.4000           0   0.00000   0.00000
     10810 IM1      264      IM1      H4       HDR5A    0.150000        1.0080           0   0.00000   0.00000
     10811 IM1      264      IM1      C3       CD2R5A   3.068900       11.6110           0   -1.37800   1.30000
     10812 IM1      264      IM1      DC3      DRUD    -2.880900        0.4000           0   0.00000   0.00000
     10813 IM1      264      IM1      H5       HDR5A    0.053000        1.0080           0   0.00000   0.00000
     10814 IM1      264      IM1      C4       CD2R5B   2.404400       11.6110           0   -0.868000   1.30000
     10815 IM1      264      IM1      DC4      DRUD    -2.286400        0.4000           0   0.00000   0.00000
     10816 IM1      264      IM1      H6       HDR5B    0.073000        1.0080           0   0.00000   0.00000
     10817 IM1      264      IM1      N2       ND2R5B   2.249300       13.6070           0   -0.840000   1.00000
     10818 IM1      264      IM1      DN2      DRUD    -2.249300        0.4000           0   0.00000   0.00000
     10819 IM1      264      IM1      H7       HDP1A    0.000000        1.0080           0   0.00000   0.00000
     10820 IM1      264      IM1      LPN21    LPD     -0.474000        0.0000           -1   0.00000   0.00000
     10821 IM1      265      IM1      C1       CD33G    2.390600       11.6110           0   -1.08100   1.00000
     10822 IM1      265      IM1      DC1      DRUD    -2.551600        0.4000           0   0.00000   0.00000
     10823 IM1      265      IM1      H1       HDA3A    0.094000        1.0080           0   0.00000   0.00000
     10824 IM1      265      IM1      H2       HDA3A    0.094000        1.0080           0   0.00000   0.00000
     10825 IM1      265      IM1      H3       HDA3A    0.094000        1.0080           0   0.00000   0.00000
     10826 IM1      265      IM1      N1       ND2R5A   2.670300       13.6070           0   -1.06300   1.30000
     10827 IM1      265      IM1      DN1      DRUD    -2.530300        0.4000           0   0.00000   0.00000
     10828 IM1      265      IM1      C2       CD2R5A   2.511900       11.6110           0   -1.37800   1.30000
     10829 IM1      265      IM1      DC2      DRUD    -2.880900        0.4000           0   0.00000   0.00000
     10830 IM1      265      IM1      H4       HDR5A    0.150000        1.0080           0   0.00000   0.00000
     10831 IM1      265      IM1      C3       CD2R5A   3.068900       11.6110           0   -1.37800   1.30000
     10832 IM1      265      IM1      DC3      DRUD    -2.880900        0.4000           0   0.00000   0.00000
     10833 IM1      265      IM1      H5       HDR5A    0.053000        1.0080           0   0.00000   0.00000
     10834 IM1      265      IM1      C4       CD2R5B   2.404400       11.6110           0   -0.868000   1.30000
     10835 IM1      265      IM1      DC4      DRUD    -2.286400        0.4000           0   0.00000   0.00000
     10836 IM1      265      IM1      H6       HDR5B    0.073000        1.0080           0   0.00000   0.00000
     10837 IM1      265      IM1      N2       ND2R5B   2.249300       13.6070           0   -0.840000   1.00000
     10838 IM1      265      IM1      DN2      DRUD    -2.249300        0.4000           0   0.00000   0.00000
     10839 IM1      265      IM1      H7       HDP1A    0.000000        1.0080           0   0.00000   0.00000
     10840 IM1      265      IM1      LPN21    LPD     -0.474000        0.0000           -1   0.00000   0.00000
     10841 IM1      266      IM1      C1       CD33G    2.390600       11.6110           0   -1.08100   1.00000
     10842 IM1      266      IM1      DC1      DRUD    -2.551600        0.4000           0   0.00000   0.00000
     10843 IM1      266      IM1      H1       HDA3A    0.094000        1.0080           0   0.00000   0.00000
     10844 IM1      266      IM1      H2       HDA3A    0.094000        1.0080           0   0.00000   0.00000
     10845 IM1      266      IM1      H3       HDA3A    0.094000        1.0080           0   0.00000   0.00000
     10846 IM1      266      IM1      N1       ND2R5A   2.670300       13.6070           0   -1.06300   1.30000
     10847 IM1      266      IM1      DN1      DRUD    -2.530300        0.4000           0   0.00000   0.00000
     10848 IM1      266      IM1      C2       CD2R5A   2.511900       11.6110           0   -1.37800   1.30000
     10849 IM1      266      IM1      DC2      DRUD    -2.880900        0.4000           0   0.00000   0.00000
     10850 IM1      266      IM1      H4       HDR5A    0.150000        1.0080           0   0.00000   0.00000
     10851 IM1      266      IM1      C3       CD2R5A   3.068900       11.6110           0   -1.37800   1.30000
     10852 IM1      266      IM1      DC3      DRUD    -2.880900        0.4000           0   0.00000   0.00000
     10853 IM1      266      IM1      H5       HDR5A    0.053000        1.0080           0   0.00000   0.00000
     10854 IM1      266      IM1      C4       CD2R5B   2.404400       11.6110           0   -0.868000   1.30000
     10855 IM1      266      IM1      DC4      DRUD    -2.286400        0.4000           0   0.00000   0.00000
     10856 IM1      266      IM1      H6       HDR5B    0.073000        1.0080           0   0.00000   0.00000
     10857 IM1      266      IM1      N2       ND2R5B   2.249300       13.6070           0   -0.840000   1.00000
     10858 IM1      266      IM1      DN2      DRUD    -2.249300        0.4000           0   0.00000   0.00000
     10859 IM1      266      IM1      H7       HDP1A    0.000000        1.0080           0   0.00000   0.00000
     10860 IM1      266      IM1      LPN21    LPD     -0.474000        0.0000           -1   0.00000   0.00000
     10861 IM1      267      IM1      C1       CD33G    2.390600       11.6110           0   -1.08100   1.00000
     10862 IM1      267      IM1      DC1      DRUD    -2.551600        0.4000           0   0.00000   0.00000
     10863 IM1      267      IM1      H1       HDA3A    0.094000        1.0080           0   0.00000   0.00000
     10864 IM1      267      IM1      H2       HDA3A    0.094000        1.0080           0   0.00000   0.00000
     10865 IM1      267      IM1      H3       HDA3A    0.094000        1.0080           0   0.00000   0.00000
     10866 IM1      267      IM1      N1       ND2R5A   2.670300       13.6070           0   -1.06300   1.30000
     10867 IM1      267      IM1      DN1      DRUD    -2.530300        0.4000           0   0.00000   0.00000
     10868 IM1      267      IM1      C2       CD2R5A   2.511900       11.6110           0   -1.37800   1.30000
     10869 IM1      267      IM1      DC2      DRUD    -2.880900        0.4000           0   0.00000   0.00000
     10870 IM1      267      IM1      H4       HDR5A    0.150000        1.0080           0   0.00000   0.00000
     10871 IM1      267      IM1      C3       CD2R5A   3.068900       11.6110           0   -1.37800   1.30000
     10872 IM1      267      IM1      DC3      DRUD    -2.880900        0.4000           0   0.00000   0.00000
     10873 IM1      267      IM1      H5       HDR5A    0.053000        1.0080           0   0.00000   0.00000
     10874 IM1      267      IM1      C4       CD2R5B   2.404400       11.6110           0   -0.868000   1.30000
     10875 IM1      267      IM1      DC4      DRUD    -2.286400        0.4000           0   0.00000   0.00000
     10876 IM1      267      IM1      H6       HDR5B    0.073000        1.0080           0   0.00000   0.00000
     10877 IM1      267      IM1      N2       ND2R5B   2.249300       13.6070           0   -0.840000   1.00000
     10878 IM1      267      IM1      DN2      DRUD    -2.249300        0.4000           0   0.00000   0.00000
     10879 IM1      267      IM1      H7       HDP1A    0.000000        1.0080           0   0.00000   0.00000
     10880 IM1      267      IM1      LPN21    LPD     -0.474000        0.0000           -1   0.00000   0.00000
     10881 IM1      268      IM1      C1       CD33G    2.390600       11.6110           0   -1.08100   1.00000
     10882 IM1      268      IM1      DC1      DRUD    -2.551600        0.4000           0   0.00000   0.00000
     10883 IM1      268      IM1      H1       HDA3A    0.094000        1.0080           0   0.00000   0.00000
     10884 IM1      268      IM1      H2       HDA3A    0.094000        1.0080           0   0.00000   0.00000
     10885 IM1      268      IM1      H3       HDA3A    0.094000        1.0080           0   0.00000   0.00000
     10886 IM1      268      IM1      N1       ND2R5A   2.670300       13.6070           0   -1.06300   1.30000
     10887 IM1      268      IM1      DN1      DRUD    -2.530300        0.4000           0   0.00000   0.00000
     10888 IM1      268      IM1      C2       CD2R5A   2.511900       11.6110           0   -1.37800   1.30000
     10889 IM1      268      IM1      DC2      DRUD    -2.880900        0.4000           0   0.00000   0.00000
     10890 IM1      268      IM1      H4       HDR5A    0.150000        1.0080           0   0.00000   0.00000
     10891 IM1      268      IM1      C3       CD2R5A   3.068900       11.6110           0   -1.37800   1.30000
     10892 IM1      268      IM1      DC3      DRUD    -2.880900        0.4000           0   0.00000   0.00000
     10893 IM1      268      IM1      H5       HDR5A    0.053000        1.0080           0   0.00000   0.00000
     10894 IM1      268      IM1      C4       CD2R5B   2.404400       11.6110           0   -0.868000   1.30000
     10895 IM1      268      IM1      DC4      DRUD    -2.286400        0.4000           0   0.00000   0.00000
     10896 IM1      268      IM1      H6       HDR5B    0.073000        1.0080           0   0.00000   0.00000
     10897 IM1      268      IM1      N2       ND2R5B   2.249300       13.6070           0   -0.840000   1.00000
     10898 IM1      268      IM1      DN2      DRUD    -2.249300        0.4000           0   0.00000   0.00000
     10899 IM1      268      IM1      H7       HDP1A    0.000000        1.0080           0   0.00000   0.00000
     10900 IM1      268      IM1      LPN21    LPD     -0.474000        0.0000           -1   0.00000   0.00000
     10901 IM1      269      IM1      C1       CD33G    2.390600       11.6110           0   -1.08100   1.00000
     10902 IM1      269      IM1      DC1      DRUD    -2.551600        0.4000           0   0.00000   0.00000
     10903 IM1      269      IM1      H1       HDA3A    0.094000        1.0080           0   0.00000   0.00000
     10904 IM1      269      IM1      H2       HDA3A    0.094000        1.0080           0   0.00000   0.00000
     10905 IM1      269      IM1      H3       HDA3A    0.094000        1.0080           0   0.00000   0.00000
     10906 IM1      269      IM1      N1       ND2R5A   2.670300       13.6070           0   -1.06300   1.30000
     10907 IM1      269      IM1      DN1      DRUD    -2.530300        0.4000           0   0.00000   0.00000
     10908 IM1      269      IM1      C2       CD2R5A   2.511900       11.6110           0   -1.37800   1.30000
     10909 IM1      269      IM1      DC2      DRUD    -2.880900        0.4000           0   0.00000   0.00000
     10910 IM1      269      IM1      H4       HDR5A    0.150000        1.0080           0   0.00000   0.00000
     10911 IM1      269      IM1      C3       CD2R5A   3.068900       11.6110           0   -1.37800   1.30000
     10912 IM1      269      IM1      DC3      DRUD    -2.880900        0.4000           0   0.00000   0.00000
     10913 IM1      269      IM1      H5       HDR5A    0.053000        1.0080           0   0.00000   0.00000
     10914 IM1      269      IM1      C4       CD2R5B   2.404400       11.6110           0   -0.868000   1.30000
     10915 IM1      269      IM1      DC4      DRUD    -2.286400        0.4000           0   0.00000   0.00000
     10916 IM1      269      IM1      H6       HDR5B    0.073000        1.0080           0   0.00000   0.00000
     10917 IM1      269      IM1      N2       ND2R5B   2.249300       13.6070           0   -0.840000   1.00000
     10918 IM1      269      IM1      DN2      DRUD    -2.249300        0.4000           0   0.00000   0.00000
     10919 IM1      269      IM1      H7       HDP1A    0.000000        1.0080           0   0.00000   0.00000
     10920 IM1      269      IM1      LPN21    LPD     -0.474000        0.0000           -1   0.00000   0.00000
     10921 IM1      270      IM1      C1       CD33G    2.390600       11.6110           0   -1.08100   1.00000
     10922 IM1      270      IM1      DC1      DRUD    -2.551600        0.4000           0   0.00000   0.00000
     10923 IM1      270      IM1      H1       HDA3A    0.094000        1.0080           0   0.00000   0.00000
     10924 IM1      270      IM1      H2       HDA3A    0.094000        1.0080           0   0.00000   0.00000
     10925 IM1      270      IM1      H3       HDA3A    0.094000        1.0080           0   0.00000   0.00000
     10926 IM1      270      IM1      N1       ND2R5A   2.670300       13.6070           0   -1.06300   1.30000
     10927 IM1      270      IM1      DN1      DRUD    -2.530300        0.4000           0   0.00000   0.00000
     10928 IM1      270      IM1      C2       CD2R5A   2.511900       11.6110           0   -1.37800   1.30000
     10929 IM1      270      IM1      DC2      DRUD    -2.880900        0.4000           0   0.00000   0.00000
     10930 IM1      270      IM1      H4       HDR5A    0.150000        1.0080           0   0.00000   0.00000
     10931 IM1      270      IM1      C3       CD2R5A   3.068900       11.6110           0   -1.37800   1.30000
     10932 IM1      270      IM1      DC3      DRUD    -2.880900        0.4000           0   0.00000   0.00000
     10933 IM1      270      IM1      H5       HDR5A    0.053000        1.0080           0   0.00000   0.00000
     10934 IM1      270      IM1      C4       CD2R5B   2.404400       11.6110           0   -0.868000   1.30000
     10935 IM1      270      IM1      DC4      DRUD    -2.286400        0.4000           0   0.00000   0.00000
     10936 IM1      270      IM1      H6       HDR5B    0.073000        1.0080           0   0.00000   0.00000
     10937 IM1      270      IM1      N2       ND2R5B   2.249300       13.6070           0   -0.840000   1.00000
     10938 IM1      270      IM1      DN2      DRUD    -2.249300        0.4000           0   0.00000   0.00000
     10939 IM1      270      IM1      H7       HDP1A    0.000000        1.0080           0   0.00000   0.00000
     10940 IM1      270      IM1      LPN21    LPD     -0.474000        0.0000           -1   0.00000   0.00000
     10941 IM1      271      IM1      C1       CD33G    2.390600       11.6110           0   -1.08100   1.00000
     10942 IM1      271      IM1      DC1      DRUD    -2.551600        0.4000           0   0.00000   0.00000
     10943 IM1      271      IM1      H1       HDA3A    0.094000        1.0080           0   0.00000   0.00000
     10944 IM1      271      IM1      H2       HDA3A    0.094000        1.0080           0   0.00000   0.00000
     10945 IM1      271      IM1      H3       HDA3A    0.094000        1.0080           0   0.00000   0.00000
     10946 IM1      271      IM1      N1       ND2R5A   2.670300       13.6070           0   -1.06300   1.30000
     10947 IM1      271      IM1      DN1      DRUD    -2.530300        0.4000           0   0.00000   0.00000
     10948 IM1      271      IM1      C2       CD2R5A   2.511900       11.6110           0   -1.37800   1.30000
     10949 IM1      271      IM1      DC2      DRUD    -2.880900        0.4000           0   0.00000   0.00000
     10950 IM1      271      IM1      H4       HDR5A    0.150000        1.0080           0   0.00000   0.00000
     10951 IM1      271      IM1      C3       CD2R5A   3.068900       11.6110           0   -1.37800   1.30000
     10952 IM1      271      IM1      DC3      DRUD    -2.880900        0.4000           0   0.00000   0.00000
     10953 IM1      271      IM1      H5       HDR5A    0.053000        1.0080           0   0.00000   0.00000
     10954 IM1      271      IM1      C4       CD2R5B   2.404400       11.6110           0   -0.868000   1.30000
     10955 IM1      271      IM1      DC4      DRUD    -2.286400        0.4000           0   0.00000   0.00000
     10956 IM1      271      IM1      H6       HDR5B    0.073000        1.0080           0   0.00000   0.00000
     10957 IM1      271      IM1      N2       ND2R5B   2.249300       13.6070           0   -0.840000   1.00000
     10958 IM1      271      IM1      DN2      DRUD    -2.249300        0.4000           0   0.00000   0.00000
     10959 IM1      271      IM1      H7       HDP1A    0.000000        1.0080           0   0.00000   0.00000
     10960 IM1      271      IM1      LPN21    LPD     -0.474000        0.0000           -1   0.00000   0.00000
     10961 IM1      272      IM1      C1       CD33G    2.390600       11.6110           0   -1.08100   1.00000
     10962 IM1      272      IM1      DC1      DRUD    -2.551600        0.4000           0   0.00000   0.00000
     10963 IM1      272      IM1      H1       HDA3A    0.094000        1.0080           0   0.00000   0.00000
     10964 IM1      272      IM1      H2       HDA3A    0.094000        1.0080           0   0.00000   0.00000
     10965 IM1      272      IM1      H3       HDA3A    0.094000        1.0080           0   0.00000   0.00000
     10966 IM1      272      IM1      N1       ND2R5A   2.670300       13.6070           0   -1.06300   1.30000
     10967 IM1      272      IM1      DN1      DRUD    -2.530300        0.4000           0   0.00000   0.00000
     10968 IM1      272      IM1      C2       CD2R5A   2.511900       11.6110           0   -1.37800   1.30000
     10969 IM1      272      IM1      DC2      DRUD    -2.880900        0.4000           0   0.00000   0.00000
     10970 IM1      272      IM1      H4       HDR5A    0.150000        1.0080           0   0.00000   0.00000
     10971 IM1      272      IM1      C3       CD2R5A   3.068900       11.6110           0   -1.37800   1.30000
     10972 IM1      272      IM1      DC3      DRUD    -2.880900        0.4000           0   0.00000   0.00000
     10973 IM1      272      IM1      H5       HDR5A    0.053000        1.0080           0   0.00000   0.00000
     10974 IM1      272      IM1      C4       CD2R5B   2.404400       11.6110           0   -0.868000   1.30000
     10975 IM1      272      IM1      DC4      DRUD    -2.286400        0.4000           0   0.00000   0.00000
     10976 IM1      272      IM1      H6       HDR5B    0.073000        1.0080           0   0.00000   0.00000
     10977 IM1      272      IM1      N2       ND2R5B   2.249300       13.6070           0   -0.840000   1.00000
     10978 IM1      272      IM1      DN2      DRUD    -2.249300        0.4000           0   0.00000   0.00000
     10979 IM1      272      IM1      H7       HDP1A    0.000000        1.0080           0   0.00000   0.00000
     10980 IM1      272      IM1      LPN21    LPD     -0.474000        0.0000           -1   0.00000   0.00000
     10981 IM1      273      IM1      C1       CD33G    2.390600       11.6110           0   -1.08100   1.00000
     10982 IM1      273      IM1      DC1      DRUD    -2.551600        0.4000           0   0.00000   0.00000
     10983 IM1      273      IM1      H1       HDA3A    0.094000        1.0080           0   0.00000   0.00000
     10984 IM1      273      IM1      H2       HDA3A    0.094000        1.0080           0   0.00000   0.00000
     10985 IM1      273      IM1      H3       HDA3A    0.094000        1.0080           0   0.00000   0.00000
     10986 IM1      273      IM1      N1       ND2R5A   2.670300       13.6070           0   -1.06300   1.30000
     10987 IM1      273      IM1      DN1      DRUD    -2.530300        0.4000           0   0.00000   0.00000
     10988 IM1      273      IM1      C2       CD2R5A   2.511900       11.6110           0   -1.37800   1.30000
     10989 IM1      273      IM1      DC2      DRUD    -2.880900        0.4000           0   0.00000   0.00000
     10990 IM1      273      IM1      H4       HDR5A    0.150000        1.0080           0   0.00000   0.00000
     10991 IM1      273      IM1      C3       CD2R5A   3.068900       11.6110           0   -1.37800   1.30000
     10992 IM1      273      IM1      DC3      DRUD    -2.880900        0.4000           0   0.00000   0.00000
     10993 IM1      273      IM1      H5       HDR5A    0.053000        1.0080           0   0.00000   0.00000
     10994 IM1      273      IM1      C4       CD2R5B   2.404400       11.6110           0   -0.868000   1.30000
     10995 IM1      273      IM1      DC4      DRUD    -2.286400        0.4000           0   0.00000   0.00000
     10996 IM1      273      IM1      H6       HDR5B    0.073000        1.0080           0   0.00000   0.00000
     10997 IM1      273      IM1      N2       ND2R5B   2.249300       13.6070           0   -0.840000   1.00000
     10998 IM1      273      IM1      DN2      DRUD    -2.249300        0.4000           0   0.00000   0.00000
     10999 IM1      273      IM1      H7       HDP1A    0.000000        1.0080           0   0.00000   0.00000
     11000 IM1      273      IM1      LPN21    LPD     -0.474000        0.0000           -1   0.00000   0.00000
     11001 IM1      274      IM1      C1       CD33G    2.390600       11.6110           0   -1.08100   1.00000
     11002 IM1      274      IM1      DC1      DRUD    -2.551600        0.4000           0   0.00000   0.00000
     11003 IM1      274      IM1      H1       HDA3A    0.094000        1.0080           0   0.00000   0.00000
     11004 IM1      274      IM1      H2       HDA3A    0.094000        1.0080           0   0.00000   0.00000
     11005 IM1      274      IM1      H3       HDA3A    0.094000        1.0080           0   0.00000   0.00000
     11006 IM1      274      IM1      N1       ND2R5A   2.670300       13.6070           0   -1.06300   1.30000
     11007 IM1      274      IM1      DN1      DRUD    -2.530300        0.4000           0   0.00000   0.00000
     11008 IM1      274      IM1      C2       CD2R5A   2.511900       11.6110           0   -1.37800   1.30000
     11009 IM1      274      IM1      DC2      DRUD    -2.880900        0.4000           0   0.00000   0.00000
     11010 IM1      274      IM1      H4       HDR5A    0.150000        1.0080           0   0.00000   0.00000
     11011 IM1      274      IM1      C3       CD2R5A   3.068900       11.6110           0   -1.37800   1.30000
     11012 IM1      274      IM1      DC3      DRUD    -2.880900        0.4000           0   0.00000   0.00000
     11013 IM1      274      IM1      H5       HDR5A    0.053000        1.0080           0   0.00000   0.00000
     11014 IM1      274      IM1      C4       CD2R5B   2.404400       11.6110           0   -0.868000   1.30000
     11015 IM1      274      IM1      DC4      DRUD    -2.286400        0.4000           0   0.00000   0.00000
     11016 IM1      274      IM1      H6       HDR5B    0.073000        1.0080           0   0.00000   0.00000
     11017 IM1      274      IM1      N2       ND2R5B   2.249300       13.6070           0   -0.840000   1.00000
     11018 IM1      274      IM1      DN2      DRUD    -2.249300        0.4000           0   0.00000   0.00000
     11019 IM1      274      IM1      H7       HDP1A    0.000000        1.0080           0   0.00000   0.00000
     11020 IM1      274      IM1      LPN21    LPD     -0.474000        0.0000           -1   0.00000   0.00000
     11021 IM1      275      IM1      C1       CD33G    2.390600       11.6110           0   -1.08100   1.00000
     11022 IM1      275      IM1      DC1      DRUD    -2.551600        0.4000           0   0.00000   0.00000
     11023 IM1      275      IM1      H1       HDA3A    0.094000        1.0080           0   0.00000   0.00000
     11024 IM1      275      IM1      H2       HDA3A    0.094000        1.0080           0   0.00000   0.00000
     11025 IM1      275      IM1      H3       HDA3A    0.094000        1.0080           0   0.00000   0.00000
     11026 IM1      275      IM1      N1       ND2R5A   2.670300       13.6070           0   -1.06300   1.30000
     11027 IM1      275      IM1      DN1      DRUD    -2.530300        0.4000           0   0.00000   0.00000
     11028 IM1      275      IM1      C2       CD2R5A   2.511900       11.6110           0   -1.37800   1.30000
     11029 IM1      275      IM1      DC2      DRUD    -2.880900        0.4000           0   0.00000   0.00000
     11030 IM1      275      IM1      H4       HDR5A    0.150000        1.0080           0   0.00000   0.00000
     11031 IM1      275      IM1      C3       CD2R5A   3.068900       11.6110           0   -1.37800   1.30000
     11032 IM1      275      IM1      DC3      DRUD    -2.880900        0.4000           0   0.00000   0.00000
     11033 IM1      275      IM1      H5       HDR5A    0.053000        1.0080           0   0.00000   0.00000
     11034 IM1      275      IM1      C4       CD2R5B   2.404400       11.6110           0   -0.868000   1.30000
     11035 IM1      275      IM1      DC4      DRUD    -2.286400        0.4000           0   0.00000   0.00000
     11036 IM1      275      IM1      H6       HDR5B    0.073000        1.0080           0   0.00000   0.00000
     11037 IM1      275      IM1      N2       ND2R5B   2.249300       13.6070           0   -0.840000   1.00000
     11038 IM1      275      IM1      DN2      DRUD    -2.249300        0.4000           0   0.00000   0.00000
     11039 IM1      275      IM1      H7       HDP1A    0.000000        1.0080           0   0.00000   0.00000
     11040 IM1      275      IM1      LPN21    LPD     -0.474000        0.0000           -1   0.00000   0.00000
     11041 IM1      276      IM1      C1       CD33G    2.390600       11.6110           0   -1.08100   1.00000
     11042 IM1      276      IM1      DC1      DRUD    -2.551600        0.4000           0   0.00000   0.00000
     11043 IM1      276      IM1      H1       HDA3A    0.094000        1.0080           0   0.00000   0.00000
     11044 IM1      276      IM1      H2       HDA3A    0.094000        1.0080           0   0.00000   0.00000
     11045 IM1      276      IM1      H3       HDA3A    0.094000        1.0080           0   0.00000   0.00000
     11046 IM1      276      IM1      N1       ND2R5A   2.670300       13.6070           0   -1.06300   1.30000
     11047 IM1      276      IM1      DN1      DRUD    -2.530300        0.4000           0   0.00000   0.00000
     11048 IM1      276      IM1      C2       CD2R5A   2.511900       11.6110           0   -1.37800   1.30000
     11049 IM1      276      IM1      DC2      DRUD    -2.880900        0.4000           0   0.00000   0.00000
     11050 IM1      276      IM1      H4       HDR5A    0.150000        1.0080           0   0.00000   0.00000
     11051 IM1      276      IM1      C3       CD2R5A   3.068900       11.6110           0   -1.37800   1.30000
     11052 IM1      276      IM1      DC3      DRUD    -2.880900        0.4000           0   0.00000   0.00000
     11053 IM1      276      IM1      H5       HDR5A    0.053000        1.0080           0   0.00000   0.00000
     11054 IM1      276      IM1      C4       CD2R5B   2.404400       11.6110           0   -0.868000   1.30000
     11055 IM1      276      IM1      DC4      DRUD    -2.286400        0.4000           0   0.00000   0.00000
     11056 IM1      276      IM1      H6       HDR5B    0.073000        1.0080           0   0.00000   0.00000
     11057 IM1      276      IM1      N2       ND2R5B   2.249300       13.6070           0   -0.840000   1.00000
     11058 IM1      276      IM1      DN2      DRUD    -2.249300        0.4000           0   0.00000   0.00000
     11059 IM1      276      IM1      H7       HDP1A    0.000000        1.0080           0   0.00000   0.00000
     11060 IM1      276      IM1      LPN21    LPD     -0.474000        0.0000           -1   0.00000   0.00000
     11061 IM1      277      IM1      C1       CD33G    2.390600       11.6110           0   -1.08100   1.00000
     11062 IM1      277      IM1      DC1      DRUD    -2.551600        0.4000           0   0.00000   0.00000
     11063 IM1      277      IM1      H1       HDA3A    0.094000        1.0080           0   0.00000   0.00000
     11064 IM1      277      IM1      H2       HDA3A    0.094000        1.0080           0   0.00000   0.00000
     11065 IM1      277      IM1      H3       HDA3A    0.094000        1.0080           0   0.00000   0.00000
     11066 IM1      277      IM1      N1       ND2R5A   2.670300       13.6070           0   -1.06300   1.30000
     11067 IM1      277      IM1      DN1      DRUD    -2.530300        0.4000           0   0.00000   0.00000
     11068 IM1      277      IM1      C2       CD2R5A   2.511900       11.6110           0   -1.37800   1.30000
     11069 IM1      277      IM1      DC2      DRUD    -2.880900        0.4000           0   0.00000   0.00000
     11070 IM1      277      IM1      H4       HDR5A    0.150000        1.0080           0   0.00000   0.00000
     11071 IM1      277      IM1      C3       CD2R5A   3.068900       11.6110           0   -1.37800   1.30000
     11072 IM1      277      IM1      DC3      DRUD    -2.880900        0.4000           0   0.00000   0.00000
     11073 IM1      277      IM1      H5       HDR5A    0.053000        1.0080           0   0.00000   0.00000
     11074 IM1      277      IM1      C4       CD2R5B   2.404400       11.6110           0   -0.868000   1.30000
     11075 IM1      277      IM1      DC4      DRUD    -2.286400        0.4000           0   0.00000   0.00000
     11076 IM1      277      IM1      H6       HDR5B    0.073000        1.0080           0   0.00000   0.00000
     11077 IM1      277      IM1      N2       ND2R5B   2.249300       13.6070           0   -0.840000   1.00000
     11078 IM1      277      IM1      DN2      DRUD    -2.249300        0.4000           0   0.00000   0.00000
     11079 IM1      277      IM1      H7       HDP1A    0.000000        1.0080           0   0.00000   0.00000
     11080 IM1      277      IM1      LPN21    LPD     -0.474000        0.0000           -1   0.00000   0.00000
     11081 IM1      278      IM1      C1       CD33G    2.390600       11.6110           0   -1.08100   1.00000
     11082 IM1      278      IM1      DC1      DRUD    -2.551600        0.4000           0   0.00000   0.00000
     11083 IM1      278      IM1      H1       HDA3A    0.094000        1.0080           0   0.00000   0.00000
     11084 IM1      278      IM1      H2       HDA3A    0.094000        1.0080           0   0.00000   0.00000
     11085 IM1      278      IM1      H3       HDA3A    0.094000        1.0080           0   0.00000   0.00000
     11086 IM1      278      IM1      N1       ND2R5A   2.670300       13.6070           0   -1.06300   1.30000
     11087 IM1      278      IM1      DN1      DRUD    -2.530300        0.4000           0   0.00000   0.00000
     11088 IM1      278      IM1      C2       CD2R5A   2.511900       11.6110           0   -1.37800   1.30000
     11089 IM1      278      IM1      DC2      DRUD    -2.880900        0.4000           0   0.00000   0.00000
     11090 IM1      278      IM1      H4       HDR5A    0.150000        1.0080           0   0.00000   0.00000
     11091 IM1      278      IM1      C3       CD2R5A   3.068900       11.6110           0   -1.37800   1.30000
     11092 IM1      278      IM1      DC3      DRUD    -2.880900        0.4000           0   0.00000   0.00000
     11093 IM1      278      IM1      H5       HDR5A    0.053000        1.0080           0   0.00000   0.00000
     11094 IM1      278      IM1      C4       CD2R5B   2.404400       11.6110           0   -0.868000   1.30000
     11095 IM1      278      IM1      DC4      DRUD    -2.286400        0.4000           0   0.00000   0.00000
     11096 IM1      278      IM1      H6       HDR5B    0.073000        1.0080           0   0.00000   0.00000
     11097 IM1      278      IM1      N2       ND2R5B   2.249300       13.6070           0   -0.840000   1.00000
     11098 IM1      278      IM1      DN2      DRUD    -2.249300        0.4000           0   0.00000   0.00000
     11099 IM1      278      IM1      H7       HDP1A    0.000000        1.0080           0   0.00000   0.00000
     11100 IM1      278      IM1      LPN21    LPD     -0.474000        0.0000           -1   0.00000   0.00000
     11101 IM1      279      IM1      C1       CD33G    2.390600       11.6110           0   -1.08100   1.00000
     11102 IM1      279      IM1      DC1      DRUD    -2.551600        0.4000           0   0.00000   0.00000
     11103 IM1      279      IM1      H1       HDA3A    0.094000        1.0080           0   0.00000   0.00000
     11104 IM1      279      IM1      H2       HDA3A    0.094000        1.0080           0   0.00000   0.00000
     11105 IM1      279      IM1      H3       HDA3A    0.094000        1.0080           0   0.00000   0.00000
     11106 IM1      279      IM1      N1       ND2R5A   2.670300       13.6070           0   -1.06300   1.30000
     11107 IM1      279      IM1      DN1      DRUD    -2.530300        0.4000           0   0.00000   0.00000
     11108 IM1      279      IM1      C2       CD2R5A   2.511900       11.6110           0   -1.37800   1.30000
     11109 IM1      279      IM1      DC2      DRUD    -2.880900        0.4000           0   0.00000   0.00000
     11110 IM1      279      IM1      H4       HDR5A    0.150000        1.0080           0   0.00000   0.00000
     11111 IM1      279      IM1      C3       CD2R5A   3.068900       11.6110           0   -1.37800   1.30000
     11112 IM1      279      IM1      DC3      DRUD    -2.880900        0.4000           0   0.00000   0.00000
     11113 IM1      279      IM1      H5       HDR5A    0.053000        1.0080           0   0.00000   0.00000
     11114 IM1      279      IM1      C4       CD2R5B   2.404400       11.6110           0   -0.868000   1.30000
     11115 IM1      279      IM1      DC4      DRUD    -2.286400        0.4000           0   0.00000   0.00000
     11116 IM1      279      IM1      H6       HDR5B    0.073000        1.0080           0   0.00000   0.00000
     11117 IM1      279      IM1      N2       ND2R5B   2.249300       13.6070           0   -0.840000   1.00000
     11118 IM1      279      IM1      DN2      DRUD    -2.249300        0.4000           0   0.00000   0.00000
     11119 IM1      279      IM1      H7       HDP1A    0.000000        1.0080           0   0.00000   0.00000
     11120 IM1      279      IM1      LPN21    LPD     -0.474000        0.0000           -1   0.00000   0.00000
     11121 IM1      280      IM1      C1       CD33G    2.390600       11.6110           0   -1.08100   1.00000
     11122 IM1      280      IM1      DC1      DRUD    -2.551600        0.4000           0   0.00000   0.00000
     11123 IM1      280      IM1      H1       HDA3A    0.094000        1.0080           0   0.00000   0.00000
     11124 IM1      280      IM1      H2       HDA3A    0.094000        1.0080           0   0.00000   0.00000
     11125 IM1      280      IM1      H3       HDA3A    0.094000        1.0080           0   0.00000   0.00000
     11126 IM1      280      IM1      N1       ND2R5A   2.670300       13.6070           0   -1.06300   1.30000
     11127 IM1      280      IM1      DN1      DRUD    -2.530300        0.4000           0   0.00000   0.00000
     11128 IM1      280      IM1      C2       CD2R5A   2.511900       11.6110           0   -1.37800   1.30000
     11129 IM1      280      IM1      DC2      DRUD    -2.880900        0.4000           0   0.00000   0.00000
     11130 IM1      280      IM1      H4       HDR5A    0.150000        1.0080           0   0.00000   0.00000
     11131 IM1      280      IM1      C3       CD2R5A   3.068900       11.6110           0   -1.37800   1.30000
     11132 IM1      280      IM1      DC3      DRUD    -2.880900        0.4000           0   0.00000   0.00000
     11133 IM1      280      IM1      H5       HDR5A    0.053000        1.0080           0   0.00000   0.00000
     11134 IM1      280      IM1      C4       CD2R5B   2.404400       11.6110           0   -0.868000   1.30000
     11135 IM1      280      IM1      DC4      DRUD    -2.286400        0.4000           0   0.00000   0.00000
     11136 IM1      280      IM1      H6       HDR5B    0.073000        1.0080           0   0.00000   0.00000
     11137 IM1      280      IM1      N2       ND2R5B   2.249300       13.6070           0   -0.840000   1.00000
     11138 IM1      280      IM1      DN2      DRUD    -2.249300        0.4000           0   0.00000   0.00000
     11139 IM1      280      IM1      H7       HDP1A    0.000000        1.0080           0   0.00000   0.00000
     11140 IM1      280      IM1      LPN21    LPD     -0.474000        0.0000           -1   0.00000   0.00000
     11141 IM1      281      IM1      C1       CD33G    2.390600       11.6110           0   -1.08100   1.00000
     11142 IM1      281      IM1      DC1      DRUD    -2.551600        0.4000           0   0.00000   0.00000
     11143 IM1      281      IM1      H1       HDA3A    0.094000        1.0080           0   0.00000   0.00000
     11144 IM1      281      IM1      H2       HDA3A    0.094000        1.0080           0   0.00000   0.00000
     11145 IM1      281      IM1      H3       HDA3A    0.094000        1.0080           0   0.00000   0.00000
     11146 IM1      281      IM1      N1       ND2R5A   2.670300       13.6070           0   -1.06300   1.30000
     11147 IM1      281      IM1      DN1      DRUD    -2.530300        0.4000           0   0.00000   0.00000
     11148 IM1      281      IM1      C2       CD2R5A   2.511900       11.6110           0   -1.37800   1.30000
     11149 IM1      281      IM1      DC2      DRUD    -2.880900        0.4000           0   0.00000   0.00000
     11150 IM1      281      IM1      H4       HDR5A    0.150000        1.0080           0   0.00000   0.00000
     11151 IM1      281      IM1      C3       CD2R5A   3.068900       11.6110           0   -1.37800   1.30000
     11152 IM1      281      IM1      DC3      DRUD    -2.880900        0.4000           0   0.00000   0.00000
     11153 IM1      281      IM1      H5       HDR5A    0.053000        1.0080           0   0.00000   0.00000
     11154 IM1      281      IM1      C4       CD2R5B   2.404400       11.6110           0   -0.868000   1.30000
     11155 IM1      281      IM1      DC4      DRUD    -2.286400        0.4000           0   0.00000   0.00000
     11156 IM1      281      IM1      H6       HDR5B    0.073000        1.0080           0   0.00000   0.00000
     11157 IM1      281      IM1      N2       ND2R5B   2.249300       13.6070           0   -0.840000   1.00000
     11158 IM1      281      IM1      DN2      DRUD    -2.249300        0.4000           0   0.00000   0.00000
     11159 IM1      281      IM1      H7       HDP1A    0.000000        1.0080           0   0.00000   0.00000
     11160 IM1      281      IM1      LPN21    LPD     -0.474000        0.0000           -1   0.00000   0.00000
     11161 IM1      282      IM1      C1       CD33G    2.390600       11.6110           0   -1.08100   1.00000
     11162 IM1      282      IM1      DC1      DRUD    -2.551600        0.4000           0   0.00000   0.00000
     11163 IM1      282      IM1      H1       HDA3A    0.094000        1.0080           0   0.00000   0.00000
     11164 IM1      282      IM1      H2       HDA3A    0.094000        1.0080           0   0.00000   0.00000
     11165 IM1      282      IM1      H3       HDA3A    0.094000        1.0080           0   0.00000   0.00000
     11166 IM1      282      IM1      N1       ND2R5A   2.670300       13.6070           0   -1.06300   1.30000
     11167 IM1      282      IM1      DN1      DRUD    -2.530300        0.4000           0   0.00000   0.00000
     11168 IM1      282      IM1      C2       CD2R5A   2.511900       11.6110           0   -1.37800   1.30000
     11169 IM1      282      IM1      DC2      DRUD    -2.880900        0.4000           0   0.00000   0.00000
     11170 IM1      282      IM1      H4       HDR5A    0.150000        1.0080           0   0.00000   0.00000
     11171 IM1      282      IM1      C3       CD2R5A   3.068900       11.6110           0   -1.37800   1.30000
     11172 IM1      282      IM1      DC3      DRUD    -2.880900        0.4000           0   0.00000   0.00000
     11173 IM1      282      IM1      H5       HDR5A    0.053000        1.0080           0   0.00000   0.00000
     11174 IM1      282      IM1      C4       CD2R5B   2.404400       11.6110           0   -0.868000   1.30000
     11175 IM1      282      IM1      DC4      DRUD    -2.286400        0.4000           0   0.00000   0.00000
     11176 IM1      282      IM1      H6       HDR5B    0.073000        1.0080           0   0.00000   0.00000
     11177 IM1      282      IM1      N2       ND2R5B   2.249300       13.6070           0   -0.840000   1.00000
     11178 IM1      282      IM1      DN2      DRUD    -2.249300        0.4000           0   0.00000   0.00000
     11179 IM1      282      IM1      H7       HDP1A    0.000000        1.0080           0   0.00000   0.00000
     11180 IM1      282      IM1      LPN21    LPD     -0.474000        0.0000           -1   0.00000   0.00000
     11181 IM1      283      IM1      C1       CD33G    2.390600       11.6110           0   -1.08100   1.00000
     11182 IM1      283      IM1      DC1      DRUD    -2.551600        0.4000           0   0.00000   0.00000
     11183 IM1      283      IM1      H1       HDA3A    0.094000        1.0080           0   0.00000   0.00000
     11184 IM1      283      IM1      H2       HDA3A    0.094000        1.0080           0   0.00000   0.00000
     11185 IM1      283      IM1      H3       HDA3A    0.094000        1.0080           0   0.00000   0.00000
     11186 IM1      283      IM1      N1       ND2R5A   2.670300       13.6070           0   -1.06300   1.30000
     11187 IM1      283      IM1      DN1      DRUD    -2.530300        0.4000           0   0.00000   0.00000
     11188 IM1      283      IM1      C2       CD2R5A   2.511900       11.6110           0   -1.37800   1.30000
     11189 IM1      283      IM1      DC2      DRUD    -2.880900        0.4000           0   0.00000   0.00000
     11190 IM1      283      IM1      H4       HDR5A    0.150000        1.0080           0   0.00000   0.00000
     11191 IM1      283      IM1      C3       CD2R5A   3.068900       11.6110           0   -1.37800   1.30000
     11192 IM1      283      IM1      DC3      DRUD    -2.880900        0.4000           0   0.00000   0.00000
     11193 IM1      283      IM1      H5       HDR5A    0.053000        1.0080           0   0.00000   0.00000
     11194 IM1      283      IM1      C4       CD2R5B   2.404400       11.6110           0   -0.868000   1.30000
     11195 IM1      283      IM1      DC4      DRUD    -2.286400        0.4000           0   0.00000   0.00000
     11196 IM1      283      IM1      H6       HDR5B    0.073000        1.0080           0   0.00000   0.00000
     11197 IM1      283      IM1      N2       ND2R5B   2.249300       13.6070           0   -0.840000   1.00000
     11198 IM1      283      IM1      DN2      DRUD    -2.249300        0.4000           0   0.00000   0.00000
     11199 IM1      283      IM1      H7       HDP1A    0.000000        1.0080           0   0.00000   0.00000
     11200 IM1      283      IM1      LPN21    LPD     -0.474000        0.0000           -1   0.00000   0.00000
     11201 IM1      284      IM1      C1       CD33G    2.390600       11.6110           0   -1.08100   1.00000
     11202 IM1      284      IM1      DC1      DRUD    -2.551600        0.4000           0   0.00000   0.00000
     11203 IM1      284      IM1      H1       HDA3A    0.094000        1.0080           0   0.00000   0.00000
     11204 IM1      284      IM1      H2       HDA3A    0.094000        1.0080           0   0.00000   0.00000
     11205 IM1      284      IM1      H3       HDA3A    0.094000        1.0080           0   0.00000   0.00000
     11206 IM1      284      IM1      N1       ND2R5A   2.670300       13.6070           0   -1.06300   1.30000
     11207 IM1      284      IM1      DN1      DRUD    -2.530300        0.4000           0   0.00000   0.00000
     11208 IM1      284      IM1      C2       CD2R5A   2.511900       11.6110           0   -1.37800   1.30000
     11209 IM1      284      IM1      DC2      DRUD    -2.880900        0.4000           0   0.00000   0.00000
     11210 IM1      284      IM1      H4       HDR5A    0.150000        1.0080           0   0.00000   0.00000
     11211 IM1      284      IM1      C3       CD2R5A   3.068900       11.6110           0   -1.37800   1.30000
     11212 IM1      284      IM1      DC3      DRUD    -2.880900        0.4000           0   0.00000   0.00000
     11213 IM1      284      IM1      H5       HDR5A    0.053000        1.0080           0   0.00000   0.00000
     11214 IM1      284      IM1      C4       CD2R5B   2.404400       11.6110           0   -0.868000   1.30000
     11215 IM1      284      IM1      DC4      DRUD    -2.286400        0.4000           0   0.00000   0.00000
     11216 IM1      284      IM1      H6       HDR5B    0.073000        1.0080           0   0.00000   0.00000
     11217 IM1      284      IM1      N2       ND2R5B   2.249300       13.6070           0   -0.840000   1.00000
     11218 IM1      284      IM1      DN2      DRUD    -2.249300        0.4000           0   0.00000   0.00000
     11219 IM1      284      IM1      H7       HDP1A    0.000000        1.0080           0   0.00000   0.00000
     11220 IM1      284      IM1      LPN21    LPD     -0.474000        0.0000           -1   0.00000   0.00000
     11221 IM1      285      IM1      C1       CD33G    2.390600       11.6110           0   -1.08100   1.00000
     11222 IM1      285      IM1      DC1      DRUD    -2.551600        0.4000           0   0.00000   0.00000
     11223 IM1      285      IM1      H1       HDA3A    0.094000        1.0080           0   0.00000   0.00000
     11224 IM1      285      IM1      H2       HDA3A    0.094000        1.0080           0   0.00000   0.00000
     11225 IM1      285      IM1      H3       HDA3A    0.094000        1.0080           0   0.00000   0.00000
     11226 IM1      285      IM1      N1       ND2R5A   2.670300       13.6070           0   -1.06300   1.30000
     11227 IM1      285      IM1      DN1      DRUD    -2.530300        0.4000           0   0.00000   0.00000
     11228 IM1      285      IM1      C2       CD2R5A   2.511900       11.6110           0   -1.37800   1.30000
     11229 IM1      285      IM1      DC2      DRUD    -2.880900        0.4000           0   0.00000   0.00000
     11230 IM1      285      IM1      H4       HDR5A    0.150000        1.0080           0   0.00000   0.00000
     11231 IM1      285      IM1      C3       CD2R5A   3.068900       11.6110           0   -1.37800   1.30000
     11232 IM1      285      IM1      DC3      DRUD    -2.880900        0.4000           0   0.00000   0.00000
     11233 IM1      285      IM1      H5       HDR5A    0.053000        1.0080           0   0.00000   0.00000
     11234 IM1      285      IM1      C4       CD2R5B   2.404400       11.6110           0   -0.868000   1.30000
     11235 IM1      285      IM1      DC4      DRUD    -2.286400        0.4000           0   0.00000   0.00000
     11236 IM1      285      IM1      H6       HDR5B    0.073000        1.0080           0   0.00000   0.00000
     11237 IM1      285      IM1      N2       ND2R5B   2.249300       13.6070           0   -0.840000   1.00000
     11238 IM1      285      IM1      DN2      DRUD    -2.249300        0.4000           0   0.00000   0.00000
     11239 IM1      285      IM1      H7       HDP1A    0.000000        1.0080           0   0.00000   0.00000
     11240 IM1      285      IM1      LPN21    LPD     -0.474000        0.0000           -1   0.00000   0.00000
     11241 IM1      286      IM1      C1       CD33G    2.390600       11.6110           0   -1.08100   1.00000
     11242 IM1      286      IM1      DC1      DRUD    -2.551600        0.4000           0   0.00000   0.00000
     11243 IM1      286      IM1      H1       HDA3A    0.094000        1.0080           0   0.00000   0.00000
     11244 IM1      286      IM1      H2       HDA3A    0.094000        1.0080           0   0.00000   0.00000
     11245 IM1      286      IM1      H3       HDA3A    0.094000        1.0080           0   0.00000   0.00000
     11246 IM1      286      IM1      N1       ND2R5A   2.670300       13.6070           0   -1.06300   1.30000
     11247 IM1      286      IM1      DN1      DRUD    -2.530300        0.4000           0   0.00000   0.00000
     11248 IM1      286      IM1      C2       CD2R5A   2.511900       11.6110           0   -1.37800   1.30000
     11249 IM1      286      IM1      DC2      DRUD    -2.880900        0.4000           0   0.00000   0.00000
     11250 IM1      286      IM1      H4       HDR5A    0.150000        1.0080           0   0.00000   0.00000
     11251 IM1      286      IM1      C3       CD2R5A   3.068900       11.6110           0   -1.37800   1.30000
     11252 IM1      286      IM1      DC3      DRUD    -2.880900        0.4000           0   0.00000   0.00000
     11253 IM1      286      IM1      H5       HDR5A    0.053000        1.0080           0   0.00000   0.00000
     11254 IM1      286      IM1      C4       CD2R5B   2.404400       11.6110           0   -0.868000   1.30000
     11255 IM1      286      IM1      DC4      DRUD    -2.286400        0.4000           0   0.00000   0.00000
     11256 IM1      286      IM1      H6       HDR5B    0.073000        1.0080           0   0.00000   0.00000
     11257 IM1      286      IM1      N2       ND2R5B   2.249300       13.6070           0   -0.840000   1.00000
     11258 IM1      286      IM1      DN2      DRUD    -2.249300        0.4000           0   0.00000   0.00000
     11259 IM1      286      IM1      H7       HDP1A    0.000000        1.0080           0   0.00000   0.00000
     11260 IM1      286      IM1      LPN21    LPD     -0.474000        0.0000           -1   0.00000   0.00000
     11261 IM1      287      IM1      C1       CD33G    2.390600       11.6110           0   -1.08100   1.00000
     11262 IM1      287      IM1      DC1      DRUD    -2.551600        0.4000           0   0.00000   0.00000
     11263 IM1      287      IM1      H1       HDA3A    0.094000        1.0080           0   0.00000   0.00000
     11264 IM1      287      IM1      H2       HDA3A    0.094000        1.0080           0   0.00000   0.00000
     11265 IM1      287      IM1      H3       HDA3A    0.094000        1.0080           0   0.00000   0.00000
     11266 IM1      287      IM1      N1       ND2R5A   2.670300       13.6070           0   -1.06300   1.30000
     11267 IM1      287      IM1      DN1      DRUD    -2.530300        0.4000           0   0.00000   0.00000
     11268 IM1      287      IM1      C2       CD2R5A   2.511900       11.6110           0   -1.37800   1.30000
     11269 IM1      287      IM1      DC2      DRUD    -2.880900        0.4000           0   0.00000   0.00000
     11270 IM1      287      IM1      H4       HDR5A    0.150000        1.0080           0   0.00000   0.00000
     11271 IM1      287      IM1      C3       CD2R5A   3.068900       11.6110           0   -1.37800   1.30000
     11272 IM1      287      IM1      DC3      DRUD    -2.880900        0.4000           0   0.00000   0.00000
     11273 IM1      287      IM1      H5       HDR5A    0.053000        1.0080           0   0.00000   0.00000
     11274 IM1      287      IM1      C4       CD2R5B   2.404400       11.6110           0   -0.868000   1.30000
     11275 IM1      287      IM1      DC4      DRUD    -2.286400        0.4000           0   0.00000   0.00000
     11276 IM1      287      IM1      H6       HDR5B    0.073000        1.0080           0   0.00000   0.00000
     11277 IM1      287      IM1      N2       ND2R5B   2.249300       13.6070           0   -0.840000   1.00000
     11278 IM1      287      IM1      DN2      DRUD    -2.249300        0.4000           0   0.00000   0.00000
     11279 IM1      287      IM1      H7       HDP1A    0.000000        1.0080           0   0.00000   0.00000
     11280 IM1      287      IM1      LPN21    LPD     -0.474000        0.0000           -1   0.00000   0.00000
     11281 IM1      288      IM1      C1       CD33G    2.390600       11.6110           0   -1.08100   1.00000
     11282 IM1      288      IM1      DC1      DRUD    -2.551600        0.4000           0   0.00000   0.00000
     11283 IM1      288      IM1      H1       HDA3A    0.094000        1.0080           0   0.00000   0.00000
     11284 IM1      288      IM1      H2       HDA3A    0.094000        1.0080           0   0.00000   0.00000
     11285 IM1      288      IM1      H3       HDA3A    0.094000        1.0080           0   0.00000   0.00000
     11286 IM1      288      IM1      N1       ND2R5A   2.670300       13.6070           0   -1.06300   1.30000
     11287 IM1      288      IM1      DN1      DRUD    -2.530300        0.4000           0   0.00000   0.00000
     11288 IM1      288      IM1      C2       CD2R5A   2.511900       11.6110           0   -1.37800   1.30000
     11289 IM1      288      IM1      DC2      DRUD    -2.880900        0.4000           0   0.00000   0.00000
     11290 IM1      288      IM1      H4       HDR5A    0.150000        1.0080           0   0.00000   0.00000
     11291 IM1      288      IM1      C3       CD2R5A   3.068900       11.6110           0   -1.37800   1.30000
     11292 IM1      288      IM1      DC3      DRUD    -2.880900        0.4000           0   0.00000   0.00000
     11293 IM1      288      IM1      H5       HDR5A    0.053000        1.0080           0   0.00000   0.00000
     11294 IM1      288      IM1      C4       CD2R5B   2.404400       11.6110           0   -0.868000   1.30000
     11295 IM1      288      IM1      DC4      DRUD    -2.286400        0.4000           0   0.00000   0.00000
     11296 IM1      288      IM1      H6       HDR5B    0.073000        1.0080           0   0.00000   0.00000
     11297 IM1      288      IM1      N2       ND2R5B   2.249300       13.6070           0   -0.840000   1.00000
     11298 IM1      288      IM1      DN2      DRUD    -2.249300        0.4000           0   0.00000   0.00000
     11299 IM1      288      IM1      H7       HDP1A    0.000000        1.0080           0   0.00000   0.00000
     11300 IM1      288      IM1      LPN21    LPD     -0.474000        0.0000           -1   0.00000   0.00000
     11301 IM1      289      IM1      C1       CD33G    2.390600       11.6110           0   -1.08100   1.00000
     11302 IM1      289      IM1      DC1      DRUD    -2.551600        0.4000           0   0.00000   0.00000
     11303 IM1      289      IM1      H1       HDA3A    0.094000        1.0080           0   0.00000   0.00000
     11304 IM1      289      IM1      H2       HDA3A    0.094000        1.0080           0   0.00000   0.00000
     11305 IM1      289      IM1      H3       HDA3A    0.094000        1.0080           0   0.00000   0.00000
     11306 IM1      289      IM1      N1       ND2R5A   2.670300       13.6070           0   -1.06300   1.30000
     11307 IM1      289      IM1      DN1      DRUD    -2.530300        0.4000           0   0.00000   0.00000
     11308 IM1      289      IM1      C2       CD2R5A   2.511900       11.6110           0   -1.37800   1.30000
     11309 IM1      289      IM1      DC2      DRUD    -2.880900        0.4000           0   0.00000   0.00000
     11310 IM1      289      IM1      H4       HDR5A    0.150000        1.0080           0   0.00000   0.00000
     11311 IM1      289      IM1      C3       CD2R5A   3.068900       11.6110           0   -1.37800   1.30000
     11312 IM1      289      IM1      DC3      DRUD    -2.880900        0.4000           0   0.00000   0.00000
     11313 IM1      289      IM1      H5       HDR5A    0.053000        1.0080           0   0.00000   0.00000
     11314 IM1      289      IM1      C4       CD2R5B   2.404400       11.6110           0   -0.868000   1.30000
     11315 IM1      289      IM1      DC4      DRUD    -2.286400        0.4000           0   0.00000   0.00000
     11316 IM1      289      IM1      H6       HDR5B    0.073000        1.0080           0   0.00000   0.00000
     11317 IM1      289      IM1      N2       ND2R5B   2.249300       13.6070           0   -0.840000   1.00000
     11318 IM1      289      IM1      DN2      DRUD    -2.249300        0.4000           0   0.00000   0.00000
     11319 IM1      289      IM1      H7       HDP1A    0.000000        1.0080           0   0.00000   0.00000
     11320 IM1      289      IM1      LPN21    LPD     -0.474000        0.0000           -1   0.00000   0.00000
     11321 IM1      290      IM1      C1       CD33G    2.390600       11.6110           0   -1.08100   1.00000
     11322 IM1      290      IM1      DC1      DRUD    -2.551600        0.4000           0   0.00000   0.00000
     11323 IM1      290      IM1      H1       HDA3A    0.094000        1.0080           0   0.00000   0.00000
     11324 IM1      290      IM1      H2       HDA3A    0.094000        1.0080           0   0.00000   0.00000
     11325 IM1      290      IM1      H3       HDA3A    0.094000        1.0080           0   0.00000   0.00000
     11326 IM1      290      IM1      N1       ND2R5A   2.670300       13.6070           0   -1.06300   1.30000
     11327 IM1      290      IM1      DN1      DRUD    -2.530300        0.4000           0   0.00000   0.00000
     11328 IM1      290      IM1      C2       CD2R5A   2.511900       11.6110           0   -1.37800   1.30000
     11329 IM1      290      IM1      DC2      DRUD    -2.880900        0.4000           0   0.00000   0.00000
     11330 IM1      290      IM1      H4       HDR5A    0.150000        1.0080           0   0.00000   0.00000
     11331 IM1      290      IM1      C3       CD2R5A   3.068900       11.6110           0   -1.37800   1.30000
     11332 IM1      290      IM1      DC3      DRUD    -2.880900        0.4000           0   0.00000   0.00000
     11333 IM1      290      IM1      H5       HDR5A    0.053000        1.0080           0   0.00000   0.00000
     11334 IM1      290      IM1      C4       CD2R5B   2.404400       11.6110           0   -0.868000   1.30000
     11335 IM1      290      IM1      DC4      DRUD    -2.286400        0.4000           0   0.00000   0.00000
     11336 IM1      290      IM1      H6       HDR5B    0.073000        1.0080           0   0.00000   0.00000
     11337 IM1      290      IM1      N2       ND2R5B   2.249300       13.6070           0   -0.840000   1.00000
     11338 IM1      290      IM1      DN2      DRUD    -2.249300        0.4000           0   0.00000   0.00000
     11339 IM1      290      IM1      H7       HDP1A    0.000000        1.0080           0   0.00000   0.00000
     11340 IM1      290      IM1      LPN21    LPD     -0.474000        0.0000           -1   0.00000   0.00000
     11341 IM1      291      IM1      C1       CD33G    2.390600       11.6110           0   -1.08100   1.00000
     11342 IM1      291      IM1      DC1      DRUD    -2.551600        0.4000           0   0.00000   0.00000
     11343 IM1      291      IM1      H1       HDA3A    0.094000        1.0080           0   0.00000   0.00000
     11344 IM1      291      IM1      H2       HDA3A    0.094000        1.0080           0   0.00000   0.00000
     11345 IM1      291      IM1      H3       HDA3A    0.094000        1.0080           0   0.00000   0.00000
     11346 IM1      291      IM1      N1       ND2R5A   2.670300       13.6070           0   -1.06300   1.30000
     11347 IM1      291      IM1      DN1      DRUD    -2.530300        0.4000           0   0.00000   0.00000
     11348 IM1      291      IM1      C2       CD2R5A   2.511900       11.6110           0   -1.37800   1.30000
     11349 IM1      291      IM1      DC2      DRUD    -2.880900        0.4000           0   0.00000   0.00000
     11350 IM1      291      IM1      H4       HDR5A    0.150000        1.0080           0   0.00000   0.00000
     11351 IM1      291      IM1      C3       CD2R5A   3.068900       11.6110           0   -1.37800   1.30000
     11352 IM1      291      IM1      DC3      DRUD    -2.880900        0.4000           0   0.00000   0.00000
     11353 IM1      291      IM1      H5       HDR5A    0.053000        1.0080           0   0.00000   0.00000
     11354 IM1      291      IM1      C4       CD2R5B   2.404400       11.6110           0   -0.868000   1.30000
     11355 IM1      291      IM1      DC4      DRUD    -2.286400        0.4000           0   0.00000   0.00000
     11356 IM1      291      IM1      H6       HDR5B    0.073000        1.0080           0   0.00000   0.00000
     11357 IM1      291      IM1      N2       ND2R5B   2.249300       13.6070           0   -0.840000   1.00000
     11358 IM1      291      IM1      DN2      DRUD    -2.249300        0.4000           0   0.00000   0.00000
     11359 IM1      291      IM1      H7       HDP1A    0.000000        1.0080           0   0.00000   0.00000
     11360 IM1      291      IM1      LPN21    LPD     -0.474000        0.0000           -1   0.00000   0.00000
     11361 IM1      292      IM1      C1       CD33G    2.390600       11.6110           0   -1.08100   1.00000
     11362 IM1      292      IM1      DC1      DRUD    -2.551600        0.4000           0   0.00000   0.00000
     11363 IM1      292      IM1      H1       HDA3A    0.094000        1.0080           0   0.00000   0.00000
     11364 IM1      292      IM1      H2       HDA3A    0.094000        1.0080           0   0.00000   0.00000
     11365 IM1      292      IM1      H3       HDA3A    0.094000        1.0080           0   0.00000   0.00000
     11366 IM1      292      IM1      N1       ND2R5A   2.670300       13.6070           0   -1.06300   1.30000
     11367 IM1      292      IM1      DN1      DRUD    -2.530300        0.4000           0   0.00000   0.00000
     11368 IM1      292      IM1      C2       CD2R5A   2.511900       11.6110           0   -1.37800   1.30000
     11369 IM1      292      IM1      DC2      DRUD    -2.880900        0.4000           0   0.00000   0.00000
     11370 IM1      292      IM1      H4       HDR5A    0.150000        1.0080           0   0.00000   0.00000
     11371 IM1      292      IM1      C3       CD2R5A   3.068900       11.6110           0   -1.37800   1.30000
     11372 IM1      292      IM1      DC3      DRUD    -2.880900        0.4000           0   0.00000   0.00000
     11373 IM1      292      IM1      H5       HDR5A    0.053000        1.0080           0   0.00000   0.00000
     11374 IM1      292      IM1      C4       CD2R5B   2.404400       11.6110           0   -0.868000   1.30000
     11375 IM1      292      IM1      DC4      DRUD    -2.286400        0.4000           0   0.00000   0.00000
     11376 IM1      292      IM1      H6       HDR5B    0.073000        1.0080           0   0.00000   0.00000
     11377 IM1      292      IM1      N2       ND2R5B   2.249300       13.6070           0   -0.840000   1.00000
     11378 IM1      292      IM1      DN2      DRUD    -2.249300        0.4000           0   0.00000   0.00000
     11379 IM1      292      IM1      H7       HDP1A    0.000000        1.0080           0   0.00000   0.00000
     11380 IM1      292      IM1      LPN21    LPD     -0.474000        0.0000           -1   0.00000   0.00000
     11381 IM1      293      IM1      C1       CD33G    2.390600       11.6110           0   -1.08100   1.00000
     11382 IM1      293      IM1      DC1      DRUD    -2.551600        0.4000           0   0.00000   0.00000
     11383 IM1      293      IM1      H1       HDA3A    0.094000        1.0080           0   0.00000   0.00000
     11384 IM1      293      IM1      H2       HDA3A    0.094000        1.0080           0   0.00000   0.00000
     11385 IM1      293      IM1      H3       HDA3A    0.094000        1.0080           0   0.00000   0.00000
     11386 IM1      293      IM1      N1       ND2R5A   2.670300       13.6070           0   -1.06300   1.30000
     11387 IM1      293      IM1      DN1      DRUD    -2.530300        0.4000           0   0.00000   0.00000
     11388 IM1      293      IM1      C2       CD2R5A   2.511900       11.6110           0   -1.37800   1.30000
     11389 IM1      293      IM1      DC2      DRUD    -2.880900        0.4000           0   0.00000   0.00000
     11390 IM1      293      IM1      H4       HDR5A    0.150000        1.0080           0   0.00000   0.00000
     11391 IM1      293      IM1      C3       CD2R5A   3.068900       11.6110           0   -1.37800   1.30000
     11392 IM1      293      IM1      DC3      DRUD    -2.880900        0.4000           0   0.00000   0.00000
     11393 IM1      293      IM1      H5       HDR5A    0.053000        1.0080           0   0.00000   0.00000
     11394 IM1      293      IM1      C4       CD2R5B   2.404400       11.6110           0   -0.868000   1.30000
     11395 IM1      293      IM1      DC4      DRUD    -2.286400        0.4000           0   0.00000   0.00000
     11396 IM1      293      IM1      H6       HDR5B    0.073000        1.0080           0   0.00000   0.00000
     11397 IM1      293      IM1      N2       ND2R5B   2.249300       13.6070           0   -0.840000   1.00000
     11398 IM1      293      IM1      DN2      DRUD    -2.249300        0.4000           0   0.00000   0.00000
     11399 IM1      293      IM1      H7       HDP1A    0.000000        1.0080           0   0.00000   0.00000
     11400 IM1      293      IM1      LPN21    LPD     -0.474000        0.0000           -1   0.00000   0.00000
     11401 IM1      294      IM1      C1       CD33G    2.390600       11.6110           0   -1.08100   1.00000
     11402 IM1      294      IM1      DC1      DRUD    -2.551600        0.4000           0   0.00000   0.00000
     11403 IM1      294      IM1      H1       HDA3A    0.094000        1.0080           0   0.00000   0.00000
     11404 IM1      294      IM1      H2       HDA3A    0.094000        1.0080           0   0.00000   0.00000
     11405 IM1      294      IM1      H3       HDA3A    0.094000        1.0080           0   0.00000   0.00000
     11406 IM1      294      IM1      N1       ND2R5A   2.670300       13.6070           0   -1.06300   1.30000
     11407 IM1      294      IM1      DN1      DRUD    -2.530300        0.4000           0   0.00000   0.00000
     11408 IM1      294      IM1      C2       CD2R5A   2.511900       11.6110           0   -1.37800   1.30000
     11409 IM1      294      IM1      DC2      DRUD    -2.880900        0.4000           0   0.00000   0.00000
     11410 IM1      294      IM1      H4       HDR5A    0.150000        1.0080           0   0.00000   0.00000
     11411 IM1      294      IM1      C3       CD2R5A   3.068900       11.6110           0   -1.37800   1.30000
     11412 IM1      294      IM1      DC3      DRUD    -2.880900        0.4000           0   0.00000   0.00000
     11413 IM1      294      IM1      H5       HDR5A    0.053000        1.0080           0   0.00000   0.00000
     11414 IM1      294      IM1      C4       CD2R5B   2.404400       11.6110           0   -0.868000   1.30000
     11415 IM1      294      IM1      DC4      DRUD    -2.286400        0.4000           0   0.00000   0.00000
     11416 IM1      294      IM1      H6       HDR5B    0.073000        1.0080           0   0.00000   0.00000
     11417 IM1      294      IM1      N2       ND2R5B   2.249300       13.6070           0   -0.840000   1.00000
     11418 IM1      294      IM1      DN2      DRUD    -2.249300        0.4000           0   0.00000   0.00000
     11419 IM1      294      IM1      H7       HDP1A    0.000000        1.0080           0   0.00000   0.00000
     11420 IM1      294      IM1      LPN21    LPD     -0.474000        0.0000           -1   0.00000   0.00000
     11421 IM1      295      IM1      C1       CD33G    2.390600       11.6110           0   -1.08100   1.00000
     11422 IM1      295      IM1      DC1      DRUD    -2.551600        0.4000           0   0.00000   0.00000
     11423 IM1      295      IM1      H1       HDA3A    0.094000        1.0080           0   0.00000   0.00000
     11424 IM1      295      IM1      H2       HDA3A    0.094000        1.0080           0   0.00000   0.00000
     11425 IM1      295      IM1      H3       HDA3A    0.094000        1.0080           0   0.00000   0.00000
     11426 IM1      295      IM1      N1       ND2R5A   2.670300       13.6070           0   -1.06300   1.30000
     11427 IM1      295      IM1      DN1      DRUD    -2.530300        0.4000           0   0.00000   0.00000
     11428 IM1      295      IM1      C2       CD2R5A   2.511900       11.6110           0   -1.37800   1.30000
     11429 IM1      295      IM1      DC2      DRUD    -2.880900        0.4000           0   0.00000   0.00000
     11430 IM1      295      IM1      H4       HDR5A    0.150000        1.0080           0   0.00000   0.00000
     11431 IM1      295      IM1      C3       CD2R5A   3.068900       11.6110           0   -1.37800   1.30000
     11432 IM1      295      IM1      DC3      DRUD    -2.880900        0.4000           0   0.00000   0.00000
     11433 IM1      295      IM1      H5       HDR5A    0.053000        1.0080           0   0.00000   0.00000
     11434 IM1      295      IM1      C4       CD2R5B   2.404400       11.6110           0   -0.868000   1.30000
     11435 IM1      295      IM1      DC4      DRUD    -2.286400        0.4000           0   0.00000   0.00000
     11436 IM1      295      IM1      H6       HDR5B    0.073000        1.0080           0   0.00000   0.00000
     11437 IM1      295      IM1      N2       ND2R5B   2.249300       13.6070           0   -0.840000   1.00000
     11438 IM1      295      IM1      DN2      DRUD    -2.249300        0.4000           0   0.00000   0.00000
     11439 IM1      295      IM1      H7       HDP1A    0.000000        1.0080           0   0.00000   0.00000
     11440 IM1      295      IM1      LPN21    LPD     -0.474000        0.0000           -1   0.00000   0.00000
     11441 IM1      296      IM1      C1       CD33G    2.390600       11.6110           0   -1.08100   1.00000
     11442 IM1      296      IM1      DC1      DRUD    -2.551600        0.4000           0   0.00000   0.00000
     11443 IM1      296      IM1      H1       HDA3A    0.094000        1.0080           0   0.00000   0.00000
     11444 IM1      296      IM1      H2       HDA3A    0.094000        1.0080           0   0.00000   0.00000
     11445 IM1      296      IM1      H3       HDA3A    0.094000        1.0080           0   0.00000   0.00000
     11446 IM1      296      IM1      N1       ND2R5A   2.670300       13.6070           0   -1.06300   1.30000
     11447 IM1      296      IM1      DN1      DRUD    -2.530300        0.4000           0   0.00000   0.00000
     11448 IM1      296      IM1      C2       CD2R5A   2.511900       11.6110           0   -1.37800   1.30000
     11449 IM1      296      IM1      DC2      DRUD    -2.880900        0.4000           0   0.00000   0.00000
     11450 IM1      296      IM1      H4       HDR5A    0.150000        1.0080           0   0.00000   0.00000
     11451 IM1      296      IM1      C3       CD2R5A   3.068900       11.6110           0   -1.37800   1.30000
     11452 IM1      296      IM1      DC3      DRUD    -2.880900        0.4000           0   0.00000   0.00000
     11453 IM1      296      IM1      H5       HDR5A    0.053000        1.0080           0   0.00000   0.00000
     11454 IM1      296      IM1      C4       CD2R5B   2.404400       11.6110           0   -0.868000   1.30000
     11455 IM1      296      IM1      DC4      DRUD    -2.286400        0.4000           0   0.00000   0.00000
     11456 IM1      296      IM1      H6       HDR5B    0.073000        1.0080           0   0.00000   0.00000
     11457 IM1      296      IM1      N2       ND2R5B   2.249300       13.6070           0   -0.840000   1.00000
     11458 IM1      296      IM1      DN2      DRUD    -2.249300        0.4000           0   0.00000   0.00000
     11459 IM1      296      IM1      H7       HDP1A    0.000000        1.0080           0   0.00000   0.00000
     11460 IM1      296      IM1      LPN21    LPD     -0.474000        0.0000           -1   0.00000   0.00000
     11461 IM1      297      IM1      C1       CD33G    2.390600       11.6110           0   -1.08100   1.00000
     11462 IM1      297      IM1      DC1      DRUD    -2.551600        0.4000           0   0.00000   0.00000
     11463 IM1      297      IM1      H1       HDA3A    0.094000        1.0080           0   0.00000   0.00000
     11464 IM1      297      IM1      H2       HDA3A    0.094000        1.0080           0   0.00000   0.00000
     11465 IM1      297      IM1      H3       HDA3A    0.094000        1.0080           0   0.00000   0.00000
     11466 IM1      297      IM1      N1       ND2R5A   2.670300       13.6070           0   -1.06300   1.30000
     11467 IM1      297      IM1      DN1      DRUD    -2.530300        0.4000           0   0.00000   0.00000
     11468 IM1      297      IM1      C2       CD2R5A   2.511900       11.6110           0   -1.37800   1.30000
     11469 IM1      297      IM1      DC2      DRUD    -2.880900        0.4000           0   0.00000   0.00000
     11470 IM1      297      IM1      H4       HDR5A    0.150000        1.0080           0   0.00000   0.00000
     11471 IM1      297      IM1      C3       CD2R5A   3.068900       11.6110           0   -1.37800   1.30000
     11472 IM1      297      IM1      DC3      DRUD    -2.880900        0.4000           0   0.00000   0.00000
     11473 IM1      297      IM1      H5       HDR5A    0.053000        1.0080           0   0.00000   0.00000
     11474 IM1      297      IM1      C4       CD2R5B   2.404400       11.6110           0   -0.868000   1.30000
     11475 IM1      297      IM1      DC4      DRUD    -2.286400        0.4000           0   0.00000   0.00000
     11476 IM1      297      IM1      H6       HDR5B    0.073000        1.0080           0   0.00000   0.00000
     11477 IM1      297      IM1      N2       ND2R5B   2.249300       13.6070           0   -0.840000   1.00000
     11478 IM1      297      IM1      DN2      DRUD    -2.249300        0.4000           0   0.00000   0.00000
     11479 IM1      297      IM1      H7       HDP1A    0.000000        1.0080           0   0.00000   0.00000
     11480 IM1      297      IM1      LPN21    LPD     -0.474000        0.0000           -1   0.00000   0.00000
     11481 IM1      298      IM1      C1       CD33G    2.390600       11.6110           0   -1.08100   1.00000
     11482 IM1      298      IM1      DC1      DRUD    -2.551600        0.4000           0   0.00000   0.00000
     11483 IM1      298      IM1      H1       HDA3A    0.094000        1.0080           0   0.00000   0.00000
     11484 IM1      298      IM1      H2       HDA3A    0.094000        1.0080           0   0.00000   0.00000
     11485 IM1      298      IM1      H3       HDA3A    0.094000        1.0080           0   0.00000   0.00000
     11486 IM1      298      IM1      N1       ND2R5A   2.670300       13.6070           0   -1.06300   1.30000
     11487 IM1      298      IM1      DN1      DRUD    -2.530300        0.4000           0   0.00000   0.00000
     11488 IM1      298      IM1      C2       CD2R5A   2.511900       11.6110           0   -1.37800   1.30000
     11489 IM1      298      IM1      DC2      DRUD    -2.880900        0.4000           0   0.00000   0.00000
     11490 IM1      298      IM1      H4       HDR5A    0.150000        1.0080           0   0.00000   0.00000
     11491 IM1      298      IM1      C3       CD2R5A   3.068900       11.6110           0   -1.37800   1.30000
     11492 IM1      298      IM1      DC3      DRUD    -2.880900        0.4000           0   0.00000   0.00000
     11493 IM1      298      IM1      H5       HDR5A    0.053000        1.0080           0   0.00000   0.00000
     11494 IM1      298      IM1      C4       CD2R5B   2.404400       11.6110           0   -0.868000   1.30000
     11495 IM1      298      IM1      DC4      DRUD    -2.286400        0.4000           0   0.00000   0.00000
     11496 IM1      298      IM1      H6       HDR5B    0.073000        1.0080           0   0.00000   0.00000
     11497 IM1      298      IM1      N2       ND2R5B   2.249300       13.6070           0   -0.840000   1.00000
     11498 IM1      298      IM1      DN2      DRUD    -2.249300        0.4000           0   0.00000   0.00000
     11499 IM1      298      IM1      H7       HDP1A    0.000000        1.0080           0   0.00000   0.00000
     11500 IM1      298      IM1      LPN21    LPD     -0.474000        0.0000           -1   0.00000   0.00000
     11501 IM1      299      IM1      C1       CD33G    2.390600       11.6110           0   -1.08100   1.00000
     11502 IM1      299      IM1      DC1      DRUD    -2.551600        0.4000           0   0.00000   0.00000
     11503 IM1      299      IM1      H1       HDA3A    0.094000        1.0080           0   0.00000   0.00000
     11504 IM1      299      IM1      H2       HDA3A    0.094000        1.0080           0   0.00000   0.00000
     11505 IM1      299      IM1      H3       HDA3A    0.094000        1.0080           0   0.00000   0.00000
     11506 IM1      299      IM1      N1       ND2R5A   2.670300       13.6070           0   -1.06300   1.30000
     11507 IM1      299      IM1      DN1      DRUD    -2.530300        0.4000           0   0.00000   0.00000
     11508 IM1      299      IM1      C2       CD2R5A   2.511900       11.6110           0   -1.37800   1.30000
     11509 IM1      299      IM1      DC2      DRUD    -2.880900        0.4000           0   0.00000   0.00000
     11510 IM1      299      IM1      H4       HDR5A    0.150000        1.0080           0   0.00000   0.00000
     11511 IM1      299      IM1      C3       CD2R5A   3.068900       11.6110           0   -1.37800   1.30000
     11512 IM1      299      IM1      DC3      DRUD    -2.880900        0.4000           0   0.00000   0.00000
     11513 IM1      299      IM1      H5       HDR5A    0.053000        1.0080           0   0.00000   0.00000
     11514 IM1      299      IM1      C4       CD2R5B   2.404400       11.6110           0   -0.868000   1.30000
     11515 IM1      299      IM1      DC4      DRUD    -2.286400        0.4000           0   0.00000   0.00000
     11516 IM1      299      IM1      H6       HDR5B    0.073000        1.0080           0   0.00000   0.00000
     11517 IM1      299      IM1      N2       ND2R5B   2.249300       13.6070           0   -0.840000   1.00000
     11518 IM1      299      IM1      DN2      DRUD    -2.249300        0.4000           0   0.00000   0.00000
     11519 IM1      299      IM1      H7       HDP1A    0.000000        1.0080           0   0.00000   0.00000
     11520 IM1      299      IM1      LPN21    LPD     -0.474000        0.0000           -1   0.00000   0.00000
     11521 IM1      300      IM1      C1       CD33G    2.390600       11.6110           0   -1.08100   1.00000
     11522 IM1      300      IM1      DC1      DRUD    -2.551600        0.4000           0   0.00000   0.00000
     11523 IM1      300      IM1      H1       HDA3A    0.094000        1.0080           0   0.00000   0.00000
     11524 IM1      300      IM1      H2       HDA3A    0.094000        1.0080           0   0.00000   0.00000
     11525 IM1      300      IM1      H3       HDA3A    0.094000        1.0080           0   0.00000   0.00000
     11526 IM1      300      IM1      N1       ND2R5A   2.670300       13.6070           0   -1.06300   1.30000
     11527 IM1      300      IM1      DN1      DRUD    -2.530300        0.4000           0   0.00000   0.00000
     11528 IM1      300      IM1      C2       CD2R5A   2.511900       11.6110           0   -1.37800   1.30000
     11529 IM1      300      IM1      DC2      DRUD    -2.880900        0.4000           0   0.00000   0.00000
     11530 IM1      300      IM1      H4       HDR5A    0.150000        1.0080           0   0.00000   0.00000
     11531 IM1      300      IM1      C3       CD2R5A   3.068900       11.6110           0   -1.37800   1.30000
     11532 IM1      300      IM1      DC3      DRUD    -2.880900        0.4000           0   0.00000   0.00000
     11533 IM1      300      IM1      H5       HDR5A    0.053000        1.0080           0   0.00000   0.00000
     11534 IM1      300      IM1      C4       CD2R5B   2.404400       11.6110           0   -0.868000   1.30000
     11535 IM1      300      IM1      DC4      DRUD    -2.286400        0.4000           0   0.00000   0.00000
     11536 IM1      300      IM1      H6       HDR5B    0.073000        1.0080           0   0.00000   0.00000
     11537 IM1      300      IM1      N2       ND2R5B   2.249300       13.6070           0   -0.840000   1.00000
     11538 IM1      300      IM1      DN2      DRUD    -2.249300        0.4000           0   0.00000   0.00000
     11539 IM1      300      IM1      H7       HDP1A    0.000000        1.0080           0   0.00000   0.00000
     11540 IM1      300      IM1      LPN21    LPD     -0.474000        0.0000           -1   0.00000   0.00000
     11541 IM1      301      IM1      C1       CD33G    2.390600       11.6110           0   -1.08100   1.00000
     11542 IM1      301      IM1      DC1      DRUD    -2.551600        0.4000           0   0.00000   0.00000
     11543 IM1      301      IM1      H1       HDA3A    0.094000        1.0080           0   0.00000   0.00000
     11544 IM1      301      IM1      H2       HDA3A    0.094000        1.0080           0   0.00000   0.00000
     11545 IM1      301      IM1      H3       HDA3A    0.094000        1.0080           0   0.00000   0.00000
     11546 IM1      301      IM1      N1       ND2R5A   2.670300       13.6070           0   -1.06300   1.30000
     11547 IM1      301      IM1      DN1      DRUD    -2.530300        0.4000           0   0.00000   0.00000
     11548 IM1      301      IM1      C2       CD2R5A   2.511900       11.6110           0   -1.37800   1.30000
     11549 IM1      301      IM1      DC2      DRUD    -2.880900        0.4000           0   0.00000   0.00000
     11550 IM1      301      IM1      H4       HDR5A    0.150000        1.0080           0   0.00000   0.00000
     11551 IM1      301      IM1      C3       CD2R5A   3.068900       11.6110           0   -1.37800   1.30000
     11552 IM1      301      IM1      DC3      DRUD    -2.880900        0.4000           0   0.00000   0.00000
     11553 IM1      301      IM1      H5       HDR5A    0.053000        1.0080           0   0.00000   0.00000
     11554 IM1      301      IM1      C4       CD2R5B   2.404400       11.6110           0   -0.868000   1.30000
     11555 IM1      301      IM1      DC4      DRUD    -2.286400        0.4000           0   0.00000   0.00000
     11556 IM1      301      IM1      H6       HDR5B    0.073000        1.0080           0   0.00000   0.00000
     11557 IM1      301      IM1      N2       ND2R5B   2.249300       13.6070           0   -0.840000   1.00000
     11558 IM1      301      IM1      DN2      DRUD    -2.249300        0.4000           0   0.00000   0.00000
     11559 IM1      301      IM1      H7       HDP1A    0.000000        1.0080           0   0.00000   0.00000
     11560 IM1      301      IM1      LPN21    LPD     -0.474000        0.0000           -1   0.00000   0.00000
     11561 IM1      302      IM1      C1       CD33G    2.390600       11.6110           0   -1.08100   1.00000
     11562 IM1      302      IM1      DC1      DRUD    -2.551600        0.4000           0   0.00000   0.00000
     11563 IM1      302      IM1      H1       HDA3A    0.094000        1.0080           0   0.00000   0.00000
     11564 IM1      302      IM1      H2       HDA3A    0.094000        1.0080           0   0.00000   0.00000
     11565 IM1      302      IM1      H3       HDA3A    0.094000        1.0080           0   0.00000   0.00000
     11566 IM1      302      IM1      N1       ND2R5A   2.670300       13.6070           0   -1.06300   1.30000
     11567 IM1      302      IM1      DN1      DRUD    -2.530300        0.4000           0   0.00000   0.00000
     11568 IM1      302      IM1      C2       CD2R5A   2.511900       11.6110           0   -1.37800   1.30000
     11569 IM1      302      IM1      DC2      DRUD    -2.880900        0.4000           0   0.00000   0.00000
     11570 IM1      302      IM1      H4       HDR5A    0.150000        1.0080           0   0.00000   0.00000
     11571 IM1      302      IM1      C3       CD2R5A   3.068900       11.6110           0   -1.37800   1.30000
     11572 IM1      302      IM1      DC3      DRUD    -2.880900        0.4000           0   0.00000   0.00000
     11573 IM1      302      IM1      H5       HDR5A    0.053000        1.0080           0   0.00000   0.00000
     11574 IM1      302      IM1      C4       CD2R5B   2.404400       11.6110           0   -0.868000   1.30000
     11575 IM1      302      IM1      DC4      DRUD    -2.286400        0.4000           0   0.00000   0.00000
     11576 IM1      302      IM1      H6       HDR5B    0.073000        1.0080           0   0.00000   0.00000
     11577 IM1      302      IM1      N2       ND2R5B   2.249300       13.6070           0   -0.840000   1.00000
     11578 IM1      302      IM1      DN2      DRUD    -2.249300        0.4000           0   0.00000   0.00000
     11579 IM1      302      IM1      H7       HDP1A    0.000000        1.0080           0   0.00000   0.00000
     11580 IM1      302      IM1      LPN21    LPD     -0.474000        0.0000           -1   0.00000   0.00000
     11581 IM1      303      IM1      C1       CD33G    2.390600       11.6110           0   -1.08100   1.00000
     11582 IM1      303      IM1      DC1      DRUD    -2.551600        0.4000           0   0.00000   0.00000
     11583 IM1      303      IM1      H1       HDA3A    0.094000        1.0080           0   0.00000   0.00000
     11584 IM1      303      IM1      H2       HDA3A    0.094000        1.0080           0   0.00000   0.00000
     11585 IM1      303      IM1      H3       HDA3A    0.094000        1.0080           0   0.00000   0.00000
     11586 IM1      303      IM1      N1       ND2R5A   2.670300       13.6070           0   -1.06300   1.30000
     11587 IM1      303      IM1      DN1      DRUD    -2.530300        0.4000           0   0.00000   0.00000
     11588 IM1      303      IM1      C2       CD2R5A   2.511900       11.6110           0   -1.37800   1.30000
     11589 IM1      303      IM1      DC2      DRUD    -2.880900        0.4000           0   0.00000   0.00000
     11590 IM1      303      IM1      H4       HDR5A    0.150000        1.0080           0   0.00000   0.00000
     11591 IM1      303      IM1      C3       CD2R5A   3.068900       11.6110           0   -1.37800   1.30000
     11592 IM1      303      IM1      DC3      DRUD    -2.880900        0.4000           0   0.00000   0.00000
     11593 IM1      303      IM1      H5       HDR5A    0.053000        1.0080           0   0.00000   0.00000
     11594 IM1      303      IM1      C4       CD2R5B   2.404400       11.6110           0   -0.868000   1.30000
     11595 IM1      303      IM1      DC4      DRUD    -2.286400        0.4000           0   0.00000   0.00000
     11596 IM1      303      IM1      H6       HDR5B    0.073000        1.0080           0   0.00000   0.00000
     11597 IM1      303      IM1      N2       ND2R5B   2.249300       13.6070           0   -0.840000   1.00000
     11598 IM1      303      IM1      DN2      DRUD    -2.249300        0.4000           0   0.00000   0.00000
     11599 IM1      303      IM1      H7       HDP1A    0.000000        1.0080           0   0.00000   0.00000
     11600 IM1      303      IM1      LPN21    LPD     -0.474000        0.0000           -1   0.00000   0.00000
     11601 IM1      304      IM1      C1       CD33G    2.390600       11.6110           0   -1.08100   1.00000
     11602 IM1      304      IM1      DC1      DRUD    -2.551600        0.4000           0   0.00000   0.00000
     11603 IM1      304      IM1      H1       HDA3A    0.094000        1.0080           0   0.00000   0.00000
     11604 IM1      304      IM1      H2       HDA3A    0.094000        1.0080           0   0.00000   0.00000
     11605 IM1      304      IM1      H3       HDA3A    0.094000        1.0080           0   0.00000   0.00000
     11606 IM1      304      IM1      N1       ND2R5A   2.670300       13.6070           0   -1.06300   1.30000
     11607 IM1      304      IM1      DN1      DRUD    -2.530300        0.4000           0   0.00000   0.00000
     11608 IM1      304      IM1      C2       CD2R5A   2.511900       11.6110           0   -1.37800   1.30000
     11609 IM1      304      IM1      DC2      DRUD    -2.880900        0.4000           0   0.00000   0.00000
     11610 IM1      304      IM1      H4       HDR5A    0.150000        1.0080           0   0.00000   0.00000
     11611 IM1      304      IM1      C3       CD2R5A   3.068900       11.6110           0   -1.37800   1.30000
     11612 IM1      304      IM1      DC3      DRUD    -2.880900        0.4000           0   0.00000   0.00000
     11613 IM1      304      IM1      H5       HDR5A    0.053000        1.0080           0   0.00000   0.00000
     11614 IM1      304      IM1      C4       CD2R5B   2.404400       11.6110           0   -0.868000   1.30000
     11615 IM1      304      IM1      DC4      DRUD    -2.286400        0.4000           0   0.00000   0.00000
     11616 IM1      304      IM1      H6       HDR5B    0.073000        1.0080           0   0.00000   0.00000
     11617 IM1      304      IM1      N2       ND2R5B   2.249300       13.6070           0   -0.840000   1.00000
     11618 IM1      304      IM1      DN2      DRUD    -2.249300        0.4000           0   0.00000   0.00000
     11619 IM1      304      IM1      H7       HDP1A    0.000000        1.0080           0   0.00000   0.00000
     11620 IM1      304      IM1      LPN21    LPD     -0.474000        0.0000           -1   0.00000   0.00000
     11621 IM1      305      IM1      C1       CD33G    2.390600       11.6110           0   -1.08100   1.00000
     11622 IM1      305      IM1      DC1      DRUD    -2.551600        0.4000           0   0.00000   0.00000
     11623 IM1      305      IM1      H1       HDA3A    0.094000        1.0080           0   0.00000   0.00000
     11624 IM1      305      IM1      H2       HDA3A    0.094000        1.0080           0   0.00000   0.00000
     11625 IM1      305      IM1      H3       HDA3A    0.094000        1.0080           0   0.00000   0.00000
     11626 IM1      305      IM1      N1       ND2R5A   2.670300       13.6070           0   -1.06300   1.30000
     11627 IM1      305      IM1      DN1      DRUD    -2.530300        0.4000           0   0.00000   0.00000
     11628 IM1      305      IM1      C2       CD2R5A   2.511900       11.6110           0   -1.37800   1.30000
     11629 IM1      305      IM1      DC2      DRUD    -2.880900        0.4000           0   0.00000   0.00000
     11630 IM1      305      IM1      H4       HDR5A    0.150000        1.0080           0   0.00000   0.00000
     11631 IM1      305      IM1      C3       CD2R5A   3.068900       11.6110           0   -1.37800   1.30000
     11632 IM1      305      IM1      DC3      DRUD    -2.880900        0.4000           0   0.00000   0.00000
     11633 IM1      305      IM1      H5       HDR5A    0.053000        1.0080           0   0.00000   0.00000
     11634 IM1      305      IM1      C4       CD2R5B   2.404400       11.6110           0   -0.868000   1.30000
     11635 IM1      305      IM1      DC4      DRUD    -2.286400        0.4000           0   0.00000   0.00000
     11636 IM1      305      IM1      H6       HDR5B    0.073000        1.0080           0   0.00000   0.00000
     11637 IM1      305      IM1      N2       ND2R5B   2.249300       13.6070           0   -0.840000   1.00000
     11638 IM1      305      IM1      DN2      DRUD    -2.249300        0.4000           0   0.00000   0.00000
     11639 IM1      305      IM1      H7       HDP1A    0.000000        1.0080           0   0.00000   0.00000
     11640 IM1      305      IM1      LPN21    LPD     -0.474000        0.0000           -1   0.00000   0.00000
     11641 IM1      306      IM1      C1       CD33G    2.390600       11.6110           0   -1.08100   1.00000
     11642 IM1      306      IM1      DC1      DRUD    -2.551600        0.4000           0   0.00000   0.00000
     11643 IM1      306      IM1      H1       HDA3A    0.094000        1.0080           0   0.00000   0.00000
     11644 IM1      306      IM1      H2       HDA3A    0.094000        1.0080           0   0.00000   0.00000
     11645 IM1      306      IM1      H3       HDA3A    0.094000        1.0080           0   0.00000   0.00000
     11646 IM1      306      IM1      N1       ND2R5A   2.670300       13.6070           0   -1.06300   1.30000
     11647 IM1      306      IM1      DN1      DRUD    -2.530300        0.4000           0   0.00000   0.00000
     11648 IM1      306      IM1      C2       CD2R5A   2.511900       11.6110           0   -1.37800   1.30000
     11649 IM1      306      IM1      DC2      DRUD    -2.880900        0.4000           0   0.00000   0.00000
     11650 IM1      306      IM1      H4       HDR5A    0.150000        1.0080           0   0.00000   0.00000
     11651 IM1      306      IM1      C3       CD2R5A   3.068900       11.6110           0   -1.37800   1.30000
     11652 IM1      306      IM1      DC3      DRUD    -2.880900        0.4000           0   0.00000   0.00000
     11653 IM1      306      IM1      H5       HDR5A    0.053000        1.0080           0   0.00000   0.00000
     11654 IM1      306      IM1      C4       CD2R5B   2.404400       11.6110           0   -0.868000   1.30000
     11655 IM1      306      IM1      DC4      DRUD    -2.286400        0.4000           0   0.00000   0.00000
     11656 IM1      306      IM1      H6       HDR5B    0.073000        1.0080           0   0.00000   0.00000
     11657 IM1      306      IM1      N2       ND2R5B   2.249300       13.6070           0   -0.840000   1.00000
     11658 IM1      306      IM1      DN2      DRUD    -2.249300        0.4000           0   0.00000   0.00000
     11659 IM1      306      IM1      H7       HDP1A    0.000000        1.0080           0   0.00000   0.00000
     11660 IM1      306      IM1      LPN21    LPD     -0.474000        0.0000           -1   0.00000   0.00000
     11661 IM1      307      IM1      C1       CD33G    2.390600       11.6110           0   -1.08100   1.00000
     11662 IM1      307      IM1      DC1      DRUD    -2.551600        0.4000           0   0.00000   0.00000
     11663 IM1      307      IM1      H1       HDA3A    0.094000        1.0080           0   0.00000   0.00000
     11664 IM1      307      IM1      H2       HDA3A    0.094000        1.0080           0   0.00000   0.00000
     11665 IM1      307      IM1      H3       HDA3A    0.094000        1.0080           0   0.00000   0.00000
     11666 IM1      307      IM1      N1       ND2R5A   2.670300       13.6070           0   -1.06300   1.30000
     11667 IM1      307      IM1      DN1      DRUD    -2.530300        0.4000           0   0.00000   0.00000
     11668 IM1      307      IM1      C2       CD2R5A   2.511900       11.6110           0   -1.37800   1.30000
     11669 IM1      307      IM1      DC2      DRUD    -2.880900        0.4000           0   0.00000   0.00000
     11670 IM1      307      IM1      H4       HDR5A    0.150000        1.0080           0   0.00000   0.00000
     11671 IM1      307      IM1      C3       CD2R5A   3.068900       11.6110           0   -1.37800   1.30000
     11672 IM1      307      IM1      DC3      DRUD    -2.880900        0.4000           0   0.00000   0.00000
     11673 IM1      307      IM1      H5       HDR5A    0.053000        1.0080           0   0.00000   0.00000
     11674 IM1      307      IM1      C4       CD2R5B   2.404400       11.6110           0   -0.868000   1.30000
     11675 IM1      307      IM1      DC4      DRUD    -2.286400        0.4000           0   0.00000   0.00000
     11676 IM1      307      IM1      H6       HDR5B    0.073000        1.0080           0   0.00000   0.00000
     11677 IM1      307      IM1      N2       ND2R5B   2.249300       13.6070           0   -0.840000   1.00000
     11678 IM1      307      IM1      DN2      DRUD    -2.249300        0.4000           0   0.00000   0.00000
     11679 IM1      307      IM1      H7       HDP1A    0.000000        1.0080           0   0.00000   0.00000
     11680 IM1      307      IM1      LPN21    LPD     -0.474000        0.0000           -1   0.00000   0.00000
     11681 IM1      308      IM1      C1       CD33G    2.390600       11.6110           0   -1.08100   1.00000
     11682 IM1      308      IM1      DC1      DRUD    -2.551600        0.4000           0   0.00000   0.00000
     11683 IM1      308      IM1      H1       HDA3A    0.094000        1.0080           0   0.00000   0.00000
     11684 IM1      308      IM1      H2       HDA3A    0.094000        1.0080           0   0.00000   0.00000
     11685 IM1      308      IM1      H3       HDA3A    0.094000        1.0080           0   0.00000   0.00000
     11686 IM1      308      IM1      N1       ND2R5A   2.670300       13.6070           0   -1.06300   1.30000
     11687 IM1      308      IM1      DN1      DRUD    -2.530300        0.4000           0   0.00000   0.00000
     11688 IM1      308      IM1      C2       CD2R5A   2.511900       11.6110           0   -1.37800   1.30000
     11689 IM1      308      IM1      DC2      DRUD    -2.880900        0.4000           0   0.00000   0.00000
     11690 IM1      308      IM1      H4       HDR5A    0.150000        1.0080           0   0.00000   0.00000
     11691 IM1      308      IM1      C3       CD2R5A   3.068900       11.6110           0   -1.37800   1.30000
     11692 IM1      308      IM1      DC3      DRUD    -2.880900        0.4000           0   0.00000   0.00000
     11693 IM1      308      IM1      H5       HDR5A    0.053000        1.0080           0   0.00000   0.00000
     11694 IM1      308      IM1      C4       CD2R5B   2.404400       11.6110           0   -0.868000   1.30000
     11695 IM1      308      IM1      DC4      DRUD    -2.286400        0.4000           0   0.00000   0.00000
     11696 IM1      308      IM1      H6       HDR5B    0.073000        1.0080           0   0.00000   0.00000
     11697 IM1      308      IM1      N2       ND2R5B   2.249300       13.6070           0   -0.840000   1.00000
     11698 IM1      308      IM1      DN2      DRUD    -2.249300        0.4000           0   0.00000   0.00000
     11699 IM1      308      IM1      H7       HDP1A    0.000000        1.0080           0   0.00000   0.00000
     11700 IM1      308      IM1      LPN21    LPD     -0.474000        0.0000           -1   0.00000   0.00000
     11701 IM1      309      IM1      C1       CD33G    2.390600       11.6110           0   -1.08100   1.00000
     11702 IM1      309      IM1      DC1      DRUD    -2.551600        0.4000           0   0.00000   0.00000
     11703 IM1      309      IM1      H1       HDA3A    0.094000        1.0080           0   0.00000   0.00000
     11704 IM1      309      IM1      H2       HDA3A    0.094000        1.0080           0   0.00000   0.00000
     11705 IM1      309      IM1      H3       HDA3A    0.094000        1.0080           0   0.00000   0.00000
     11706 IM1      309      IM1      N1       ND2R5A   2.670300       13.6070           0   -1.06300   1.30000
     11707 IM1      309      IM1      DN1      DRUD    -2.530300        0.4000           0   0.00000   0.00000
     11708 IM1      309      IM1      C2       CD2R5A   2.511900       11.6110           0   -1.37800   1.30000
     11709 IM1      309      IM1      DC2      DRUD    -2.880900        0.4000           0   0.00000   0.00000
     11710 IM1      309      IM1      H4       HDR5A    0.150000        1.0080           0   0.00000   0.00000
     11711 IM1      309      IM1      C3       CD2R5A   3.068900       11.6110           0   -1.37800   1.30000
     11712 IM1      309      IM1      DC3      DRUD    -2.880900        0.4000           0   0.00000   0.00000
     11713 IM1      309      IM1      H5       HDR5A    0.053000        1.0080           0   0.00000   0.00000
     11714 IM1      309      IM1      C4       CD2R5B   2.404400       11.6110           0   -0.868000   1.30000
     11715 IM1      309      IM1      DC4      DRUD    -2.286400        0.4000           0   0.00000   0.00000
     11716 IM1      309      IM1      H6       HDR5B    0.073000        1.0080           0   0.00000   0.00000
     11717 IM1      309      IM1      N2       ND2R5B   2.249300       13.6070           0   -0.840000   1.00000
     11718 IM1      309      IM1      DN2      DRUD    -2.249300        0.4000           0   0.00000   0.00000
     11719 IM1      309      IM1      H7       HDP1A    0.000000        1.0080           0   0.00000   0.00000
     11720 IM1      309      IM1      LPN21    LPD     -0.474000        0.0000           -1   0.00000   0.00000
     11721 IM1      310      IM1      C1       CD33G    2.390600       11.6110           0   -1.08100   1.00000
     11722 IM1      310      IM1      DC1      DRUD    -2.551600        0.4000           0   0.00000   0.00000
     11723 IM1      310      IM1      H1       HDA3A    0.094000        1.0080           0   0.00000   0.00000
     11724 IM1      310      IM1      H2       HDA3A    0.094000        1.0080           0   0.00000   0.00000
     11725 IM1      310      IM1      H3       HDA3A    0.094000        1.0080           0   0.00000   0.00000
     11726 IM1      310      IM1      N1       ND2R5A   2.670300       13.6070           0   -1.06300   1.30000
     11727 IM1      310      IM1      DN1      DRUD    -2.530300        0.4000           0   0.00000   0.00000
     11728 IM1      310      IM1      C2       CD2R5A   2.511900       11.6110           0   -1.37800   1.30000
     11729 IM1      310      IM1      DC2      DRUD    -2.880900        0.4000           0   0.00000   0.00000
     11730 IM1      310      IM1      H4       HDR5A    0.150000        1.0080           0   0.00000   0.00000
     11731 IM1      310      IM1      C3       CD2R5A   3.068900       11.6110           0   -1.37800   1.30000
     11732 IM1      310      IM1      DC3      DRUD    -2.880900        0.4000           0   0.00000   0.00000
     11733 IM1      310      IM1      H5       HDR5A    0.053000        1.0080           0   0.00000   0.00000
     11734 IM1      310      IM1      C4       CD2R5B   2.404400       11.6110           0   -0.868000   1.30000
     11735 IM1      310      IM1      DC4      DRUD    -2.286400        0.4000           0   0.00000   0.00000
     11736 IM1      310      IM1      H6       HDR5B    0.073000        1.0080           0   0.00000   0.00000
     11737 IM1      310      IM1      N2       ND2R5B   2.249300       13.6070           0   -0.840000   1.00000
     11738 IM1      310      IM1      DN2      DRUD    -2.249300        0.4000           0   0.00000   0.00000
     11739 IM1      310      IM1      H7       HDP1A    0.000000        1.0080           0   0.00000   0.00000
     11740 IM1      310      IM1      LPN21    LPD     -0.474000        0.0000           -1   0.00000   0.00000
     11741 IM1      311      IM1      C1       CD33G    2.390600       11.6110           0   -1.08100   1.00000
     11742 IM1      311      IM1      DC1      DRUD    -2.551600        0.4000           0   0.00000   0.00000
     11743 IM1      311      IM1      H1       HDA3A    0.094000        1.0080           0   0.00000   0.00000
     11744 IM1      311      IM1      H2       HDA3A    0.094000        1.0080           0   0.00000   0.00000
     11745 IM1      311      IM1      H3       HDA3A    0.094000        1.0080           0   0.00000   0.00000
     11746 IM1      311      IM1      N1       ND2R5A   2.670300       13.6070           0   -1.06300   1.30000
     11747 IM1      311      IM1      DN1      DRUD    -2.530300        0.4000           0   0.00000   0.00000
     11748 IM1      311      IM1      C2       CD2R5A   2.511900       11.6110           0   -1.37800   1.30000
     11749 IM1      311      IM1      DC2      DRUD    -2.880900        0.4000           0   0.00000   0.00000
     11750 IM1      311      IM1      H4       HDR5A    0.150000        1.0080           0   0.00000   0.00000
     11751 IM1      311      IM1      C3       CD2R5A   3.068900       11.6110           0   -1.37800   1.30000
     11752 IM1      311      IM1      DC3      DRUD    -2.880900        0.4000           0   0.00000   0.00000
     11753 IM1      311      IM1      H5       HDR5A    0.053000        1.0080           0   0.00000   0.00000
     11754 IM1      311      IM1      C4       CD2R5B   2.404400       11.6110           0   -0.868000   1.30000
     11755 IM1      311      IM1      DC4      DRUD    -2.286400        0.4000           0   0.00000   0.00000
     11756 IM1      311      IM1      H6       HDR5B    0.073000        1.0080           0   0.00000   0.00000
     11757 IM1      311      IM1      N2       ND2R5B   2.249300       13.6070           0   -0.840000   1.00000
     11758 IM1      311      IM1      DN2      DRUD    -2.249300        0.4000           0   0.00000   0.00000
     11759 IM1      311      IM1      H7       HDP1A    0.000000        1.0080           0   0.00000   0.00000
     11760 IM1      311      IM1      LPN21    LPD     -0.474000        0.0000           -1   0.00000   0.00000
     11761 IM1      312      IM1      C1       CD33G    2.390600       11.6110           0   -1.08100   1.00000
     11762 IM1      312      IM1      DC1      DRUD    -2.551600        0.4000           0   0.00000   0.00000
     11763 IM1      312      IM1      H1       HDA3A    0.094000        1.0080           0   0.00000   0.00000
     11764 IM1      312      IM1      H2       HDA3A    0.094000        1.0080           0   0.00000   0.00000
     11765 IM1      312      IM1      H3       HDA3A    0.094000        1.0080           0   0.00000   0.00000
     11766 IM1      312      IM1      N1       ND2R5A   2.670300       13.6070           0   -1.06300   1.30000
     11767 IM1      312      IM1      DN1      DRUD    -2.530300        0.4000           0   0.00000   0.00000
     11768 IM1      312      IM1      C2       CD2R5A   2.511900       11.6110           0   -1.37800   1.30000
     11769 IM1      312      IM1      DC2      DRUD    -2.880900        0.4000           0   0.00000   0.00000
     11770 IM1      312      IM1      H4       HDR5A    0.150000        1.0080           0   0.00000   0.00000
     11771 IM1      312      IM1      C3       CD2R5A   3.068900       11.6110           0   -1.37800   1.30000
     11772 IM1      312      IM1      DC3      DRUD    -2.880900        0.4000           0   0.00000   0.00000
     11773 IM1      312      IM1      H5       HDR5A    0.053000        1.0080           0   0.00000   0.00000
     11774 IM1      312      IM1      C4       CD2R5B   2.404400       11.6110           0   -0.868000   1.30000
     11775 IM1      312      IM1      DC4      DRUD    -2.286400        0.4000           0   0.00000   0.00000
     11776 IM1      312      IM1      H6       HDR5B    0.073000        1.0080           0   0.00000   0.00000
     11777 IM1      312      IM1      N2       ND2R5B   2.249300       13.6070           0   -0.840000   1.00000
     11778 IM1      312      IM1      DN2      DRUD    -2.249300        0.4000           0   0.00000   0.00000
     11779 IM1      312      IM1      H7       HDP1A    0.000000        1.0080           0   0.00000   0.00000
     11780 IM1      312      IM1      LPN21    LPD     -0.474000        0.0000           -1   0.00000   0.00000
     11781 IM1      313      IM1      C1       CD33G    2.390600       11.6110           0   -1.08100   1.00000
     11782 IM1      313      IM1      DC1      DRUD    -2.551600        0.4000           0   0.00000   0.00000
     11783 IM1      313      IM1      H1       HDA3A    0.094000        1.0080           0   0.00000   0.00000
     11784 IM1      313      IM1      H2       HDA3A    0.094000        1.0080           0   0.00000   0.00000
     11785 IM1      313      IM1      H3       HDA3A    0.094000        1.0080           0   0.00000   0.00000
     11786 IM1      313      IM1      N1       ND2R5A   2.670300       13.6070           0   -1.06300   1.30000
     11787 IM1      313      IM1      DN1      DRUD    -2.530300        0.4000           0   0.00000   0.00000
     11788 IM1      313      IM1      C2       CD2R5A   2.511900       11.6110           0   -1.37800   1.30000
     11789 IM1      313      IM1      DC2      DRUD    -2.880900        0.4000           0   0.00000   0.00000
     11790 IM1      313      IM1      H4       HDR5A    0.150000        1.0080           0   0.00000   0.00000
     11791 IM1      313      IM1      C3       CD2R5A   3.068900       11.6110           0   -1.37800   1.30000
     11792 IM1      313      IM1      DC3      DRUD    -2.880900        0.4000           0   0.00000   0.00000
     11793 IM1      313      IM1      H5       HDR5A    0.053000        1.0080           0   0.00000   0.00000
     11794 IM1      313      IM1      C4       CD2R5B   2.404400       11.6110           0   -0.868000   1.30000
     11795 IM1      313      IM1      DC4      DRUD    -2.286400        0.4000           0   0.00000   0.00000
     11796 IM1      313      IM1      H6       HDR5B    0.073000        1.0080           0   0.00000   0.00000
     11797 IM1      313      IM1      N2       ND2R5B   2.249300       13.6070           0   -0.840000   1.00000
     11798 IM1      313      IM1      DN2      DRUD    -2.249300        0.4000           0   0.00000   0.00000
     11799 IM1      313      IM1      H7       HDP1A    0.000000        1.0080           0   0.00000   0.00000
     11800 IM1      313      IM1      LPN21    LPD     -0.474000        0.0000           -1   0.00000   0.00000
     11801 IM1      314      IM1      C1       CD33G    2.390600       11.6110           0   -1.08100   1.00000
     11802 IM1      314      IM1      DC1      DRUD    -2.551600        0.4000           0   0.00000   0.00000
     11803 IM1      314      IM1      H1       HDA3A    0.094000        1.0080           0   0.00000   0.00000
     11804 IM1      314      IM1      H2       HDA3A    0.094000        1.0080           0   0.00000   0.00000
     11805 IM1      314      IM1      H3       HDA3A    0.094000        1.0080           0   0.00000   0.00000
     11806 IM1      314      IM1      N1       ND2R5A   2.670300       13.6070           0   -1.06300   1.30000
     11807 IM1      314      IM1      DN1      DRUD    -2.530300        0.4000           0   0.00000   0.00000
     11808 IM1      314      IM1      C2       CD2R5A   2.511900       11.6110           0   -1.37800   1.30000
     11809 IM1      314      IM1      DC2      DRUD    -2.880900        0.4000           0   0.00000   0.00000
     11810 IM1      314      IM1      H4       HDR5A    0.150000        1.0080           0   0.00000   0.00000
     11811 IM1      314      IM1      C3       CD2R5A   3.068900       11.6110           0   -1.37800   1.30000
     11812 IM1      314      IM1      DC3      DRUD    -2.880900        0.4000           0   0.00000   0.00000
     11813 IM1      314      IM1      H5       HDR5A    0.053000        1.0080           0   0.00000   0.00000
     11814 IM1      314      IM1      C4       CD2R5B   2.404400       11.6110           0   -0.868000   1.30000
     11815 IM1      314      IM1      DC4      DRUD    -2.286400        0.4000           0   0.00000   0.00000
     11816 IM1      314      IM1      H6       HDR5B    0.073000        1.0080           0   0.00000   0.00000
     11817 IM1      314      IM1      N2       ND2R5B   2.249300       13.6070           0   -0.840000   1.00000
     11818 IM1      314      IM1      DN2      DRUD    -2.249300        0.4000           0   0.00000   0.00000
     11819 IM1      314      IM1      H7       HDP1A    0.000000        1.0080           0   0.00000   0.00000
     11820 IM1      314      IM1      LPN21    LPD     -0.474000        0.0000           -1   0.00000   0.00000
     11821 IM1      315      IM1      C1       CD33G    2.390600       11.6110           0   -1.08100   1.00000
     11822 IM1      315      IM1      DC1      DRUD    -2.551600        0.4000           0   0.00000   0.00000
     11823 IM1      315      IM1      H1       HDA3A    0.094000        1.0080           0   0.00000   0.00000
     11824 IM1      315      IM1      H2       HDA3A    0.094000        1.0080           0   0.00000   0.00000
     11825 IM1      315      IM1      H3       HDA3A    0.094000        1.0080           0   0.00000   0.00000
     11826 IM1      315      IM1      N1       ND2R5A   2.670300       13.6070           0   -1.06300   1.30000
     11827 IM1      315      IM1      DN1      DRUD    -2.530300        0.4000           0   0.00000   0.00000
     11828 IM1      315      IM1      C2       CD2R5A   2.511900       11.6110           0   -1.37800   1.30000
     11829 IM1      315      IM1      DC2      DRUD    -2.880900        0.4000           0   0.00000   0.00000
     11830 IM1      315      IM1      H4       HDR5A    0.150000        1.0080           0   0.00000   0.00000
     11831 IM1      315      IM1      C3       CD2R5A   3.068900       11.6110           0   -1.37800   1.30000
     11832 IM1      315      IM1      DC3      DRUD    -2.880900        0.4000           0   0.00000   0.00000
     11833 IM1      315      IM1      H5       HDR5A    0.053000        1.0080           0   0.00000   0.00000
     11834 IM1      315      IM1      C4       CD2R5B   2.404400       11.6110           0   -0.868000   1.30000
     11835 IM1      315      IM1      DC4      DRUD    -2.286400        0.4000           0   0.00000   0.00000
     11836 IM1      315      IM1      H6       HDR5B    0.073000        1.0080           0   0.00000   0.00000
     11837 IM1      315      IM1      N2       ND2R5B   2.249300       13.6070           0   -0.840000   1.00000
     11838 IM1      315      IM1      DN2      DRUD    -2.249300        0.4000           0   0.00000   0.00000
     11839 IM1      315      IM1      H7       HDP1A    0.000000        1.0080           0   0.00000   0.00000
     11840 IM1      315      IM1      LPN21    LPD     -0.474000        0.0000           -1   0.00000   0.00000
     11841 IM1      316      IM1      C1       CD33G    2.390600       11.6110           0   -1.08100   1.00000
     11842 IM1      316      IM1      DC1      DRUD    -2.551600        0.4000           0   0.00000   0.00000
     11843 IM1      316      IM1      H1       HDA3A    0.094000        1.0080           0   0.00000   0.00000
     11844 IM1      316      IM1      H2       HDA3A    0.094000        1.0080           0   0.00000   0.00000
     11845 IM1      316      IM1      H3       HDA3A    0.094000        1.0080           0   0.00000   0.00000
     11846 IM1      316      IM1      N1       ND2R5A   2.670300       13.6070           0   -1.06300   1.30000
     11847 IM1      316      IM1      DN1      DRUD    -2.530300        0.4000           0   0.00000   0.00000
     11848 IM1      316      IM1      C2       CD2R5A   2.511900       11.6110           0   -1.37800   1.30000
     11849 IM1      316      IM1      DC2      DRUD    -2.880900        0.4000           0   0.00000   0.00000
     11850 IM1      316      IM1      H4       HDR5A    0.150000        1.0080           0   0.00000   0.00000
     11851 IM1      316      IM1      C3       CD2R5A   3.068900       11.6110           0   -1.37800   1.30000
     11852 IM1      316      IM1      DC3      DRUD    -2.880900        0.4000           0   0.00000   0.00000
     11853 IM1      316      IM1      H5       HDR5A    0.053000        1.0080           0   0.00000   0.00000
     11854 IM1      316      IM1      C4       CD2R5B   2.404400       11.6110           0   -0.868000   1.30000
     11855 IM1      316      IM1      DC4      DRUD    -2.286400        0.4000           0   0.00000   0.00000
     11856 IM1      316      IM1      H6       HDR5B    0.073000        1.0080           0   0.00000   0.00000
     11857 IM1      316      IM1      N2       ND2R5B   2.249300       13.6070           0   -0.840000   1.00000
     11858 IM1      316      IM1      DN2      DRUD    -2.249300        0.4000           0   0.00000   0.00000
     11859 IM1      316      IM1      H7       HDP1A    0.000000        1.0080           0   0.00000   0.00000
     11860 IM1      316      IM1      LPN21    LPD     -0.474000        0.0000           -1   0.00000   0.00000
     11861 IM1      317      IM1      C1       CD33G    2.390600       11.6110           0   -1.08100   1.00000
     11862 IM1      317      IM1      DC1      DRUD    -2.551600        0.4000           0   0.00000   0.00000
     11863 IM1      317      IM1      H1       HDA3A    0.094000        1.0080           0   0.00000   0.00000
     11864 IM1      317      IM1      H2       HDA3A    0.094000        1.0080           0   0.00000   0.00000
     11865 IM1      317      IM1      H3       HDA3A    0.094000        1.0080           0   0.00000   0.00000
     11866 IM1      317      IM1      N1       ND2R5A   2.670300       13.6070           0   -1.06300   1.30000
     11867 IM1      317      IM1      DN1      DRUD    -2.530300        0.4000           0   0.00000   0.00000
     11868 IM1      317      IM1      C2       CD2R5A   2.511900       11.6110           0   -1.37800   1.30000
     11869 IM1      317      IM1      DC2      DRUD    -2.880900        0.4000           0   0.00000   0.00000
     11870 IM1      317      IM1      H4       HDR5A    0.150000        1.0080           0   0.00000   0.00000
     11871 IM1      317      IM1      C3       CD2R5A   3.068900       11.6110           0   -1.37800   1.30000
     11872 IM1      317      IM1      DC3      DRUD    -2.880900        0.4000           0   0.00000   0.00000
     11873 IM1      317      IM1      H5       HDR5A    0.053000        1.0080           0   0.00000   0.00000
     11874 IM1      317      IM1      C4       CD2R5B   2.404400       11.6110           0   -0.868000   1.30000
     11875 IM1      317      IM1      DC4      DRUD    -2.286400        0.4000           0   0.00000   0.00000
     11876 IM1      317      IM1      H6       HDR5B    0.073000        1.0080           0   0.00000   0.00000
     11877 IM1      317      IM1      N2       ND2R5B   2.249300       13.6070           0   -0.840000   1.00000
     11878 IM1      317      IM1      DN2      DRUD    -2.249300        0.4000           0   0.00000   0.00000
     11879 IM1      317      IM1      H7       HDP1A    0.000000        1.0080           0   0.00000   0.00000
     11880 IM1      317      IM1      LPN21    LPD     -0.474000        0.0000           -1   0.00000   0.00000
     11881 IM1      318      IM1      C1       CD33G    2.390600       11.6110           0   -1.08100   1.00000
     11882 IM1      318      IM1      DC1      DRUD    -2.551600        0.4000           0   0.00000   0.00000
     11883 IM1      318      IM1      H1       HDA3A    0.094000        1.0080           0   0.00000   0.00000
     11884 IM1      318      IM1      H2       HDA3A    0.094000        1.0080           0   0.00000   0.00000
     11885 IM1      318      IM1      H3       HDA3A    0.094000        1.0080           0   0.00000   0.00000
     11886 IM1      318      IM1      N1       ND2R5A   2.670300       13.6070           0   -1.06300   1.30000
     11887 IM1      318      IM1      DN1      DRUD    -2.530300        0.4000           0   0.00000   0.00000
     11888 IM1      318      IM1      C2       CD2R5A   2.511900       11.6110           0   -1.37800   1.30000
     11889 IM1      318      IM1      DC2      DRUD    -2.880900        0.4000           0   0.00000   0.00000
     11890 IM1      318      IM1      H4       HDR5A    0.150000        1.0080           0   0.00000   0.00000
     11891 IM1      318      IM1      C3       CD2R5A   3.068900       11.6110           0   -1.37800   1.30000
     11892 IM1      318      IM1      DC3      DRUD    -2.880900        0.4000           0   0.00000   0.00000
     11893 IM1      318      IM1      H5       HDR5A    0.053000        1.0080           0   0.00000   0.00000
     11894 IM1      318      IM1      C4       CD2R5B   2.404400       11.6110           0   -0.868000   1.30000
     11895 IM1      318      IM1      DC4      DRUD    -2.286400        0.4000           0   0.00000   0.00000
     11896 IM1      318      IM1      H6       HDR5B    0.073000        1.0080           0   0.00000   0.00000
     11897 IM1      318      IM1      N2       ND2R5B   2.249300       13.6070           0   -0.840000   1.00000
     11898 IM1      318      IM1      DN2      DRUD    -2.249300        0.4000           0   0.00000   0.00000
     11899 IM1      318      IM1      H7       HDP1A    0.000000        1.0080           0   0.00000   0.00000
     11900 IM1      318      IM1      LPN21    LPD     -0.474000        0.0000           -1   0.00000   0.00000
     11901 IM1      319      IM1      C1       CD33G    2.390600       11.6110           0   -1.08100   1.00000
     11902 IM1      319      IM1      DC1      DRUD    -2.551600        0.4000           0   0.00000   0.00000
     11903 IM1      319      IM1      H1       HDA3A    0.094000        1.0080           0   0.00000   0.00000
     11904 IM1      319      IM1      H2       HDA3A    0.094000        1.0080           0   0.00000   0.00000
     11905 IM1      319      IM1      H3       HDA3A    0.094000        1.0080           0   0.00000   0.00000
     11906 IM1      319      IM1      N1       ND2R5A   2.670300       13.6070           0   -1.06300   1.30000
     11907 IM1      319      IM1      DN1      DRUD    -2.530300        0.4000           0   0.00000   0.00000
     11908 IM1      319      IM1      C2       CD2R5A   2.511900       11.6110           0   -1.37800   1.30000
     11909 IM1      319      IM1      DC2      DRUD    -2.880900        0.4000           0   0.00000   0.00000
     11910 IM1      319      IM1      H4       HDR5A    0.150000        1.0080           0   0.00000   0.00000
     11911 IM1      319      IM1      C3       CD2R5A   3.068900       11.6110           0   -1.37800   1.30000
     11912 IM1      319      IM1      DC3      DRUD    -2.880900        0.4000           0   0.00000   0.00000
     11913 IM1      319      IM1      H5       HDR5A    0.053000        1.0080           0   0.00000   0.00000
     11914 IM1      319      IM1      C4       CD2R5B   2.404400       11.6110           0   -0.868000   1.30000
     11915 IM1      319      IM1      DC4      DRUD    -2.286400        0.4000           0   0.00000   0.00000
     11916 IM1      319      IM1      H6       HDR5B    0.073000        1.0080           0   0.00000   0.00000
     11917 IM1      319      IM1      N2       ND2R5B   2.249300       13.6070           0   -0.840000   1.00000
     11918 IM1      319      IM1      DN2      DRUD    -2.249300        0.4000           0   0.00000   0.00000
     11919 IM1      319      IM1      H7       HDP1A    0.000000        1.0080           0   0.00000   0.00000
     11920 IM1      319      IM1      LPN21    LPD     -0.474000        0.0000           -1   0.00000   0.00000
     11921 IM1      320      IM1      C1       CD33G    2.390600       11.6110           0   -1.08100   1.00000
     11922 IM1      320      IM1      DC1      DRUD    -2.551600        0.4000           0   0.00000   0.00000
     11923 IM1      320      IM1      H1       HDA3A    0.094000        1.0080           0   0.00000   0.00000
     11924 IM1      320      IM1      H2       HDA3A    0.094000        1.0080           0   0.00000   0.00000
     11925 IM1      320      IM1      H3       HDA3A    0.094000        1.0080           0   0.00000   0.00000
     11926 IM1      320      IM1      N1       ND2R5A   2.670300       13.6070           0   -1.06300   1.30000
     11927 IM1      320      IM1      DN1      DRUD    -2.530300        0.4000           0   0.00000   0.00000
     11928 IM1      320      IM1      C2       CD2R5A   2.511900       11.6110           0   -1.37800   1.30000
     11929 IM1      320      IM1      DC2      DRUD    -2.880900        0.4000           0   0.00000   0.00000
     11930 IM1      320      IM1      H4       HDR5A    0.150000        1.0080           0   0.00000   0.00000
     11931 IM1      320      IM1      C3       CD2R5A   3.068900       11.6110           0   -1.37800   1.30000
     11932 IM1      320      IM1      DC3      DRUD    -2.880900        0.4000           0   0.00000   0.00000
     11933 IM1      320      IM1      H5       HDR5A    0.053000        1.0080           0   0.00000   0.00000
     11934 IM1      320      IM1      C4       CD2R5B   2.404400       11.6110           0   -0.868000   1.30000
     11935 IM1      320      IM1      DC4      DRUD    -2.286400        0.4000           0   0.00000   0.00000
     11936 IM1      320      IM1      H6       HDR5B    0.073000        1.0080           0   0.00000   0.00000
     11937 IM1      320      IM1      N2       ND2R5B   2.249300       13.6070           0   -0.840000   1.00000
     11938 IM1      320      IM1      DN2      DRUD    -2.249300        0.4000           0   0.00000   0.00000
     11939 IM1      320      IM1      H7       HDP1A    0.000000        1.0080           0   0.00000   0.00000
     11940 IM1      320      IM1      LPN21    LPD     -0.474000        0.0000           -1   0.00000   0.00000
     11941 IM1      321      IM1      C1       CD33G    2.390600       11.6110           0   -1.08100   1.00000
     11942 IM1      321      IM1      DC1      DRUD    -2.551600        0.4000           0   0.00000   0.00000
     11943 IM1      321      IM1      H1       HDA3A    0.094000        1.0080           0   0.00000   0.00000
     11944 IM1      321      IM1      H2       HDA3A    0.094000        1.0080           0   0.00000   0.00000
     11945 IM1      321      IM1      H3       HDA3A    0.094000        1.0080           0   0.00000   0.00000
     11946 IM1      321      IM1      N1       ND2R5A   2.670300       13.6070           0   -1.06300   1.30000
     11947 IM1      321      IM1      DN1      DRUD    -2.530300        0.4000           0   0.00000   0.00000
     11948 IM1      321      IM1      C2       CD2R5A   2.511900       11.6110           0   -1.37800   1.30000
     11949 IM1      321      IM1      DC2      DRUD    -2.880900        0.4000           0   0.00000   0.00000
     11950 IM1      321      IM1      H4       HDR5A    0.150000        1.0080           0   0.00000   0.00000
     11951 IM1      321      IM1      C3       CD2R5A   3.068900       11.6110           0   -1.37800   1.30000
     11952 IM1      321      IM1      DC3      DRUD    -2.880900        0.4000           0   0.00000   0.00000
     11953 IM1      321      IM1      H5       HDR5A    0.053000        1.0080           0   0.00000   0.00000
     11954 IM1      321      IM1      C4       CD2R5B   2.404400       11.6110           0   -0.868000   1.30000
     11955 IM1      321      IM1      DC4      DRUD    -2.286400        0.4000           0   0.00000   0.00000
     11956 IM1      321      IM1      H6       HDR5B    0.073000        1.0080           0   0.00000   0.00000
     11957 IM1      321      IM1      N2       ND2R5B   2.249300       13.6070           0   -0.840000   1.00000
     11958 IM1      321      IM1      DN2      DRUD    -2.249300        0.4000           0   0.00000   0.00000
     11959 IM1      321      IM1      H7       HDP1A    0.000000        1.0080           0   0.00000   0.00000
     11960 IM1      321      IM1      LPN21    LPD     -0.474000        0.0000           -1   0.00000   0.00000
     11961 IM1      322      IM1      C1       CD33G    2.390600       11.6110           0   -1.08100   1.00000
     11962 IM1      322      IM1      DC1      DRUD    -2.551600        0.4000           0   0.00000   0.00000
     11963 IM1      322      IM1      H1       HDA3A    0.094000        1.0080           0   0.00000   0.00000
     11964 IM1      322      IM1      H2       HDA3A    0.094000        1.0080           0   0.00000   0.00000
     11965 IM1      322      IM1      H3       HDA3A    0.094000        1.0080           0   0.00000   0.00000
     11966 IM1      322      IM1      N1       ND2R5A   2.670300       13.6070           0   -1.06300   1.30000
     11967 IM1      322      IM1      DN1      DRUD    -2.530300        0.4000           0   0.00000   0.00000
     11968 IM1      322      IM1      C2       CD2R5A   2.511900       11.6110           0   -1.37800   1.30000
     11969 IM1      322      IM1      DC2      DRUD    -2.880900        0.4000           0   0.00000   0.00000
     11970 IM1      322      IM1      H4       HDR5A    0.150000        1.0080           0   0.00000   0.00000
     11971 IM1      322      IM1      C3       CD2R5A   3.068900       11.6110           0   -1.37800   1.30000
     11972 IM1      322      IM1      DC3      DRUD    -2.880900        0.4000           0   0.00000   0.00000
     11973 IM1      322      IM1      H5       HDR5A    0.053000        1.0080           0   0.00000   0.00000
     11974 IM1      322      IM1      C4       CD2R5B   2.404400       11.6110           0   -0.868000   1.30000
     11975 IM1      322      IM1      DC4      DRUD    -2.286400        0.4000           0   0.00000   0.00000
     11976 IM1      322      IM1      H6       HDR5B    0.073000        1.0080           0   0.00000   0.00000
     11977 IM1      322      IM1      N2       ND2R5B   2.249300       13.6070           0   -0.840000   1.00000
     11978 IM1      322      IM1      DN2      DRUD    -2.249300        0.4000           0   0.00000   0.00000
     11979 IM1      322      IM1      H7       HDP1A    0.000000        1.0080           0   0.00000   0.00000
     11980 IM1      322      IM1      LPN21    LPD     -0.474000        0.0000           -1   0.00000   0.00000
     11981 IM1      323      IM1      C1       CD33G    2.390600       11.6110           0   -1.08100   1.00000
     11982 IM1      323      IM1      DC1      DRUD    -2.551600        0.4000           0   0.00000   0.00000
     11983 IM1      323      IM1      H1       HDA3A    0.094000        1.0080           0   0.00000   0.00000
     11984 IM1      323      IM1      H2       HDA3A    0.094000        1.0080           0   0.00000   0.00000
     11985 IM1      323      IM1      H3       HDA3A    0.094000        1.0080           0   0.00000   0.00000
     11986 IM1      323      IM1      N1       ND2R5A   2.670300       13.6070           0   -1.06300   1.30000
     11987 IM1      323      IM1      DN1      DRUD    -2.530300        0.4000           0   0.00000   0.00000
     11988 IM1      323      IM1      C2       CD2R5A   2.511900       11.6110           0   -1.37800   1.30000
     11989 IM1      323      IM1      DC2      DRUD    -2.880900        0.4000           0   0.00000   0.00000
     11990 IM1      323      IM1      H4       HDR5A    0.150000        1.0080           0   0.00000   0.00000
     11991 IM1      323      IM1      C3       CD2R5A   3.068900       11.6110           0   -1.37800   1.30000
     11992 IM1      323      IM1      DC3      DRUD    -2.880900        0.4000           0   0.00000   0.00000
     11993 IM1      323      IM1      H5       HDR5A    0.053000        1.0080           0   0.00000   0.00000
     11994 IM1      323      IM1      C4       CD2R5B   2.404400       11.6110           0   -0.868000   1.30000
     11995 IM1      323      IM1      DC4      DRUD    -2.286400        0.4000           0   0.00000   0.00000
     11996 IM1      323      IM1      H6       HDR5B    0.073000        1.0080           0   0.00000   0.00000
     11997 IM1      323      IM1      N2       ND2R5B   2.249300       13.6070           0   -0.840000   1.00000
     11998 IM1      323      IM1      DN2      DRUD    -2.249300        0.4000           0   0.00000   0.00000
     11999 IM1      323      IM1      H7       HDP1A    0.000000        1.0080           0   0.00000   0.00000
     12000 IM1      323      IM1      LPN21    LPD     -0.474000        0.0000           -1   0.00000   0.00000
     12001 IM1      324      IM1      C1       CD33G    2.390600       11.6110           0   -1.08100   1.00000
     12002 IM1      324      IM1      DC1      DRUD    -2.551600        0.4000           0   0.00000   0.00000
     12003 IM1      324      IM1      H1       HDA3A    0.094000        1.0080           0   0.00000   0.00000
     12004 IM1      324      IM1      H2       HDA3A    0.094000        1.0080           0   0.00000   0.00000
     12005 IM1      324      IM1      H3       HDA3A    0.094000        1.0080           0   0.00000   0.00000
     12006 IM1      324      IM1      N1       ND2R5A   2.670300       13.6070           0   -1.06300   1.30000
     12007 IM1      324      IM1      DN1      DRUD    -2.530300        0.4000           0   0.00000   0.00000
     12008 IM1      324      IM1      C2       CD2R5A   2.511900       11.6110           0   -1.37800   1.30000
     12009 IM1      324      IM1      DC2      DRUD    -2.880900        0.4000           0   0.00000   0.00000
     12010 IM1      324      IM1      H4       HDR5A    0.150000        1.0080           0   0.00000   0.00000
     12011 IM1      324      IM1      C3       CD2R5A   3.068900       11.6110           0   -1.37800   1.30000
     12012 IM1      324      IM1      DC3      DRUD    -2.880900        0.4000           0   0.00000   0.00000
     12013 IM1      324      IM1      H5       HDR5A    0.053000        1.0080           0   0.00000   0.00000
     12014 IM1      324      IM1      C4       CD2R5B   2.404400       11.6110           0   -0.868000   1.30000
     12015 IM1      324      IM1      DC4      DRUD    -2.286400        0.4000           0   0.00000   0.00000
     12016 IM1      324      IM1      H6       HDR5B    0.073000        1.0080           0   0.00000   0.00000
     12017 IM1      324      IM1      N2       ND2R5B   2.249300       13.6070           0   -0.840000   1.00000
     12018 IM1      324      IM1      DN2      DRUD    -2.249300        0.4000           0   0.00000   0.00000
     12019 IM1      324      IM1      H7       HDP1A    0.000000        1.0080           0   0.00000   0.00000
     12020 IM1      324      IM1      LPN21    LPD     -0.474000        0.0000           -1   0.00000   0.00000
     12021 IM1      325      IM1      C1       CD33G    2.390600       11.6110           0   -1.08100   1.00000
     12022 IM1      325      IM1      DC1      DRUD    -2.551600        0.4000           0   0.00000   0.00000
     12023 IM1      325      IM1      H1       HDA3A    0.094000        1.0080           0   0.00000   0.00000
     12024 IM1      325      IM1      H2       HDA3A    0.094000        1.0080           0   0.00000   0.00000
     12025 IM1      325      IM1      H3       HDA3A    0.094000        1.0080           0   0.00000   0.00000
     12026 IM1      325      IM1      N1       ND2R5A   2.670300       13.6070           0   -1.06300   1.30000
     12027 IM1      325      IM1      DN1      DRUD    -2.530300        0.4000           0   0.00000   0.00000
     12028 IM1      325      IM1      C2       CD2R5A   2.511900       11.6110           0   -1.37800   1.30000
     12029 IM1      325      IM1      DC2      DRUD    -2.880900        0.4000           0   0.00000   0.00000
     12030 IM1      325      IM1      H4       HDR5A    0.150000        1.0080           0   0.00000   0.00000
     12031 IM1      325      IM1      C3       CD2R5A   3.068900       11.6110           0   -1.37800   1.30000
     12032 IM1      325      IM1      DC3      DRUD    -2.880900        0.4000           0   0.00000   0.00000
     12033 IM1      325      IM1      H5       HDR5A    0.053000        1.0080           0   0.00000   0.00000
     12034 IM1      325      IM1      C4       CD2R5B   2.404400       11.6110           0   -0.868000   1.30000
     12035 IM1      325      IM1      DC4      DRUD    -2.286400        0.4000           0   0.00000   0.00000
     12036 IM1      325      IM1      H6       HDR5B    0.073000        1.0080           0   0.00000   0.00000
     12037 IM1      325      IM1      N2       ND2R5B   2.249300       13.6070           0   -0.840000   1.00000
     12038 IM1      325      IM1      DN2      DRUD    -2.249300        0.4000           0   0.00000   0.00000
     12039 IM1      325      IM1      H7       HDP1A    0.000000        1.0080           0   0.00000   0.00000
     12040 IM1      325      IM1      LPN21    LPD     -0.474000        0.0000           -1   0.00000   0.00000
     12041 IM1      326      IM1      C1       CD33G    2.390600       11.6110           0   -1.08100   1.00000
     12042 IM1      326      IM1      DC1      DRUD    -2.551600        0.4000           0   0.00000   0.00000
     12043 IM1      326      IM1      H1       HDA3A    0.094000        1.0080           0   0.00000   0.00000
     12044 IM1      326      IM1      H2       HDA3A    0.094000        1.0080           0   0.00000   0.00000
     12045 IM1      326      IM1      H3       HDA3A    0.094000        1.0080           0   0.00000   0.00000
     12046 IM1      326      IM1      N1       ND2R5A   2.670300       13.6070           0   -1.06300   1.30000
     12047 IM1      326      IM1      DN1      DRUD    -2.530300        0.4000           0   0.00000   0.00000
     12048 IM1      326      IM1      C2       CD2R5A   2.511900       11.6110           0   -1.37800   1.30000
     12049 IM1      326      IM1      DC2      DRUD    -2.880900        0.4000           0   0.00000   0.00000
     12050 IM1      326      IM1      H4       HDR5A    0.150000        1.0080           0   0.00000   0.00000
     12051 IM1      326      IM1      C3       CD2R5A   3.068900       11.6110           0   -1.37800   1.30000
     12052 IM1      326      IM1      DC3      DRUD    -2.880900        0.4000           0   0.00000   0.00000
     12053 IM1      326      IM1      H5       HDR5A    0.053000        1.0080           0   0.00000   0.00000
     12054 IM1      326      IM1      C4       CD2R5B   2.404400       11.6110           0   -0.868000   1.30000
     12055 IM1      326      IM1      DC4      DRUD    -2.286400        0.4000           0   0.00000   0.00000
     12056 IM1      326      IM1      H6       HDR5B    0.073000        1.0080           0   0.00000   0.00000
     12057 IM1      326      IM1      N2       ND2R5B   2.249300       13.6070           0   -0.840000   1.00000
     12058 IM1      326      IM1      DN2      DRUD    -2.249300        0.4000           0   0.00000   0.00000
     12059 IM1      326      IM1      H7       HDP1A    0.000000        1.0080           0   0.00000   0.00000
     12060 IM1      326      IM1      LPN21    LPD     -0.474000        0.0000           -1   0.00000   0.00000
     12061 IM1      327      IM1      C1       CD33G    2.390600       11.6110           0   -1.08100   1.00000
     12062 IM1      327      IM1      DC1      DRUD    -2.551600        0.4000           0   0.00000   0.00000
     12063 IM1      327      IM1      H1       HDA3A    0.094000        1.0080           0   0.00000   0.00000
     12064 IM1      327      IM1      H2       HDA3A    0.094000        1.0080           0   0.00000   0.00000
     12065 IM1      327      IM1      H3       HDA3A    0.094000        1.0080           0   0.00000   0.00000
     12066 IM1      327      IM1      N1       ND2R5A   2.670300       13.6070           0   -1.06300   1.30000
     12067 IM1      327      IM1      DN1      DRUD    -2.530300        0.4000           0   0.00000   0.00000
     12068 IM1      327      IM1      C2       CD2R5A   2.511900       11.6110           0   -1.37800   1.30000
     12069 IM1      327      IM1      DC2      DRUD    -2.880900        0.4000           0   0.00000   0.00000
     12070 IM1      327      IM1      H4       HDR5A    0.150000        1.0080           0   0.00000   0.00000
     12071 IM1      327      IM1      C3       CD2R5A   3.068900       11.6110           0   -1.37800   1.30000
     12072 IM1      327      IM1      DC3      DRUD    -2.880900        0.4000           0   0.00000   0.00000
     12073 IM1      327      IM1      H5       HDR5A    0.053000        1.0080           0   0.00000   0.00000
     12074 IM1      327      IM1      C4       CD2R5B   2.404400       11.6110           0   -0.868000   1.30000
     12075 IM1      327      IM1      DC4      DRUD    -2.286400        0.4000           0   0.00000   0.00000
     12076 IM1      327      IM1      H6       HDR5B    0.073000        1.0080           0   0.00000   0.00000
     12077 IM1      327      IM1      N2       ND2R5B   2.249300       13.6070           0   -0.840000   1.00000
     12078 IM1      327      IM1      DN2      DRUD    -2.249300        0.4000           0   0.00000   0.00000
     12079 IM1      327      IM1      H7       HDP1A    0.000000        1.0080           0   0.00000   0.00000
     12080 IM1      327      IM1      LPN21    LPD     -0.474000        0.0000           -1   0.00000   0.00000
     12081 IM1      328      IM1      C1       CD33G    2.390600       11.6110           0   -1.08100   1.00000
     12082 IM1      328      IM1      DC1      DRUD    -2.551600        0.4000           0   0.00000   0.00000
     12083 IM1      328      IM1      H1       HDA3A    0.094000        1.0080           0   0.00000   0.00000
     12084 IM1      328      IM1      H2       HDA3A    0.094000        1.0080           0   0.00000   0.00000
     12085 IM1      328      IM1      H3       HDA3A    0.094000        1.0080           0   0.00000   0.00000
     12086 IM1      328      IM1      N1       ND2R5A   2.670300       13.6070           0   -1.06300   1.30000
     12087 IM1      328      IM1      DN1      DRUD    -2.530300        0.4000           0   0.00000   0.00000
     12088 IM1      328      IM1      C2       CD2R5A   2.511900       11.6110           0   -1.37800   1.30000
     12089 IM1      328      IM1      DC2      DRUD    -2.880900        0.4000           0   0.00000   0.00000
     12090 IM1      328      IM1      H4       HDR5A    0.150000        1.0080           0   0.00000   0.00000
     12091 IM1      328      IM1      C3       CD2R5A   3.068900       11.6110           0   -1.37800   1.30000
     12092 IM1      328      IM1      DC3      DRUD    -2.880900        0.4000           0   0.00000   0.00000
     12093 IM1      328      IM1      H5       HDR5A    0.053000        1.0080           0   0.00000   0.00000
     12094 IM1      328      IM1      C4       CD2R5B   2.404400       11.6110           0   -0.868000   1.30000
     12095 IM1      328      IM1      DC4      DRUD    -2.286400        0.4000           0   0.00000   0.00000
     12096 IM1      328      IM1      H6       HDR5B    0.073000        1.0080           0   0.00000   0.00000
     12097 IM1      328      IM1      N2       ND2R5B   2.249300       13.6070           0   -0.840000   1.00000
     12098 IM1      328      IM1      DN2      DRUD    -2.249300        0.4000           0   0.00000   0.00000
     12099 IM1      328      IM1      H7       HDP1A    0.000000        1.0080           0   0.00000   0.00000
     12100 IM1      328      IM1      LPN21    LPD     -0.474000        0.0000           -1   0.00000   0.00000
     12101 IM1      329      IM1      C1       CD33G    2.390600       11.6110           0   -1.08100   1.00000
     12102 IM1      329      IM1      DC1      DRUD    -2.551600        0.4000           0   0.00000   0.00000
     12103 IM1      329      IM1      H1       HDA3A    0.094000        1.0080           0   0.00000   0.00000
     12104 IM1      329      IM1      H2       HDA3A    0.094000        1.0080           0   0.00000   0.00000
     12105 IM1      329      IM1      H3       HDA3A    0.094000        1.0080           0   0.00000   0.00000
     12106 IM1      329      IM1      N1       ND2R5A   2.670300       13.6070           0   -1.06300   1.30000
     12107 IM1      329      IM1      DN1      DRUD    -2.530300        0.4000           0   0.00000   0.00000
     12108 IM1      329      IM1      C2       CD2R5A   2.511900       11.6110           0   -1.37800   1.30000
     12109 IM1      329      IM1      DC2      DRUD    -2.880900        0.4000           0   0.00000   0.00000
     12110 IM1      329      IM1      H4       HDR5A    0.150000        1.0080           0   0.00000   0.00000
     12111 IM1      329      IM1      C3       CD2R5A   3.068900       11.6110           0   -1.37800   1.30000
     12112 IM1      329      IM1      DC3      DRUD    -2.880900        0.4000           0   0.00000   0.00000
     12113 IM1      329      IM1      H5       HDR5A    0.053000        1.0080           0   0.00000   0.00000
     12114 IM1      329      IM1      C4       CD2R5B   2.404400       11.6110           0   -0.868000   1.30000
     12115 IM1      329      IM1      DC4      DRUD    -2.286400        0.4000           0   0.00000   0.00000
     12116 IM1      329      IM1      H6       HDR5B    0.073000        1.0080           0   0.00000   0.00000
     12117 IM1      329      IM1      N2       ND2R5B   2.249300       13.6070           0   -0.840000   1.00000
     12118 IM1      329      IM1      DN2      DRUD    -2.249300        0.4000           0   0.00000   0.00000
     12119 IM1      329      IM1      H7       HDP1A    0.000000        1.0080           0   0.00000   0.00000
     12120 IM1      329      IM1      LPN21    LPD     -0.474000        0.0000           -1   0.00000   0.00000
     12121 IM1      330      IM1      C1       CD33G    2.390600       11.6110           0   -1.08100   1.00000
     12122 IM1      330      IM1      DC1      DRUD    -2.551600        0.4000           0   0.00000   0.00000
     12123 IM1      330      IM1      H1       HDA3A    0.094000        1.0080           0   0.00000   0.00000
     12124 IM1      330      IM1      H2       HDA3A    0.094000        1.0080           0   0.00000   0.00000
     12125 IM1      330      IM1      H3       HDA3A    0.094000        1.0080           0   0.00000   0.00000
     12126 IM1      330      IM1      N1       ND2R5A   2.670300       13.6070           0   -1.06300   1.30000
     12127 IM1      330      IM1      DN1      DRUD    -2.530300        0.4000           0   0.00000   0.00000
     12128 IM1      330      IM1      C2       CD2R5A   2.511900       11.6110           0   -1.37800   1.30000
     12129 IM1      330      IM1      DC2      DRUD    -2.880900        0.4000           0   0.00000   0.00000
     12130 IM1      330      IM1      H4       HDR5A    0.150000        1.0080           0   0.00000   0.00000
     12131 IM1      330      IM1      C3       CD2R5A   3.068900       11.6110           0   -1.37800   1.30000
     12132 IM1      330      IM1      DC3      DRUD    -2.880900        0.4000           0   0.00000   0.00000
     12133 IM1      330      IM1      H5       HDR5A    0.053000        1.0080           0   0.00000   0.00000
     12134 IM1      330      IM1      C4       CD2R5B   2.404400       11.6110           0   -0.868000   1.30000
     12135 IM1      330      IM1      DC4      DRUD    -2.286400        0.4000           0   0.00000   0.00000
     12136 IM1      330      IM1      H6       HDR5B    0.073000        1.0080           0   0.00000   0.00000
     12137 IM1      330      IM1      N2       ND2R5B   2.249300       13.6070           0   -0.840000   1.00000
     12138 IM1      330      IM1      DN2      DRUD    -2.249300        0.4000           0   0.00000   0.00000
     12139 IM1      330      IM1      H7       HDP1A    0.000000        1.0080           0   0.00000   0.00000
     12140 IM1      330      IM1      LPN21    LPD     -0.474000        0.0000           -1   0.00000   0.00000
     12141 IM1      331      IM1      C1       CD33G    2.390600       11.6110           0   -1.08100   1.00000
     12142 IM1      331      IM1      DC1      DRUD    -2.551600        0.4000           0   0.00000   0.00000
     12143 IM1      331      IM1      H1       HDA3A    0.094000        1.0080           0   0.00000   0.00000
     12144 IM1      331      IM1      H2       HDA3A    0.094000        1.0080           0   0.00000   0.00000
     12145 IM1      331      IM1      H3       HDA3A    0.094000        1.0080           0   0.00000   0.00000
     12146 IM1      331      IM1      N1       ND2R5A   2.670300       13.6070           0   -1.06300   1.30000
     12147 IM1      331      IM1      DN1      DRUD    -2.530300        0.4000           0   0.00000   0.00000
     12148 IM1      331      IM1      C2       CD2R5A   2.511900       11.6110           0   -1.37800   1.30000
     12149 IM1      331      IM1      DC2      DRUD    -2.880900        0.4000           0   0.00000   0.00000
     12150 IM1      331      IM1      H4       HDR5A    0.150000        1.0080           0   0.00000   0.00000
     12151 IM1      331      IM1      C3       CD2R5A   3.068900       11.6110           0   -1.37800   1.30000
     12152 IM1      331      IM1      DC3      DRUD    -2.880900        0.4000           0   0.00000   0.00000
     12153 IM1      331      IM1      H5       HDR5A    0.053000        1.0080           0   0.00000   0.00000
     12154 IM1      331      IM1      C4       CD2R5B   2.404400       11.6110           0   -0.868000   1.30000
     12155 IM1      331      IM1      DC4      DRUD    -2.286400        0.4000           0   0.00000   0.00000
     12156 IM1      331      IM1      H6       HDR5B    0.073000        1.0080           0   0.00000   0.00000
     12157 IM1      331      IM1      N2       ND2R5B   2.249300       13.6070           0   -0.840000   1.00000
     12158 IM1      331      IM1      DN2      DRUD    -2.249300        0.4000           0   0.00000   0.00000
     12159 IM1      331      IM1      H7       HDP1A    0.000000        1.0080           0   0.00000   0.00000
     12160 IM1      331      IM1      LPN21    LPD     -0.474000        0.0000           -1   0.00000   0.00000
     12161 IM1      332      IM1      C1       CD33G    2.390600       11.6110           0   -1.08100   1.00000
     12162 IM1      332      IM1      DC1      DRUD    -2.551600        0.4000           0   0.00000   0.00000
     12163 IM1      332      IM1      H1       HDA3A    0.094000        1.0080           0   0.00000   0.00000
     12164 IM1      332      IM1      H2       HDA3A    0.094000        1.0080           0   0.00000   0.00000
     12165 IM1      332      IM1      H3       HDA3A    0.094000        1.0080           0   0.00000   0.00000
     12166 IM1      332      IM1      N1       ND2R5A   2.670300       13.6070           0   -1.06300   1.30000
     12167 IM1      332      IM1      DN1      DRUD    -2.530300        0.4000           0   0.00000   0.00000
     12168 IM1      332      IM1      C2       CD2R5A   2.511900       11.6110           0   -1.37800   1.30000
     12169 IM1      332      IM1      DC2      DRUD    -2.880900        0.4000           0   0.00000   0.00000
     12170 IM1      332      IM1      H4       HDR5A    0.150000        1.0080           0   0.00000   0.00000
     12171 IM1      332      IM1      C3       CD2R5A   3.068900       11.6110           0   -1.37800   1.30000
     12172 IM1      332      IM1      DC3      DRUD    -2.880900        0.4000           0   0.00000   0.00000
     12173 IM1      332      IM1      H5       HDR5A    0.053000        1.0080           0   0.00000   0.00000
     12174 IM1      332      IM1      C4       CD2R5B   2.404400       11.6110           0   -0.868000   1.30000
     12175 IM1      332      IM1      DC4      DRUD    -2.286400        0.4000           0   0.00000   0.00000
     12176 IM1      332      IM1      H6       HDR5B    0.073000        1.0080           0   0.00000   0.00000
     12177 IM1      332      IM1      N2       ND2R5B   2.249300       13.6070           0   -0.840000   1.00000
     12178 IM1      332      IM1      DN2      DRUD    -2.249300        0.4000           0   0.00000   0.00000
     12179 IM1      332      IM1      H7       HDP1A    0.000000        1.0080           0   0.00000   0.00000
     12180 IM1      332      IM1      LPN21    LPD     -0.474000        0.0000           -1   0.00000   0.00000
     12181 IM1      333      IM1      C1       CD33G    2.390600       11.6110           0   -1.08100   1.00000
     12182 IM1      333      IM1      DC1      DRUD    -2.551600        0.4000           0   0.00000   0.00000
     12183 IM1      333      IM1      H1       HDA3A    0.094000        1.0080           0   0.00000   0.00000
     12184 IM1      333      IM1      H2       HDA3A    0.094000        1.0080           0   0.00000   0.00000
     12185 IM1      333      IM1      H3       HDA3A    0.094000        1.0080           0   0.00000   0.00000
     12186 IM1      333      IM1      N1       ND2R5A   2.670300       13.6070           0   -1.06300   1.30000
     12187 IM1      333      IM1      DN1      DRUD    -2.530300        0.4000           0   0.00000   0.00000
     12188 IM1      333      IM1      C2       CD2R5A   2.511900       11.6110           0   -1.37800   1.30000
     12189 IM1      333      IM1      DC2      DRUD    -2.880900        0.4000           0   0.00000   0.00000
     12190 IM1      333      IM1      H4       HDR5A    0.150000        1.0080           0   0.00000   0.00000
     12191 IM1      333      IM1      C3       CD2R5A   3.068900       11.6110           0   -1.37800   1.30000
     12192 IM1      333      IM1      DC3      DRUD    -2.880900        0.4000           0   0.00000   0.00000
     12193 IM1      333      IM1      H5       HDR5A    0.053000        1.0080           0   0.00000   0.00000
     12194 IM1      333      IM1      C4       CD2R5B   2.404400       11.6110           0   -0.868000   1.30000
     12195 IM1      333      IM1      DC4      DRUD    -2.286400        0.4000           0   0.00000   0.00000
     12196 IM1      333      IM1      H6       HDR5B    0.073000        1.0080           0   0.00000   0.00000
     12197 IM1      333      IM1      N2       ND2R5B   2.249300       13.6070           0   -0.840000   1.00000
     12198 IM1      333      IM1      DN2      DRUD    -2.249300        0.4000           0   0.00000   0.00000
     12199 IM1      333      IM1      H7       HDP1A    0.000000        1.0080           0   0.00000   0.00000
     12200 IM1      333      IM1      LPN21    LPD     -0.474000        0.0000           -1   0.00000   0.00000
     12201 IM1      334      IM1      C1       CD33G    2.390600       11.6110           0   -1.08100   1.00000
     12202 IM1      334      IM1      DC1      DRUD    -2.551600        0.4000           0   0.00000   0.00000
     12203 IM1      334      IM1      H1       HDA3A    0.094000        1.0080           0   0.00000   0.00000
     12204 IM1      334      IM1      H2       HDA3A    0.094000        1.0080           0   0.00000   0.00000
     12205 IM1      334      IM1      H3       HDA3A    0.094000        1.0080           0   0.00000   0.00000
     12206 IM1      334      IM1      N1       ND2R5A   2.670300       13.6070           0   -1.06300   1.30000
     12207 IM1      334      IM1      DN1      DRUD    -2.530300        0.4000           0   0.00000   0.00000
     12208 IM1      334      IM1      C2       CD2R5A   2.511900       11.6110           0   -1.37800   1.30000
     12209 IM1      334      IM1      DC2      DRUD    -2.880900        0.4000           0   0.00000   0.00000
     12210 IM1      334      IM1      H4       HDR5A    0.150000        1.0080           0   0.00000   0.00000
     12211 IM1      334      IM1      C3       CD2R5A   3.068900       11.6110           0   -1.37800   1.30000
     12212 IM1      334      IM1      DC3      DRUD    -2.880900        0.4000           0   0.00000   0.00000
     12213 IM1      334      IM1      H5       HDR5A    0.053000        1.0080           0   0.00000   0.00000
     12214 IM1      334      IM1      C4       CD2R5B   2.404400       11.6110           0   -0.868000   1.30000
     12215 IM1      334      IM1      DC4      DRUD    -2.286400        0.4000           0   0.00000   0.00000
     12216 IM1      334      IM1      H6       HDR5B    0.073000        1.0080           0   0.00000   0.00000
     12217 IM1      334      IM1      N2       ND2R5B   2.249300       13.6070           0   -0.840000   1.00000
     12218 IM1      334      IM1      DN2      DRUD    -2.249300        0.4000           0   0.00000   0.00000
     12219 IM1      334      IM1      H7       HDP1A    0.000000        1.0080           0   0.00000   0.00000
     12220 IM1      334      IM1      LPN21    LPD     -0.474000        0.0000           -1   0.00000   0.00000
     12221 IM1      335      IM1      C1       CD33G    2.390600       11.6110           0   -1.08100   1.00000
     12222 IM1      335      IM1      DC1      DRUD    -2.551600        0.4000           0   0.00000   0.00000
     12223 IM1      335      IM1      H1       HDA3A    0.094000        1.0080           0   0.00000   0.00000
     12224 IM1      335      IM1      H2       HDA3A    0.094000        1.0080           0   0.00000   0.00000
     12225 IM1      335      IM1      H3       HDA3A    0.094000        1.0080           0   0.00000   0.00000
     12226 IM1      335      IM1      N1       ND2R5A   2.670300       13.6070           0   -1.06300   1.30000
     12227 IM1      335      IM1      DN1      DRUD    -2.530300        0.4000           0   0.00000   0.00000
     12228 IM1      335      IM1      C2       CD2R5A   2.511900       11.6110           0   -1.37800   1.30000
     12229 IM1      335      IM1      DC2      DRUD    -2.880900        0.4000           0   0.00000   0.00000
     12230 IM1      335      IM1      H4       HDR5A    0.150000        1.0080           0   0.00000   0.00000
     12231 IM1      335      IM1      C3       CD2R5A   3.068900       11.6110           0   -1.37800   1.30000
     12232 IM1      335      IM1      DC3      DRUD    -2.880900        0.4000           0   0.00000   0.00000
     12233 IM1      335      IM1      H5       HDR5A    0.053000        1.0080           0   0.00000   0.00000
     12234 IM1      335      IM1      C4       CD2R5B   2.404400       11.6110           0   -0.868000   1.30000
     12235 IM1      335      IM1      DC4      DRUD    -2.286400        0.4000           0   0.00000   0.00000
     12236 IM1      335      IM1      H6       HDR5B    0.073000        1.0080           0   0.00000   0.00000
     12237 IM1      335      IM1      N2       ND2R5B   2.249300       13.6070           0   -0.840000   1.00000
     12238 IM1      335      IM1      DN2      DRUD    -2.249300        0.4000           0   0.00000   0.00000
     12239 IM1      335      IM1      H7       HDP1A    0.000000        1.0080           0   0.00000   0.00000
     12240 IM1      335      IM1      LPN21    LPD     -0.474000        0.0000           -1   0.00000   0.00000
     12241 IM1      336      IM1      C1       CD33G    2.390600       11.6110           0   -1.08100   1.00000
     12242 IM1      336      IM1      DC1      DRUD    -2.551600        0.4000           0   0.00000   0.00000
     12243 IM1      336      IM1      H1       HDA3A    0.094000        1.0080           0   0.00000   0.00000
     12244 IM1      336      IM1      H2       HDA3A    0.094000        1.0080           0   0.00000   0.00000
     12245 IM1      336      IM1      H3       HDA3A    0.094000        1.0080           0   0.00000   0.00000
     12246 IM1      336      IM1      N1       ND2R5A   2.670300       13.6070           0   -1.06300   1.30000
     12247 IM1      336      IM1      DN1      DRUD    -2.530300        0.4000           0   0.00000   0.00000
     12248 IM1      336      IM1      C2       CD2R5A   2.511900       11.6110           0   -1.37800   1.30000
     12249 IM1      336      IM1      DC2      DRUD    -2.880900        0.4000           0   0.00000   0.00000
     12250 IM1      336      IM1      H4       HDR5A    0.150000        1.0080           0   0.00000   0.00000
     12251 IM1      336      IM1      C3       CD2R5A   3.068900       11.6110           0   -1.37800   1.30000
     12252 IM1      336      IM1      DC3      DRUD    -2.880900        0.4000           0   0.00000   0.00000
     12253 IM1      336      IM1      H5       HDR5A    0.053000        1.0080           0   0.00000   0.00000
     12254 IM1      336      IM1      C4       CD2R5B   2.404400       11.6110           0   -0.868000   1.30000
     12255 IM1      336      IM1      DC4      DRUD    -2.286400        0.4000           0   0.00000   0.00000
     12256 IM1      336      IM1      H6       HDR5B    0.073000        1.0080           0   0.00000   0.00000
     12257 IM1      336      IM1      N2       ND2R5B   2.249300       13.6070           0   -0.840000   1.00000
     12258 IM1      336      IM1      DN2      DRUD    -2.249300        0.4000           0   0.00000   0.00000
     12259 IM1      336      IM1      H7       HDP1A    0.000000        1.0080           0   0.00000   0.00000
     12260 IM1      336      IM1      LPN21    LPD     -0.474000        0.0000           -1   0.00000   0.00000
     12261 IM1      337      IM1      C1       CD33G    2.390600       11.6110           0   -1.08100   1.00000
     12262 IM1      337      IM1      DC1      DRUD    -2.551600        0.4000           0   0.00000   0.00000
     12263 IM1      337      IM1      H1       HDA3A    0.094000        1.0080           0   0.00000   0.00000
     12264 IM1      337      IM1      H2       HDA3A    0.094000        1.0080           0   0.00000   0.00000
     12265 IM1      337      IM1      H3       HDA3A    0.094000        1.0080           0   0.00000   0.00000
     12266 IM1      337      IM1      N1       ND2R5A   2.670300       13.6070           0   -1.06300   1.30000
     12267 IM1      337      IM1      DN1      DRUD    -2.530300        0.4000           0   0.00000   0.00000
     12268 IM1      337      IM1      C2       CD2R5A   2.511900       11.6110           0   -1.37800   1.30000
     12269 IM1      337      IM1      DC2      DRUD    -2.880900        0.4000           0   0.00000   0.00000
     12270 IM1      337      IM1      H4       HDR5A    0.150000        1.0080           0   0.00000   0.00000
     12271 IM1      337      IM1      C3       CD2R5A   3.068900       11.6110           0   -1.37800   1.30000
     12272 IM1      337      IM1      DC3      DRUD    -2.880900        0.4000           0   0.00000   0.00000
     12273 IM1      337      IM1      H5       HDR5A    0.053000        1.0080           0   0.00000   0.00000
     12274 IM1      337      IM1      C4       CD2R5B   2.404400       11.6110           0   -0.868000   1.30000
     12275 IM1      337      IM1      DC4      DRUD    -2.286400        0.4000           0   0.00000   0.00000
     12276 IM1      337      IM1      H6       HDR5B    0.073000        1.0080           0   0.00000   0.00000
     12277 IM1      337      IM1      N2       ND2R5B   2.249300       13.6070           0   -0.840000   1.00000
     12278 IM1      337      IM1      DN2      DRUD    -2.249300        0.4000           0   0.00000   0.00000
     12279 IM1      337      IM1      H7       HDP1A    0.000000        1.0080           0   0.00000   0.00000
     12280 IM1      337      IM1      LPN21    LPD     -0.474000        0.0000           -1   0.00000   0.00000
     12281 IM1      338      IM1      C1       CD33G    2.390600       11.6110           0   -1.08100   1.00000
     12282 IM1      338      IM1      DC1      DRUD    -2.551600        0.4000           0   0.00000   0.00000
     12283 IM1      338      IM1      H1       HDA3A    0.094000        1.0080           0   0.00000   0.00000
     12284 IM1      338      IM1      H2       HDA3A    0.094000        1.0080           0   0.00000   0.00000
     12285 IM1      338      IM1      H3       HDA3A    0.094000        1.0080           0   0.00000   0.00000
     12286 IM1      338      IM1      N1       ND2R5A   2.670300       13.6070           0   -1.06300   1.30000
     12287 IM1      338      IM1      DN1      DRUD    -2.530300        0.4000           0   0.00000   0.00000
     12288 IM1      338      IM1      C2       CD2R5A   2.511900       11.6110           0   -1.37800   1.30000
     12289 IM1      338      IM1      DC2      DRUD    -2.880900        0.4000           0   0.00000   0.00000
     12290 IM1      338      IM1      H4       HDR5A    0.150000        1.0080           0   0.00000   0.00000
     12291 IM1      338      IM1      C3       CD2R5A   3.068900       11.6110           0   -1.37800   1.30000
     12292 IM1      338      IM1      DC3      DRUD    -2.880900        0.4000           0   0.00000   0.00000
     12293 IM1      338      IM1      H5       HDR5A    0.053000        1.0080           0   0.00000   0.00000
     12294 IM1      338      IM1      C4       CD2R5B   2.404400       11.6110           0   -0.868000   1.30000
     12295 IM1      338      IM1      DC4      DRUD    -2.286400        0.4000           0   0.00000   0.00000
     12296 IM1      338      IM1      H6       HDR5B    0.073000        1.0080           0   0.00000   0.00000
     12297 IM1      338      IM1      N2       ND2R5B   2.249300       13.6070           0   -0.840000   1.00000
     12298 IM1      338      IM1      DN2      DRUD    -2.249300        0.4000           0   0.00000   0.00000
     12299 IM1      338      IM1      H7       HDP1A    0.000000        1.0080           0   0.00000   0.00000
     12300 IM1      338      IM1      LPN21    LPD     -0.474000        0.0000           -1   0.00000   0.00000
     12301 IM1      339      IM1      C1       CD33G    2.390600       11.6110           0   -1.08100   1.00000
     12302 IM1      339      IM1      DC1      DRUD    -2.551600        0.4000           0   0.00000   0.00000
     12303 IM1      339      IM1      H1       HDA3A    0.094000        1.0080           0   0.00000   0.00000
     12304 IM1      339      IM1      H2       HDA3A    0.094000        1.0080           0   0.00000   0.00000
     12305 IM1      339      IM1      H3       HDA3A    0.094000        1.0080           0   0.00000   0.00000
     12306 IM1      339      IM1      N1       ND2R5A   2.670300       13.6070           0   -1.06300   1.30000
     12307 IM1      339      IM1      DN1      DRUD    -2.530300        0.4000           0   0.00000   0.00000
     12308 IM1      339      IM1      C2       CD2R5A   2.511900       11.6110           0   -1.37800   1.30000
     12309 IM1      339      IM1      DC2      DRUD    -2.880900        0.4000           0   0.00000   0.00000
     12310 IM1      339      IM1      H4       HDR5A    0.150000        1.0080           0   0.00000   0.00000
     12311 IM1      339      IM1      C3       CD2R5A   3.068900       11.6110           0   -1.37800   1.30000
     12312 IM1      339      IM1      DC3      DRUD    -2.880900        0.4000           0   0.00000   0.00000
     12313 IM1      339      IM1      H5       HDR5A    0.053000        1.0080           0   0.00000   0.00000
     12314 IM1      339      IM1      C4       CD2R5B   2.404400       11.6110           0   -0.868000   1.30000
     12315 IM1      339      IM1      DC4      DRUD    -2.286400        0.4000           0   0.00000   0.00000
     12316 IM1      339      IM1      H6       HDR5B    0.073000        1.0080           0   0.00000   0.00000
     12317 IM1      339      IM1      N2       ND2R5B   2.249300       13.6070           0   -0.840000   1.00000
     12318 IM1      339      IM1      DN2      DRUD    -2.249300        0.4000           0   0.00000   0.00000
     12319 IM1      339      IM1      H7       HDP1A    0.000000        1.0080           0   0.00000   0.00000
     12320 IM1      339      IM1      LPN21    LPD     -0.474000        0.0000           -1   0.00000   0.00000
     12321 IM1      340      IM1      C1       CD33G    2.390600       11.6110           0   -1.08100   1.00000
     12322 IM1      340      IM1      DC1      DRUD    -2.551600        0.4000           0   0.00000   0.00000
     12323 IM1      340      IM1      H1       HDA3A    0.094000        1.0080           0   0.00000   0.00000
     12324 IM1      340      IM1      H2       HDA3A    0.094000        1.0080           0   0.00000   0.00000
     12325 IM1      340      IM1      H3       HDA3A    0.094000        1.0080           0   0.00000   0.00000
     12326 IM1      340      IM1      N1       ND2R5A   2.670300       13.6070           0   -1.06300   1.30000
     12327 IM1      340      IM1      DN1      DRUD    -2.530300        0.4000           0   0.00000   0.00000
     12328 IM1      340      IM1      C2       CD2R5A   2.511900       11.6110           0   -1.37800   1.30000
     12329 IM1      340      IM1      DC2      DRUD    -2.880900        0.4000           0   0.00000   0.00000
     12330 IM1      340      IM1      H4       HDR5A    0.150000        1.0080           0   0.00000   0.00000
     12331 IM1      340      IM1      C3       CD2R5A   3.068900       11.6110           0   -1.37800   1.30000
     12332 IM1      340      IM1      DC3      DRUD    -2.880900        0.4000           0   0.00000   0.00000
     12333 IM1      340      IM1      H5       HDR5A    0.053000        1.0080           0   0.00000   0.00000
     12334 IM1      340      IM1      C4       CD2R5B   2.404400       11.6110           0   -0.868000   1.30000
     12335 IM1      340      IM1      DC4      DRUD    -2.286400        0.4000           0   0.00000   0.00000
     12336 IM1      340      IM1      H6       HDR5B    0.073000        1.0080           0   0.00000   0.00000
     12337 IM1      340      IM1      N2       ND2R5B   2.249300       13.6070           0   -0.840000   1.00000
     12338 IM1      340      IM1      DN2      DRUD    -2.249300        0.4000           0   0.00000   0.00000
     12339 IM1      340      IM1      H7       HDP1A    0.000000        1.0080           0   0.00000   0.00000
     12340 IM1      340      IM1      LPN21    LPD     -0.474000        0.0000           -1   0.00000   0.00000
     12341 IM1      341      IM1      C1       CD33G    2.390600       11.6110           0   -1.08100   1.00000
     12342 IM1      341      IM1      DC1      DRUD    -2.551600        0.4000           0   0.00000   0.00000
     12343 IM1      341      IM1      H1       HDA3A    0.094000        1.0080           0   0.00000   0.00000
     12344 IM1      341      IM1      H2       HDA3A    0.094000        1.0080           0   0.00000   0.00000
     12345 IM1      341      IM1      H3       HDA3A    0.094000        1.0080           0   0.00000   0.00000
     12346 IM1      341      IM1      N1       ND2R5A   2.670300       13.6070           0   -1.06300   1.30000
     12347 IM1      341      IM1      DN1      DRUD    -2.530300        0.4000           0   0.00000   0.00000
     12348 IM1      341      IM1      C2       CD2R5A   2.511900       11.6110           0   -1.37800   1.30000
     12349 IM1      341      IM1      DC2      DRUD    -2.880900        0.4000           0   0.00000   0.00000
     12350 IM1      341      IM1      H4       HDR5A    0.150000        1.0080           0   0.00000   0.00000
     12351 IM1      341      IM1      C3       CD2R5A   3.068900       11.6110           0   -1.37800   1.30000
     12352 IM1      341      IM1      DC3      DRUD    -2.880900        0.4000           0   0.00000   0.00000
     12353 IM1      341      IM1      H5       HDR5A    0.053000        1.0080           0   0.00000   0.00000
     12354 IM1      341      IM1      C4       CD2R5B   2.404400       11.6110           0   -0.868000   1.30000
     12355 IM1      341      IM1      DC4      DRUD    -2.286400        0.4000           0   0.00000   0.00000
     12356 IM1      341      IM1      H6       HDR5B    0.073000        1.0080           0   0.00000   0.00000
     12357 IM1      341      IM1      N2       ND2R5B   2.249300       13.6070           0   -0.840000   1.00000
     12358 IM1      341      IM1      DN2      DRUD    -2.249300        0.4000           0   0.00000   0.00000
     12359 IM1      341      IM1      H7       HDP1A    0.000000        1.0080           0   0.00000   0.00000
     12360 IM1      341      IM1      LPN21    LPD     -0.474000        0.0000           -1   0.00000   0.00000
     12361 IM1      342      IM1      C1       CD33G    2.390600       11.6110           0   -1.08100   1.00000
     12362 IM1      342      IM1      DC1      DRUD    -2.551600        0.4000           0   0.00000   0.00000
     12363 IM1      342      IM1      H1       HDA3A    0.094000        1.0080           0   0.00000   0.00000
     12364 IM1      342      IM1      H2       HDA3A    0.094000        1.0080           0   0.00000   0.00000
     12365 IM1      342      IM1      H3       HDA3A    0.094000        1.0080           0   0.00000   0.00000
     12366 IM1      342      IM1      N1       ND2R5A   2.670300       13.6070           0   -1.06300   1.30000
     12367 IM1      342      IM1      DN1      DRUD    -2.530300        0.4000           0   0.00000   0.00000
     12368 IM1      342      IM1      C2       CD2R5A   2.511900       11.6110           0   -1.37800   1.30000
     12369 IM1      342      IM1      DC2      DRUD    -2.880900        0.4000           0   0.00000   0.00000
     12370 IM1      342      IM1      H4       HDR5A    0.150000        1.0080           0   0.00000   0.00000
     12371 IM1      342      IM1      C3       CD2R5A   3.068900       11.6110           0   -1.37800   1.30000
     12372 IM1      342      IM1      DC3      DRUD    -2.880900        0.4000           0   0.00000   0.00000
     12373 IM1      342      IM1      H5       HDR5A    0.053000        1.0080           0   0.00000   0.00000
     12374 IM1      342      IM1      C4       CD2R5B   2.404400       11.6110           0   -0.868000   1.30000
     12375 IM1      342      IM1      DC4      DRUD    -2.286400        0.4000           0   0.00000   0.00000
     12376 IM1      342      IM1      H6       HDR5B    0.073000        1.0080           0   0.00000   0.00000
     12377 IM1      342      IM1      N2       ND2R5B   2.249300       13.6070           0   -0.840000   1.00000
     12378 IM1      342      IM1      DN2      DRUD    -2.249300        0.4000           0   0.00000   0.00000
     12379 IM1      342      IM1      H7       HDP1A    0.000000        1.0080           0   0.00000   0.00000
     12380 IM1      342      IM1      LPN21    LPD     -0.474000        0.0000           -1   0.00000   0.00000
     12381 IM1      343      IM1      C1       CD33G    2.390600       11.6110           0   -1.08100   1.00000
     12382 IM1      343      IM1      DC1      DRUD    -2.551600        0.4000           0   0.00000   0.00000
     12383 IM1      343      IM1      H1       HDA3A    0.094000        1.0080           0   0.00000   0.00000
     12384 IM1      343      IM1      H2       HDA3A    0.094000        1.0080           0   0.00000   0.00000
     12385 IM1      343      IM1      H3       HDA3A    0.094000        1.0080           0   0.00000   0.00000
     12386 IM1      343      IM1      N1       ND2R5A   2.670300       13.6070           0   -1.06300   1.30000
     12387 IM1      343      IM1      DN1      DRUD    -2.530300        0.4000           0   0.00000   0.00000
     12388 IM1      343      IM1      C2       CD2R5A   2.511900       11.6110           0   -1.37800   1.30000
     12389 IM1      343      IM1      DC2      DRUD    -2.880900        0.4000           0   0.00000   0.00000
     12390 IM1      343      IM1      H4       HDR5A    0.150000        1.0080           0   0.00000   0.00000
     12391 IM1      343      IM1      C3       CD2R5A   3.068900       11.6110           0   -1.37800   1.30000
     12392 IM1      343      IM1      DC3      DRUD    -2.880900        0.4000           0   0.00000   0.00000
     12393 IM1      343      IM1      H5       HDR5A    0.053000        1.0080           0   0.00000   0.00000
     12394 IM1      343      IM1      C4       CD2R5B   2.404400       11.6110           0   -0.868000   1.30000
     12395 IM1      343      IM1      DC4      DRUD    -2.286400        0.4000           0   0.00000   0.00000
     12396 IM1      343      IM1      H6       HDR5B    0.073000        1.0080           0   0.00000   0.00000
     12397 IM1      343      IM1      N2       ND2R5B   2.249300       13.6070           0   -0.840000   1.00000
     12398 IM1      343      IM1      DN2      DRUD    -2.249300        0.4000           0   0.00000   0.00000
     12399 IM1      343      IM1      H7       HDP1A    0.000000        1.0080           0   0.00000   0.00000
     12400 IM1      343      IM1      LPN21    LPD     -0.474000        0.0000           -1   0.00000   0.00000
     12401 IM1      344      IM1      C1       CD33G    2.390600       11.6110           0   -1.08100   1.00000
     12402 IM1      344      IM1      DC1      DRUD    -2.551600        0.4000           0   0.00000   0.00000
     12403 IM1      344      IM1      H1       HDA3A    0.094000        1.0080           0   0.00000   0.00000
     12404 IM1      344      IM1      H2       HDA3A    0.094000        1.0080           0   0.00000   0.00000
     12405 IM1      344      IM1      H3       HDA3A    0.094000        1.0080           0   0.00000   0.00000
     12406 IM1      344      IM1      N1       ND2R5A   2.670300       13.6070           0   -1.06300   1.30000
     12407 IM1      344      IM1      DN1      DRUD    -2.530300        0.4000           0   0.00000   0.00000
     12408 IM1      344      IM1      C2       CD2R5A   2.511900       11.6110           0   -1.37800   1.30000
     12409 IM1      344      IM1      DC2      DRUD    -2.880900        0.4000           0   0.00000   0.00000
     12410 IM1      344      IM1      H4       HDR5A    0.150000        1.0080           0   0.00000   0.00000
     12411 IM1      344      IM1      C3       CD2R5A   3.068900       11.6110           0   -1.37800   1.30000
     12412 IM1      344      IM1      DC3      DRUD    -2.880900        0.4000           0   0.00000   0.00000
     12413 IM1      344      IM1      H5       HDR5A    0.053000        1.0080           0   0.00000   0.00000
     12414 IM1      344      IM1      C4       CD2R5B   2.404400       11.6110           0   -0.868000   1.30000
     12415 IM1      344      IM1      DC4      DRUD    -2.286400        0.4000           0   0.00000   0.00000
     12416 IM1      344      IM1      H6       HDR5B    0.073000        1.0080           0   0.00000   0.00000
     12417 IM1      344      IM1      N2       ND2R5B   2.249300       13.6070           0   -0.840000   1.00000
     12418 IM1      344      IM1      DN2      DRUD    -2.249300        0.4000           0   0.00000   0.00000
     12419 IM1      344      IM1      H7       HDP1A    0.000000        1.0080           0   0.00000   0.00000
     12420 IM1      344      IM1      LPN21    LPD     -0.474000        0.0000           -1   0.00000   0.00000
     12421 IM1      345      IM1      C1       CD33G    2.390600       11.6110           0   -1.08100   1.00000
     12422 IM1      345      IM1      DC1      DRUD    -2.551600        0.4000           0   0.00000   0.00000
     12423 IM1      345      IM1      H1       HDA3A    0.094000        1.0080           0   0.00000   0.00000
     12424 IM1      345      IM1      H2       HDA3A    0.094000        1.0080           0   0.00000   0.00000
     12425 IM1      345      IM1      H3       HDA3A    0.094000        1.0080           0   0.00000   0.00000
     12426 IM1      345      IM1      N1       ND2R5A   2.670300       13.6070           0   -1.06300   1.30000
     12427 IM1      345      IM1      DN1      DRUD    -2.530300        0.4000           0   0.00000   0.00000
     12428 IM1      345      IM1      C2       CD2R5A   2.511900       11.6110           0   -1.37800   1.30000
     12429 IM1      345      IM1      DC2      DRUD    -2.880900        0.4000           0   0.00000   0.00000
     12430 IM1      345      IM1      H4       HDR5A    0.150000        1.0080           0   0.00000   0.00000
     12431 IM1      345      IM1      C3       CD2R5A   3.068900       11.6110           0   -1.37800   1.30000
     12432 IM1      345      IM1      DC3      DRUD    -2.880900        0.4000           0   0.00000   0.00000
     12433 IM1      345      IM1      H5       HDR5A    0.053000        1.0080           0   0.00000   0.00000
     12434 IM1      345      IM1      C4       CD2R5B   2.404400       11.6110           0   -0.868000   1.30000
     12435 IM1      345      IM1      DC4      DRUD    -2.286400        0.4000           0   0.00000   0.00000
     12436 IM1      345      IM1      H6       HDR5B    0.073000        1.0080           0   0.00000   0.00000
     12437 IM1      345      IM1      N2       ND2R5B   2.249300       13.6070           0   -0.840000   1.00000
     12438 IM1      345      IM1      DN2      DRUD    -2.249300        0.4000           0   0.00000   0.00000
     12439 IM1      345      IM1      H7       HDP1A    0.000000        1.0080           0   0.00000   0.00000
     12440 IM1      345      IM1      LPN21    LPD     -0.474000        0.0000           -1   0.00000   0.00000
     12441 IM1      346      IM1      C1       CD33G    2.390600       11.6110           0   -1.08100   1.00000
     12442 IM1      346      IM1      DC1      DRUD    -2.551600        0.4000           0   0.00000   0.00000
     12443 IM1      346      IM1      H1       HDA3A    0.094000        1.0080           0   0.00000   0.00000
     12444 IM1      346      IM1      H2       HDA3A    0.094000        1.0080           0   0.00000   0.00000
     12445 IM1      346      IM1      H3       HDA3A    0.094000        1.0080           0   0.00000   0.00000
     12446 IM1      346      IM1      N1       ND2R5A   2.670300       13.6070           0   -1.06300   1.30000
     12447 IM1      346      IM1      DN1      DRUD    -2.530300        0.4000           0   0.00000   0.00000
     12448 IM1      346      IM1      C2       CD2R5A   2.511900       11.6110           0   -1.37800   1.30000
     12449 IM1      346      IM1      DC2      DRUD    -2.880900        0.4000           0   0.00000   0.00000
     12450 IM1      346      IM1      H4       HDR5A    0.150000        1.0080           0   0.00000   0.00000
     12451 IM1      346      IM1      C3       CD2R5A   3.068900       11.6110           0   -1.37800   1.30000
     12452 IM1      346      IM1      DC3      DRUD    -2.880900        0.4000           0   0.00000   0.00000
     12453 IM1      346      IM1      H5       HDR5A    0.053000        1.0080           0   0.00000   0.00000
     12454 IM1      346      IM1      C4       CD2R5B   2.404400       11.6110           0   -0.868000   1.30000
     12455 IM1      346      IM1      DC4      DRUD    -2.286400        0.4000           0   0.00000   0.00000
     12456 IM1      346      IM1      H6       HDR5B    0.073000        1.0080           0   0.00000   0.00000
     12457 IM1      346      IM1      N2       ND2R5B   2.249300       13.6070           0   -0.840000   1.00000
     12458 IM1      346      IM1      DN2      DRUD    -2.249300        0.4000           0   0.00000   0.00000
     12459 IM1      346      IM1      H7       HDP1A    0.000000        1.0080           0   0.00000   0.00000
     12460 IM1      346      IM1      LPN21    LPD     -0.474000        0.0000           -1   0.00000   0.00000
     12461 IM1      347      IM1      C1       CD33G    2.390600       11.6110           0   -1.08100   1.00000
     12462 IM1      347      IM1      DC1      DRUD    -2.551600        0.4000           0   0.00000   0.00000
     12463 IM1      347      IM1      H1       HDA3A    0.094000        1.0080           0   0.00000   0.00000
     12464 IM1      347      IM1      H2       HDA3A    0.094000        1.0080           0   0.00000   0.00000
     12465 IM1      347      IM1      H3       HDA3A    0.094000        1.0080           0   0.00000   0.00000
     12466 IM1      347      IM1      N1       ND2R5A   2.670300       13.6070           0   -1.06300   1.30000
     12467 IM1      347      IM1      DN1      DRUD    -2.530300        0.4000           0   0.00000   0.00000
     12468 IM1      347      IM1      C2       CD2R5A   2.511900       11.6110           0   -1.37800   1.30000
     12469 IM1      347      IM1      DC2      DRUD    -2.880900        0.4000           0   0.00000   0.00000
     12470 IM1      347      IM1      H4       HDR5A    0.150000        1.0080           0   0.00000   0.00000
     12471 IM1      347      IM1      C3       CD2R5A   3.068900       11.6110           0   -1.37800   1.30000
     12472 IM1      347      IM1      DC3      DRUD    -2.880900        0.4000           0   0.00000   0.00000
     12473 IM1      347      IM1      H5       HDR5A    0.053000        1.0080           0   0.00000   0.00000
     12474 IM1      347      IM1      C4       CD2R5B   2.404400       11.6110           0   -0.868000   1.30000
     12475 IM1      347      IM1      DC4      DRUD    -2.286400        0.4000           0   0.00000   0.00000
     12476 IM1      347      IM1      H6       HDR5B    0.073000        1.0080           0   0.00000   0.00000
     12477 IM1      347      IM1      N2       ND2R5B   2.249300       13.6070           0   -0.840000   1.00000
     12478 IM1      347      IM1      DN2      DRUD    -2.249300        0.4000           0   0.00000   0.00000
     12479 IM1      347      IM1      H7       HDP1A    0.000000        1.0080           0   0.00000   0.00000
     12480 IM1      347      IM1      LPN21    LPD     -0.474000        0.0000           -1   0.00000   0.00000
     12481 IM1      348      IM1      C1       CD33G    2.390600       11.6110           0   -1.08100   1.00000
     12482 IM1      348      IM1      DC1      DRUD    -2.551600        0.4000           0   0.00000   0.00000
     12483 IM1      348      IM1      H1       HDA3A    0.094000        1.0080           0   0.00000   0.00000
     12484 IM1      348      IM1      H2       HDA3A    0.094000        1.0080           0   0.00000   0.00000
     12485 IM1      348      IM1      H3       HDA3A    0.094000        1.0080           0   0.00000   0.00000
     12486 IM1      348      IM1      N1       ND2R5A   2.670300       13.6070           0   -1.06300   1.30000
     12487 IM1      348      IM1      DN1      DRUD    -2.530300        0.4000           0   0.00000   0.00000
     12488 IM1      348      IM1      C2       CD2R5A   2.511900       11.6110           0   -1.37800   1.30000
     12489 IM1      348      IM1      DC2      DRUD    -2.880900        0.4000           0   0.00000   0.00000
     12490 IM1      348      IM1      H4       HDR5A    0.150000        1.0080           0   0.00000   0.00000
     12491 IM1      348      IM1      C3       CD2R5A   3.068900       11.6110           0   -1.37800   1.30000
     12492 IM1      348      IM1      DC3      DRUD    -2.880900        0.4000           0   0.00000   0.00000
     12493 IM1      348      IM1      H5       HDR5A    0.053000        1.0080           0   0.00000   0.00000
     12494 IM1      348      IM1      C4       CD2R5B   2.404400       11.6110           0   -0.868000   1.30000
     12495 IM1      348      IM1      DC4      DRUD    -2.286400        0.4000           0   0.00000   0.00000
     12496 IM1      348      IM1      H6       HDR5B    0.073000        1.0080           0   0.00000   0.00000
     12497 IM1      348      IM1      N2       ND2R5B   2.249300       13.6070           0   -0.840000   1.00000
     12498 IM1      348      IM1      DN2      DRUD    -2.249300        0.4000           0   0.00000   0.00000
     12499 IM1      348      IM1      H7       HDP1A    0.000000        1.0080           0   0.00000   0.00000
     12500 IM1      348      IM1      LPN21    LPD     -0.474000        0.0000           -1   0.00000   0.00000
     12501 IM1      349      IM1      C1       CD33G    2.390600       11.6110           0   -1.08100   1.00000
     12502 IM1      349      IM1      DC1      DRUD    -2.551600        0.4000           0   0.00000   0.00000
     12503 IM1      349      IM1      H1       HDA3A    0.094000        1.0080           0   0.00000   0.00000
     12504 IM1      349      IM1      H2       HDA3A    0.094000        1.0080           0   0.00000   0.00000
     12505 IM1      349      IM1      H3       HDA3A    0.094000        1.0080           0   0.00000   0.00000
     12506 IM1      349      IM1      N1       ND2R5A   2.670300       13.6070           0   -1.06300   1.30000
     12507 IM1      349      IM1      DN1      DRUD    -2.530300        0.4000           0   0.00000   0.00000
     12508 IM1      349      IM1      C2       CD2R5A   2.511900       11.6110           0   -1.37800   1.30000
     12509 IM1      349      IM1      DC2      DRUD    -2.880900        0.4000           0   0.00000   0.00000
     12510 IM1      349      IM1      H4       HDR5A    0.150000        1.0080           0   0.00000   0.00000
     12511 IM1      349      IM1      C3       CD2R5A   3.068900       11.6110           0   -1.37800   1.30000
     12512 IM1      349      IM1      DC3      DRUD    -2.880900        0.4000           0   0.00000   0.00000
     12513 IM1      349      IM1      H5       HDR5A    0.053000        1.0080           0   0.00000   0.00000
     12514 IM1      349      IM1      C4       CD2R5B   2.404400       11.6110           0   -0.868000   1.30000
     12515 IM1      349      IM1      DC4      DRUD    -2.286400        0.4000           0   0.00000   0.00000
     12516 IM1      349      IM1      H6       HDR5B    0.073000        1.0080           0   0.00000   0.00000
     12517 IM1      349      IM1      N2       ND2R5B   2.249300       13.6070           0   -0.840000   1.00000
     12518 IM1      349      IM1      DN2      DRUD    -2.249300        0.4000           0   0.00000   0.00000
     12519 IM1      349      IM1      H7       HDP1A    0.000000        1.0080           0   0.00000   0.00000
     12520 IM1      349      IM1      LPN21    LPD     -0.474000        0.0000           -1   0.00000   0.00000
     12521 IM1      350      IM1      C1       CD33G    2.390600       11.6110           0   -1.08100   1.00000
     12522 IM1      350      IM1      DC1      DRUD    -2.551600        0.4000           0   0.00000   0.00000
     12523 IM1      350      IM1      H1       HDA3A    0.094000        1.0080           0   0.00000   0.00000
     12524 IM1      350      IM1      H2       HDA3A    0.094000        1.0080           0   0.00000   0.00000
     12525 IM1      350      IM1      H3       HDA3A    0.094000        1.0080           0   0.00000   0.00000
     12526 IM1      350      IM1      N1       ND2R5A   2.670300       13.6070           0   -1.06300   1.30000
     12527 IM1      350      IM1      DN1      DRUD    -2.530300        0.4000           0   0.00000   0.00000
     12528 IM1      350      IM1      C2       CD2R5A   2.511900       11.6110           0   -1.37800   1.30000
     12529 IM1      350      IM1      DC2      DRUD    -2.880900        0.4000           0   0.00000   0.00000
     12530 IM1      350      IM1      H4       HDR5A    0.150000        1.0080           0   0.00000   0.00000
     12531 IM1      350      IM1      C3       CD2R5A   3.068900       11.6110           0   -1.37800   1.30000
     12532 IM1      350      IM1      DC3      DRUD    -2.880900        0.4000           0   0.00000   0.00000
     12533 IM1      350      IM1      H5       HDR5A    0.053000        1.0080           0   0.00000   0.00000
     12534 IM1      350      IM1      C4       CD2R5B   2.404400       11.6110           0   -0.868000   1.30000
     12535 IM1      350      IM1      DC4      DRUD    -2.286400        0.4000           0   0.00000   0.00000
     12536 IM1      350      IM1      H6       HDR5B    0.073000        1.0080           0   0.00000   0.00000
     12537 IM1      350      IM1      N2       ND2R5B   2.249300       13.6070           0   -0.840000   1.00000
     12538 IM1      350      IM1      DN2      DRUD    -2.249300        0.4000           0   0.00000   0.00000
     12539 IM1      350      IM1      H7       HDP1A    0.000000        1.0080           0   0.00000   0.00000
     12540 IM1      350      IM1      LPN21    LPD     -0.474000        0.0000           -1   0.00000   0.00000
     12541 HOAC     1        HOAC     C1       CD2O3A   3.554200       11.6110           0   -1.20700   0.708000
     12542 HOAC     1        HOAC     DC1      DRUD    -2.696200        0.4000           0   0.00000   0.00000
     12543 HOAC     1        HOAC     C2       CD33C    3.268200       11.6110           0   -2.11400   0.750000
     12544 HOAC     1        HOAC     DC2      DRUD    -3.568200        0.4000           0   0.00000   0.00000
     12545 HOAC     1        HOAC     H1       HDA3A    0.092000        1.0080           0   0.00000   0.00000
     12546 HOAC     1        HOAC     H2       HDA3A    0.092000        1.0080           0   0.00000   0.00000
     12547 HOAC     1        HOAC     H3       HDA3A    0.092000        1.0080           0   0.00000   0.00000
     12548 HOAC     1        HOAC     O1       OD2C3A   2.356500       15.5994           0   -0.922000   1.53900
     12549 HOAC     1        HOAC     DO1      DRUD    -2.356500        0.4000           0   0.00000   0.00000
     12550 HOAC     1        HOAC     O2       OD31F    2.776500       15.5990           0   -1.28000   1.12400
     12551 HOAC     1        HOAC     DO2      DRUD    -2.776500        0.4000           0   0.00000   0.00000
     12552 HOAC     1        HOAC     H        HDP1A    0.374000        1.0080           0   0.00000   0.00000
     12553 HOAC     1        HOAC     LPO11    LPD     -0.319000        0.0000           -1   0.00000   0.00000
     12554 HOAC     1        HOAC     LPO12    LPD     -0.319000        0.0000           -1   0.00000   0.00000
     12555 HOAC     1        HOAC     LPO21    LPD     -0.285000        0.0000           -1   0.00000   0.00000
     12556 HOAC     1        HOAC     LPO22    LPD     -0.285000        0.0000           -1   0.00000   0.00000
     12557 HOAC     2        HOAC     C1       CD2O3A   3.554200       11.6110           0   -1.20700   0.708000
     12558 HOAC     2        HOAC     DC1      DRUD    -2.696200        0.4000           0   0.00000   0.00000
     12559 HOAC     2        HOAC     C2       CD33C    3.268200       11.6110           0   -2.11400   0.750000
     12560 HOAC     2        HOAC     DC2      DRUD    -3.568200        0.4000           0   0.00000   0.00000
     12561 HOAC     2        HOAC     H1       HDA3A    0.092000        1.0080           0   0.00000   0.00000
     12562 HOAC     2        HOAC     H2       HDA3A    0.092000        1.0080           0   0.00000   0.00000
     12563 HOAC     2        HOAC     H3       HDA3A    0.092000        1.0080           0   0.00000   0.00000
     12564 HOAC     2        HOAC     O1       OD2C3A   2.356500       15.5994           0   -0.922000   1.53900
     12565 HOAC     2        HOAC     DO1      DRUD    -2.356500        0.4000           0   0.00000   0.00000
     12566 HOAC     2        HOAC     O2       OD31F    2.776500       15.5990           0   -1.28000   1.12400
     12567 HOAC     2        HOAC     DO2      DRUD    -2.776500        0.4000           0   0.00000   0.00000
     12568 HOAC     2        HOAC     H        HDP1A    0.374000        1.0080           0   0.00000   0.00000
     12569 HOAC     2        HOAC     LPO11    LPD     -0.319000        0.0000           -1   0.00000   0.00000
     12570 HOAC     2        HOAC     LPO12    LPD     -0.319000        0.0000           -1   0.00000   0.00000
     12571 HOAC     2        HOAC     LPO21    LPD     -0.285000        0.0000           -1   0.00000   0.00000
     12572 HOAC     2        HOAC     LPO22    LPD     -0.285000        0.0000           -1   0.00000   0.00000
     12573 HOAC     3        HOAC     C1       CD2O3A   3.554200       11.6110           0   -1.20700   0.708000
     12574 HOAC     3        HOAC     DC1      DRUD    -2.696200        0.4000           0   0.00000   0.00000
     12575 HOAC     3        HOAC     C2       CD33C    3.268200       11.6110           0   -2.11400   0.750000
     12576 HOAC     3        HOAC     DC2      DRUD    -3.568200        0.4000           0   0.00000   0.00000
     12577 HOAC     3        HOAC     H1       HDA3A    0.092000        1.0080           0   0.00000   0.00000
     12578 HOAC     3        HOAC     H2       HDA3A    0.092000        1.0080           0   0.00000   0.00000
     12579 HOAC     3        HOAC     H3       HDA3A    0.092000        1.0080           0   0.00000   0.00000
     12580 HOAC     3        HOAC     O1       OD2C3A   2.356500       15.5994           0   -0.922000   1.53900
     12581 HOAC     3        HOAC     DO1      DRUD    -2.356500        0.4000           0   0.00000   0.00000
     12582 HOAC     3        HOAC     O2       OD31F    2.776500       15.5990           0   -1.28000   1.12400
     12583 HOAC     3        HOAC     DO2      DRUD    -2.776500        0.4000           0   0.00000   0.00000
     12584 HOAC     3        HOAC     H        HDP1A    0.374000        1.0080           0   0.00000   0.00000
     12585 HOAC     3        HOAC     LPO11    LPD     -0.319000        0.0000           -1   0.00000   0.00000
     12586 HOAC     3        HOAC     LPO12    LPD     -0.319000        0.0000           -1   0.00000   0.00000
     12587 HOAC     3        HOAC     LPO21    LPD     -0.285000        0.0000           -1   0.00000   0.00000
     12588 HOAC     3        HOAC     LPO22    LPD     -0.285000        0.0000           -1   0.00000   0.00000
     12589 HOAC     4        HOAC     C1       CD2O3A   3.554200       11.6110           0   -1.20700   0.708000
     12590 HOAC     4        HOAC     DC1      DRUD    -2.696200        0.4000           0   0.00000   0.00000
     12591 HOAC     4        HOAC     C2       CD33C    3.268200       11.6110           0   -2.11400   0.750000
     12592 HOAC     4        HOAC     DC2      DRUD    -3.568200        0.4000           0   0.00000   0.00000
     12593 HOAC     4        HOAC     H1       HDA3A    0.092000        1.0080           0   0.00000   0.00000
     12594 HOAC     4        HOAC     H2       HDA3A    0.092000        1.0080           0   0.00000   0.00000
     12595 HOAC     4        HOAC     H3       HDA3A    0.092000        1.0080           0   0.00000   0.00000
     12596 HOAC     4        HOAC     O1       OD2C3A   2.356500       15.5994           0   -0.922000   1.53900
     12597 HOAC     4        HOAC     DO1      DRUD    -2.356500        0.4000           0   0.00000   0.00000
     12598 HOAC     4        HOAC     O2       OD31F    2.776500       15.5990           0   -1.28000   1.12400
     12599 HOAC     4        HOAC     DO2      DRUD    -2.776500        0.4000           0   0.00000   0.00000
     12600 HOAC     4        HOAC     H        HDP1A    0.374000        1.0080           0   0.00000   0.00000
     12601 HOAC     4        HOAC     LPO11    LPD     -0.319000        0.0000           -1   0.00000   0.00000
     12602 HOAC     4        HOAC     LPO12    LPD     -0.319000        0.0000           -1   0.00000   0.00000
     12603 HOAC     4        HOAC     LPO21    LPD     -0.285000        0.0000           -1   0.00000   0.00000
     12604 HOAC     4        HOAC     LPO22    LPD     -0.285000        0.0000           -1   0.00000   0.00000
     12605 HOAC     5        HOAC     C1       CD2O3A   3.554200       11.6110           0   -1.20700   0.708000
     12606 HOAC     5        HOAC     DC1      DRUD    -2.696200        0.4000           0   0.00000   0.00000
     12607 HOAC     5        HOAC     C2       CD33C    3.268200       11.6110           0   -2.11400   0.750000
     12608 HOAC     5        HOAC     DC2      DRUD    -3.568200        0.4000           0   0.00000   0.00000
     12609 HOAC     5        HOAC     H1       HDA3A    0.092000        1.0080           0   0.00000   0.00000
     12610 HOAC     5        HOAC     H2       HDA3A    0.092000        1.0080           0   0.00000   0.00000
     12611 HOAC     5        HOAC     H3       HDA3A    0.092000        1.0080           0   0.00000   0.00000
     12612 HOAC     5        HOAC     O1       OD2C3A   2.356500       15.5994           0   -0.922000   1.53900
     12613 HOAC     5        HOAC     DO1      DRUD    -2.356500        0.4000           0   0.00000   0.00000
     12614 HOAC     5        HOAC     O2       OD31F    2.776500       15.5990           0   -1.28000   1.12400
     12615 HOAC     5        HOAC     DO2      DRUD    -2.776500        0.4000           0   0.00000   0.00000
     12616 HOAC     5        HOAC     H        HDP1A    0.374000        1.0080           0   0.00000   0.00000
     12617 HOAC     5        HOAC     LPO11    LPD     -0.319000        0.0000           -1   0.00000   0.00000
     12618 HOAC     5        HOAC     LPO12    LPD     -0.319000        0.0000           -1   0.00000   0.00000
     12619 HOAC     5        HOAC     LPO21    LPD     -0.285000        0.0000           -1   0.00000   0.00000
     12620 HOAC     5        HOAC     LPO22    LPD     -0.285000        0.0000           -1   0.00000   0.00000
     12621 HOAC     6        HOAC     C1       CD2O3A   3.554200       11.6110           0   -1.20700   0.708000
     12622 HOAC     6        HOAC     DC1      DRUD    -2.696200        0.4000           0   0.00000   0.00000
     12623 HOAC     6        HOAC     C2       CD33C    3.268200       11.6110           0   -2.11400   0.750000
     12624 HOAC     6        HOAC     DC2      DRUD    -3.568200        0.4000           0   0.00000   0.00000
     12625 HOAC     6        HOAC     H1       HDA3A    0.092000        1.0080           0   0.00000   0.00000
     12626 HOAC     6        HOAC     H2       HDA3A    0.092000        1.0080           0   0.00000   0.00000
     12627 HOAC     6        HOAC     H3       HDA3A    0.092000        1.0080           0   0.00000   0.00000
     12628 HOAC     6        HOAC     O1       OD2C3A   2.356500       15.5994           0   -0.922000   1.53900
     12629 HOAC     6        HOAC     DO1      DRUD    -2.356500        0.4000           0   0.00000   0.00000
     12630 HOAC     6        HOAC     O2       OD31F    2.776500       15.5990           0   -1.28000   1.12400
     12631 HOAC     6        HOAC     DO2      DRUD    -2.776500        0.4000           0   0.00000   0.00000
     12632 HOAC     6        HOAC     H        HDP1A    0.374000        1.0080           0   0.00000   0.00000
     12633 HOAC     6        HOAC     LPO11    LPD     -0.319000        0.0000           -1   0.00000   0.00000
     12634 HOAC     6        HOAC     LPO12    LPD     -0.319000        0.0000           -1   0.00000   0.00000
     12635 HOAC     6        HOAC     LPO21    LPD     -0.285000        0.0000           -1   0.00000   0.00000
     12636 HOAC     6        HOAC     LPO22    LPD     -0.285000        0.0000           -1   0.00000   0.00000
     12637 HOAC     7        HOAC     C1       CD2O3A   3.554200       11.6110           0   -1.20700   0.708000
     12638 HOAC     7        HOAC     DC1      DRUD    -2.696200        0.4000           0   0.00000   0.00000
     12639 HOAC     7        HOAC     C2       CD33C    3.268200       11.6110           0   -2.11400   0.750000
     12640 HOAC     7        HOAC     DC2      DRUD    -3.568200        0.4000           0   0.00000   0.00000
     12641 HOAC     7        HOAC     H1       HDA3A    0.092000        1.0080           0   0.00000   0.00000
     12642 HOAC     7        HOAC     H2       HDA3A    0.092000        1.0080           0   0.00000   0.00000
     12643 HOAC     7        HOAC     H3       HDA3A    0.092000        1.0080           0   0.00000   0.00000
     12644 HOAC     7        HOAC     O1       OD2C3A   2.356500       15.5994           0   -0.922000   1.53900
     12645 HOAC     7        HOAC     DO1      DRUD    -2.356500        0.4000           0   0.00000   0.00000
     12646 HOAC     7        HOAC     O2       OD31F    2.776500       15.5990           0   -1.28000   1.12400
     12647 HOAC     7        HOAC     DO2      DRUD    -2.776500        0.4000           0   0.00000   0.00000
     12648 HOAC     7        HOAC     H        HDP1A    0.374000        1.0080           0   0.00000   0.00000
     12649 HOAC     7        HOAC     LPO11    LPD     -0.319000        0.0000           -1   0.00000   0.00000
     12650 HOAC     7        HOAC     LPO12    LPD     -0.319000        0.0000           -1   0.00000   0.00000
     12651 HOAC     7        HOAC     LPO21    LPD     -0.285000        0.0000           -1   0.00000   0.00000
     12652 HOAC     7        HOAC     LPO22    LPD     -0.285000        0.0000           -1   0.00000   0.00000
     12653 HOAC     8        HOAC     C1       CD2O3A   3.554200       11.6110           0   -1.20700   0.708000
     12654 HOAC     8        HOAC     DC1      DRUD    -2.696200        0.4000           0   0.00000   0.00000
     12655 HOAC     8        HOAC     C2       CD33C    3.268200       11.6110           0   -2.11400   0.750000
     12656 HOAC     8        HOAC     DC2      DRUD    -3.568200        0.4000           0   0.00000   0.00000
     12657 HOAC     8        HOAC     H1       HDA3A    0.092000        1.0080           0   0.00000   0.00000
     12658 HOAC     8        HOAC     H2       HDA3A    0.092000        1.0080           0   0.00000   0.00000
     12659 HOAC     8        HOAC     H3       HDA3A    0.092000        1.0080           0   0.00000   0.00000
     12660 HOAC     8        HOAC     O1       OD2C3A   2.356500       15.5994           0   -0.922000   1.53900
     12661 HOAC     8        HOAC     DO1      DRUD    -2.356500        0.4000           0   0.00000   0.00000
     12662 HOAC     8        HOAC     O2       OD31F    2.776500       15.5990           0   -1.28000   1.12400
     12663 HOAC     8        HOAC     DO2      DRUD    -2.776500        0.4000           0   0.00000   0.00000
     12664 HOAC     8        HOAC     H        HDP1A    0.374000        1.0080           0   0.00000   0.00000
     12665 HOAC     8        HOAC     LPO11    LPD     -0.319000        0.0000           -1   0.00000   0.00000
     12666 HOAC     8        HOAC     LPO12    LPD     -0.319000        0.0000           -1   0.00000   0.00000
     12667 HOAC     8        HOAC     LPO21    LPD     -0.285000        0.0000           -1   0.00000   0.00000
     12668 HOAC     8        HOAC     LPO22    LPD     -0.285000        0.0000           -1   0.00000   0.00000
     12669 HOAC     9        HOAC     C1       CD2O3A   3.554200       11.6110           0   -1.20700   0.708000
     12670 HOAC     9        HOAC     DC1      DRUD    -2.696200        0.4000           0   0.00000   0.00000
     12671 HOAC     9        HOAC     C2       CD33C    3.268200       11.6110           0   -2.11400   0.750000
     12672 HOAC     9        HOAC     DC2      DRUD    -3.568200        0.4000           0   0.00000   0.00000
     12673 HOAC     9        HOAC     H1       HDA3A    0.092000        1.0080           0   0.00000   0.00000
     12674 HOAC     9        HOAC     H2       HDA3A    0.092000        1.0080           0   0.00000   0.00000
     12675 HOAC     9        HOAC     H3       HDA3A    0.092000        1.0080           0   0.00000   0.00000
     12676 HOAC     9        HOAC     O1       OD2C3A   2.356500       15.5994           0   -0.922000   1.53900
     12677 HOAC     9        HOAC     DO1      DRUD    -2.356500        0.4000           0   0.00000   0.00000
     12678 HOAC     9        HOAC     O2       OD31F    2.776500       15.5990           0   -1.28000   1.12400
     12679 HOAC     9        HOAC     DO2      DRUD    -2.776500        0.4000           0   0.00000   0.00000
     12680 HOAC     9        HOAC     H        HDP1A    0.374000        1.0080           0   0.00000   0.00000
     12681 HOAC     9        HOAC     LPO11    LPD     -0.319000        0.0000           -1   0.00000   0.00000
     12682 HOAC     9        HOAC     LPO12    LPD     -0.319000        0.0000           -1   0.00000   0.00000
     12683 HOAC     9        HOAC     LPO21    LPD     -0.285000        0.0000           -1   0.00000   0.00000
     12684 HOAC     9        HOAC     LPO22    LPD     -0.285000        0.0000           -1   0.00000   0.00000
     12685 HOAC     10       HOAC     C1       CD2O3A   3.554200       11.6110           0   -1.20700   0.708000
     12686 HOAC     10       HOAC     DC1      DRUD    -2.696200        0.4000           0   0.00000   0.00000
     12687 HOAC     10       HOAC     C2       CD33C    3.268200       11.6110           0   -2.11400   0.750000
     12688 HOAC     10       HOAC     DC2      DRUD    -3.568200        0.4000           0   0.00000   0.00000
     12689 HOAC     10       HOAC     H1       HDA3A    0.092000        1.0080           0   0.00000   0.00000
     12690 HOAC     10       HOAC     H2       HDA3A    0.092000        1.0080           0   0.00000   0.00000
     12691 HOAC     10       HOAC     H3       HDA3A    0.092000        1.0080           0   0.00000   0.00000
     12692 HOAC     10       HOAC     O1       OD2C3A   2.356500       15.5994           0   -0.922000   1.53900
     12693 HOAC     10       HOAC     DO1      DRUD    -2.356500        0.4000           0   0.00000   0.00000
     12694 HOAC     10       HOAC     O2       OD31F    2.776500       15.5990           0   -1.28000   1.12400
     12695 HOAC     10       HOAC     DO2      DRUD    -2.776500        0.4000           0   0.00000   0.00000
     12696 HOAC     10       HOAC     H        HDP1A    0.374000        1.0080           0   0.00000   0.00000
     12697 HOAC     10       HOAC     LPO11    LPD     -0.319000        0.0000           -1   0.00000   0.00000
     12698 HOAC     10       HOAC     LPO12    LPD     -0.319000        0.0000           -1   0.00000   0.00000
     12699 HOAC     10       HOAC     LPO21    LPD     -0.285000        0.0000           -1   0.00000   0.00000
     12700 HOAC     10       HOAC     LPO22    LPD     -0.285000        0.0000           -1   0.00000   0.00000
     12701 HOAC     11       HOAC     C1       CD2O3A   3.554200       11.6110           0   -1.20700   0.708000
     12702 HOAC     11       HOAC     DC1      DRUD    -2.696200        0.4000           0   0.00000   0.00000
     12703 HOAC     11       HOAC     C2       CD33C    3.268200       11.6110           0   -2.11400   0.750000
     12704 HOAC     11       HOAC     DC2      DRUD    -3.568200        0.4000           0   0.00000   0.00000
     12705 HOAC     11       HOAC     H1       HDA3A    0.092000        1.0080           0   0.00000   0.00000
     12706 HOAC     11       HOAC     H2       HDA3A    0.092000        1.0080           0   0.00000   0.00000
     12707 HOAC     11       HOAC     H3       HDA3A    0.092000        1.0080           0   0.00000   0.00000
     12708 HOAC     11       HOAC     O1       OD2C3A   2.356500       15.5994           0   -0.922000   1.53900
     12709 HOAC     11       HOAC     DO1      DRUD    -2.356500        0.4000           0   0.00000   0.00000
     12710 HOAC     11       HOAC     O2       OD31F    2.776500       15.5990           0   -1.28000   1.12400
     12711 HOAC     11       HOAC     DO2      DRUD    -2.776500        0.4000           0   0.00000   0.00000
     12712 HOAC     11       HOAC     H        HDP1A    0.374000        1.0080           0   0.00000   0.00000
     12713 HOAC     11       HOAC     LPO11    LPD     -0.319000        0.0000           -1   0.00000   0.00000
     12714 HOAC     11       HOAC     LPO12    LPD     -0.319000        0.0000           -1   0.00000   0.00000
     12715 HOAC     11       HOAC     LPO21    LPD     -0.285000        0.0000           -1   0.00000   0.00000
     12716 HOAC     11       HOAC     LPO22    LPD     -0.285000        0.0000           -1   0.00000   0.00000
     12717 HOAC     12       HOAC     C1       CD2O3A   3.554200       11.6110           0   -1.20700   0.708000
     12718 HOAC     12       HOAC     DC1      DRUD    -2.696200        0.4000           0   0.00000   0.00000
     12719 HOAC     12       HOAC     C2       CD33C    3.268200       11.6110           0   -2.11400   0.750000
     12720 HOAC     12       HOAC     DC2      DRUD    -3.568200        0.4000           0   0.00000   0.00000
     12721 HOAC     12       HOAC     H1       HDA3A    0.092000        1.0080           0   0.00000   0.00000
     12722 HOAC     12       HOAC     H2       HDA3A    0.092000        1.0080           0   0.00000   0.00000
     12723 HOAC     12       HOAC     H3       HDA3A    0.092000        1.0080           0   0.00000   0.00000
     12724 HOAC     12       HOAC     O1       OD2C3A   2.356500       15.5994           0   -0.922000   1.53900
     12725 HOAC     12       HOAC     DO1      DRUD    -2.356500        0.4000           0   0.00000   0.00000
     12726 HOAC     12       HOAC     O2       OD31F    2.776500       15.5990           0   -1.28000   1.12400
     12727 HOAC     12       HOAC     DO2      DRUD    -2.776500        0.4000           0   0.00000   0.00000
     12728 HOAC     12       HOAC     H        HDP1A    0.374000        1.0080           0   0.00000   0.00000
     12729 HOAC     12       HOAC     LPO11    LPD     -0.319000        0.0000           -1   0.00000   0.00000
     12730 HOAC     12       HOAC     LPO12    LPD     -0.319000        0.0000           -1   0.00000   0.00000
     12731 HOAC     12       HOAC     LPO21    LPD     -0.285000        0.0000           -1   0.00000   0.00000
     12732 HOAC     12       HOAC     LPO22    LPD     -0.285000        0.0000           -1   0.00000   0.00000
     12733 HOAC     13       HOAC     C1       CD2O3A   3.554200       11.6110           0   -1.20700   0.708000
     12734 HOAC     13       HOAC     DC1      DRUD    -2.696200        0.4000           0   0.00000   0.00000
     12735 HOAC     13       HOAC     C2       CD33C    3.268200       11.6110           0   -2.11400   0.750000
     12736 HOAC     13       HOAC     DC2      DRUD    -3.568200        0.4000           0   0.00000   0.00000
     12737 HOAC     13       HOAC     H1       HDA3A    0.092000        1.0080           0   0.00000   0.00000
     12738 HOAC     13       HOAC     H2       HDA3A    0.092000        1.0080           0   0.00000   0.00000
     12739 HOAC     13       HOAC     H3       HDA3A    0.092000        1.0080           0   0.00000   0.00000
     12740 HOAC     13       HOAC     O1       OD2C3A   2.356500       15.5994           0   -0.922000   1.53900
     12741 HOAC     13       HOAC     DO1      DRUD    -2.356500        0.4000           0   0.00000   0.00000
     12742 HOAC     13       HOAC     O2       OD31F    2.776500       15.5990           0   -1.28000   1.12400
     12743 HOAC     13       HOAC     DO2      DRUD    -2.776500        0.4000           0   0.00000   0.00000
     12744 HOAC     13       HOAC     H        HDP1A    0.374000        1.0080           0   0.00000   0.00000
     12745 HOAC     13       HOAC     LPO11    LPD     -0.319000        0.0000           -1   0.00000   0.00000
     12746 HOAC     13       HOAC     LPO12    LPD     -0.319000        0.0000           -1   0.00000   0.00000
     12747 HOAC     13       HOAC     LPO21    LPD     -0.285000        0.0000           -1   0.00000   0.00000
     12748 HOAC     13       HOAC     LPO22    LPD     -0.285000        0.0000           -1   0.00000   0.00000
     12749 HOAC     14       HOAC     C1       CD2O3A   3.554200       11.6110           0   -1.20700   0.708000
     12750 HOAC     14       HOAC     DC1      DRUD    -2.696200        0.4000           0   0.00000   0.00000
     12751 HOAC     14       HOAC     C2       CD33C    3.268200       11.6110           0   -2.11400   0.750000
     12752 HOAC     14       HOAC     DC2      DRUD    -3.568200        0.4000           0   0.00000   0.00000
     12753 HOAC     14       HOAC     H1       HDA3A    0.092000        1.0080           0   0.00000   0.00000
     12754 HOAC     14       HOAC     H2       HDA3A    0.092000        1.0080           0   0.00000   0.00000
     12755 HOAC     14       HOAC     H3       HDA3A    0.092000        1.0080           0   0.00000   0.00000
     12756 HOAC     14       HOAC     O1       OD2C3A   2.356500       15.5994           0   -0.922000   1.53900
     12757 HOAC     14       HOAC     DO1      DRUD    -2.356500        0.4000           0   0.00000   0.00000
     12758 HOAC     14       HOAC     O2       OD31F    2.776500       15.5990           0   -1.28000   1.12400
     12759 HOAC     14       HOAC     DO2      DRUD    -2.776500        0.4000           0   0.00000   0.00000
     12760 HOAC     14       HOAC     H        HDP1A    0.374000        1.0080           0   0.00000   0.00000
     12761 HOAC     14       HOAC     LPO11    LPD     -0.319000        0.0000           -1   0.00000   0.00000
     12762 HOAC     14       HOAC     LPO12    LPD     -0.319000        0.0000           -1   0.00000   0.00000
     12763 HOAC     14       HOAC     LPO21    LPD     -0.285000        0.0000           -1   0.00000   0.00000
     12764 HOAC     14       HOAC     LPO22    LPD     -0.285000        0.0000           -1   0.00000   0.00000
     12765 HOAC     15       HOAC     C1       CD2O3A   3.554200       11.6110           0   -1.20700   0.708000
     12766 HOAC     15       HOAC     DC1      DRUD    -2.696200        0.4000           0   0.00000   0.00000
     12767 HOAC     15       HOAC     C2       CD33C    3.268200       11.6110           0   -2.11400   0.750000
     12768 HOAC     15       HOAC     DC2      DRUD    -3.568200        0.4000           0   0.00000   0.00000
     12769 HOAC     15       HOAC     H1       HDA3A    0.092000        1.0080           0   0.00000   0.00000
     12770 HOAC     15       HOAC     H2       HDA3A    0.092000        1.0080           0   0.00000   0.00000
     12771 HOAC     15       HOAC     H3       HDA3A    0.092000        1.0080           0   0.00000   0.00000
     12772 HOAC     15       HOAC     O1       OD2C3A   2.356500       15.5994           0   -0.922000   1.53900
     12773 HOAC     15       HOAC     DO1      DRUD    -2.356500        0.4000           0   0.00000   0.00000
     12774 HOAC     15       HOAC     O2       OD31F    2.776500       15.5990           0   -1.28000   1.12400
     12775 HOAC     15       HOAC     DO2      DRUD    -2.776500        0.4000           0   0.00000   0.00000
     12776 HOAC     15       HOAC     H        HDP1A    0.374000        1.0080           0   0.00000   0.00000
     12777 HOAC     15       HOAC     LPO11    LPD     -0.319000        0.0000           -1   0.00000   0.00000
     12778 HOAC     15       HOAC     LPO12    LPD     -0.319000        0.0000           -1   0.00000   0.00000
     12779 HOAC     15       HOAC     LPO21    LPD     -0.285000        0.0000           -1   0.00000   0.00000
     12780 HOAC     15       HOAC     LPO22    LPD     -0.285000        0.0000           -1   0.00000   0.00000
     12781 HOAC     16       HOAC     C1       CD2O3A   3.554200       11.6110           0   -1.20700   0.708000
     12782 HOAC     16       HOAC     DC1      DRUD    -2.696200        0.4000           0   0.00000   0.00000
     12783 HOAC     16       HOAC     C2       CD33C    3.268200       11.6110           0   -2.11400   0.750000
     12784 HOAC     16       HOAC     DC2      DRUD    -3.568200        0.4000           0   0.00000   0.00000
     12785 HOAC     16       HOAC     H1       HDA3A    0.092000        1.0080           0   0.00000   0.00000
     12786 HOAC     16       HOAC     H2       HDA3A    0.092000        1.0080           0   0.00000   0.00000
     12787 HOAC     16       HOAC     H3       HDA3A    0.092000        1.0080           0   0.00000   0.00000
     12788 HOAC     16       HOAC     O1       OD2C3A   2.356500       15.5994           0   -0.922000   1.53900
     12789 HOAC     16       HOAC     DO1      DRUD    -2.356500        0.4000           0   0.00000   0.00000
     12790 HOAC     16       HOAC     O2       OD31F    2.776500       15.5990           0   -1.28000   1.12400
     12791 HOAC     16       HOAC     DO2      DRUD    -2.776500        0.4000           0   0.00000   0.00000
     12792 HOAC     16       HOAC     H        HDP1A    0.374000        1.0080           0   0.00000   0.00000
     12793 HOAC     16       HOAC     LPO11    LPD     -0.319000        0.0000           -1   0.00000   0.00000
     12794 HOAC     16       HOAC     LPO12    LPD     -0.319000        0.0000           -1   0.00000   0.00000
     12795 HOAC     16       HOAC     LPO21    LPD     -0.285000        0.0000           -1   0.00000   0.00000
     12796 HOAC     16       HOAC     LPO22    LPD     -0.285000        0.0000           -1   0.00000   0.00000
     12797 HOAC     17       HOAC     C1       CD2O3A   3.554200       11.6110           0   -1.20700   0.708000
     12798 HOAC     17       HOAC     DC1      DRUD    -2.696200        0.4000           0   0.00000   0.00000
     12799 HOAC     17       HOAC     C2       CD33C    3.268200       11.6110           0   -2.11400   0.750000
     12800 HOAC     17       HOAC     DC2      DRUD    -3.568200        0.4000           0   0.00000   0.00000
     12801 HOAC     17       HOAC     H1       HDA3A    0.092000        1.0080           0   0.00000   0.00000
     12802 HOAC     17       HOAC     H2       HDA3A    0.092000        1.0080           0   0.00000   0.00000
     12803 HOAC     17       HOAC     H3       HDA3A    0.092000        1.0080           0   0.00000   0.00000
     12804 HOAC     17       HOAC     O1       OD2C3A   2.356500       15.5994           0   -0.922000   1.53900
     12805 HOAC     17       HOAC     DO1      DRUD    -2.356500        0.4000           0   0.00000   0.00000
     12806 HOAC     17       HOAC     O2       OD31F    2.776500       15.5990           0   -1.28000   1.12400
     12807 HOAC     17       HOAC     DO2      DRUD    -2.776500        0.4000           0   0.00000   0.00000
     12808 HOAC     17       HOAC     H        HDP1A    0.374000        1.0080           0   0.00000   0.00000
     12809 HOAC     17       HOAC     LPO11    LPD     -0.319000        0.0000           -1   0.00000   0.00000
     12810 HOAC     17       HOAC     LPO12    LPD     -0.319000        0.0000           -1   0.00000   0.00000
     12811 HOAC     17       HOAC     LPO21    LPD     -0.285000        0.0000           -1   0.00000   0.00000
     12812 HOAC     17       HOAC     LPO22    LPD     -0.285000        0.0000           -1   0.00000   0.00000
     12813 HOAC     18       HOAC     C1       CD2O3A   3.554200       11.6110           0   -1.20700   0.708000
     12814 HOAC     18       HOAC     DC1      DRUD    -2.696200        0.4000           0   0.00000   0.00000
     12815 HOAC     18       HOAC     C2       CD33C    3.268200       11.6110           0   -2.11400   0.750000
     12816 HOAC     18       HOAC     DC2      DRUD    -3.568200        0.4000           0   0.00000   0.00000
     12817 HOAC     18       HOAC     H1       HDA3A    0.092000        1.0080           0   0.00000   0.00000
     12818 HOAC     18       HOAC     H2       HDA3A    0.092000        1.0080           0   0.00000   0.00000
     12819 HOAC     18       HOAC     H3       HDA3A    0.092000        1.0080           0   0.00000   0.00000
     12820 HOAC     18       HOAC     O1       OD2C3A   2.356500       15.5994           0   -0.922000   1.53900
     12821 HOAC     18       HOAC     DO1      DRUD    -2.356500        0.4000           0   0.00000   0.00000
     12822 HOAC     18       HOAC     O2       OD31F    2.776500       15.5990           0   -1.28000   1.12400
     12823 HOAC     18       HOAC     DO2      DRUD    -2.776500        0.4000           0   0.00000   0.00000
     12824 HOAC     18       HOAC     H        HDP1A    0.374000        1.0080           0   0.00000   0.00000
     12825 HOAC     18       HOAC     LPO11    LPD     -0.319000        0.0000           -1   0.00000   0.00000
     12826 HOAC     18       HOAC     LPO12    LPD     -0.319000        0.0000           -1   0.00000   0.00000
     12827 HOAC     18       HOAC     LPO21    LPD     -0.285000        0.0000           -1   0.00000   0.00000
     12828 HOAC     18       HOAC     LPO22    LPD     -0.285000        0.0000           -1   0.00000   0.00000
     12829 HOAC     19       HOAC     C1       CD2O3A   3.554200       11.6110           0   -1.20700   0.708000
     12830 HOAC     19       HOAC     DC1      DRUD    -2.696200        0.4000           0   0.00000   0.00000
     12831 HOAC     19       HOAC     C2       CD33C    3.268200       11.6110           0   -2.11400   0.750000
     12832 HOAC     19       HOAC     DC2      DRUD    -3.568200        0.4000           0   0.00000   0.00000
     12833 HOAC     19       HOAC     H1       HDA3A    0.092000        1.0080           0   0.00000   0.00000
     12834 HOAC     19       HOAC     H2       HDA3A    0.092000        1.0080           0   0.00000   0.00000
     12835 HOAC     19       HOAC     H3       HDA3A    0.092000        1.0080           0   0.00000   0.00000
     12836 HOAC     19       HOAC     O1       OD2C3A   2.356500       15.5994           0   -0.922000   1.53900
     12837 HOAC     19       HOAC     DO1      DRUD    -2.356500        0.4000           0   0.00000   0.00000
     12838 HOAC     19       HOAC     O2       OD31F    2.776500       15.5990           0   -1.28000   1.12400
     12839 HOAC     19       HOAC     DO2      DRUD    -2.776500        0.4000           0   0.00000   0.00000
     12840 HOAC     19       HOAC     H        HDP1A    0.374000        1.0080           0   0.00000   0.00000
     12841 HOAC     19       HOAC     LPO11    LPD     -0.319000        0.0000           -1   0.00000   0.00000
     12842 HOAC     19       HOAC     LPO12    LPD     -0.319000        0.0000           -1   0.00000   0.00000
     12843 HOAC     19       HOAC     LPO21    LPD     -0.285000        0.0000           -1   0.00000   0.00000
     12844 HOAC     19       HOAC     LPO22    LPD     -0.285000        0.0000           -1   0.00000   0.00000
     12845 HOAC     20       HOAC     C1       CD2O3A   3.554200       11.6110           0   -1.20700   0.708000
     12846 HOAC     20       HOAC     DC1      DRUD    -2.696200        0.4000           0   0.00000   0.00000
     12847 HOAC     20       HOAC     C2       CD33C    3.268200       11.6110           0   -2.11400   0.750000
     12848 HOAC     20       HOAC     DC2      DRUD    -3.568200        0.4000           0   0.00000   0.00000
     12849 HOAC     20       HOAC     H1       HDA3A    0.092000        1.0080           0   0.00000   0.00000
     12850 HOAC     20       HOAC     H2       HDA3A    0.092000        1.0080           0   0.00000   0.00000
     12851 HOAC     20       HOAC     H3       HDA3A    0.092000        1.0080           0   0.00000   0.00000
     12852 HOAC     20       HOAC     O1       OD2C3A   2.356500       15.5994           0   -0.922000   1.53900
     12853 HOAC     20       HOAC     DO1      DRUD    -2.356500        0.4000           0   0.00000   0.00000
     12854 HOAC     20       HOAC     O2       OD31F    2.776500       15.5990           0   -1.28000   1.12400
     12855 HOAC     20       HOAC     DO2      DRUD    -2.776500        0.4000           0   0.00000   0.00000
     12856 HOAC     20       HOAC     H        HDP1A    0.374000        1.0080           0   0.00000   0.00000
     12857 HOAC     20       HOAC     LPO11    LPD     -0.319000        0.0000           -1   0.00000   0.00000
     12858 HOAC     20       HOAC     LPO12    LPD     -0.319000        0.0000           -1   0.00000   0.00000
     12859 HOAC     20       HOAC     LPO21    LPD     -0.285000        0.0000           -1   0.00000   0.00000
     12860 HOAC     20       HOAC     LPO22    LPD     -0.285000        0.0000           -1   0.00000   0.00000
     12861 HOAC     21       HOAC     C1       CD2O3A   3.554200       11.6110           0   -1.20700   0.708000
     12862 HOAC     21       HOAC     DC1      DRUD    -2.696200        0.4000           0   0.00000   0.00000
     12863 HOAC     21       HOAC     C2       CD33C    3.268200       11.6110           0   -2.11400   0.750000
     12864 HOAC     21       HOAC     DC2      DRUD    -3.568200        0.4000           0   0.00000   0.00000
     12865 HOAC     21       HOAC     H1       HDA3A    0.092000        1.0080           0   0.00000   0.00000
     12866 HOAC     21       HOAC     H2       HDA3A    0.092000        1.0080           0   0.00000   0.00000
     12867 HOAC     21       HOAC     H3       HDA3A    0.092000        1.0080           0   0.00000   0.00000
     12868 HOAC     21       HOAC     O1       OD2C3A   2.356500       15.5994           0   -0.922000   1.53900
     12869 HOAC     21       HOAC     DO1      DRUD    -2.356500        0.4000           0   0.00000   0.00000
     12870 HOAC     21       HOAC     O2       OD31F    2.776500       15.5990           0   -1.28000   1.12400
     12871 HOAC     21       HOAC     DO2      DRUD    -2.776500        0.4000           0   0.00000   0.00000
     12872 HOAC     21       HOAC     H        HDP1A    0.374000        1.0080           0   0.00000   0.00000
     12873 HOAC     21       HOAC     LPO11    LPD     -0.319000        0.0000           -1   0.00000   0.00000
     12874 HOAC     21       HOAC     LPO12    LPD     -0.319000        0.0000           -1   0.00000   0.00000
     12875 HOAC     21       HOAC     LPO21    LPD     -0.285000        0.0000           -1   0.00000   0.00000
     12876 HOAC     21       HOAC     LPO22    LPD     -0.285000        0.0000           -1   0.00000   0.00000
     12877 HOAC     22       HOAC     C1       CD2O3A   3.554200       11.6110           0   -1.20700   0.708000
     12878 HOAC     22       HOAC     DC1      DRUD    -2.696200        0.4000           0   0.00000   0.00000
     12879 HOAC     22       HOAC     C2       CD33C    3.268200       11.6110           0   -2.11400   0.750000
     12880 HOAC     22       HOAC     DC2      DRUD    -3.568200        0.4000           0   0.00000   0.00000
     12881 HOAC     22       HOAC     H1       HDA3A    0.092000        1.0080           0   0.00000   0.00000
     12882 HOAC     22       HOAC     H2       HDA3A    0.092000        1.0080           0   0.00000   0.00000
     12883 HOAC     22       HOAC     H3       HDA3A    0.092000        1.0080           0   0.00000   0.00000
     12884 HOAC     22       HOAC     O1       OD2C3A   2.356500       15.5994           0   -0.922000   1.53900
     12885 HOAC     22       HOAC     DO1      DRUD    -2.356500        0.4000           0   0.00000   0.00000
     12886 HOAC     22       HOAC     O2       OD31F    2.776500       15.5990           0   -1.28000   1.12400
     12887 HOAC     22       HOAC     DO2      DRUD    -2.776500        0.4000           0   0.00000   0.00000
     12888 HOAC     22       HOAC     H        HDP1A    0.374000        1.0080           0   0.00000   0.00000
     12889 HOAC     22       HOAC     LPO11    LPD     -0.319000        0.0000           -1   0.00000   0.00000
     12890 HOAC     22       HOAC     LPO12    LPD     -0.319000        0.0000           -1   0.00000   0.00000
     12891 HOAC     22       HOAC     LPO21    LPD     -0.285000        0.0000           -1   0.00000   0.00000
     12892 HOAC     22       HOAC     LPO22    LPD     -0.285000        0.0000           -1   0.00000   0.00000
     12893 HOAC     23       HOAC     C1       CD2O3A   3.554200       11.6110           0   -1.20700   0.708000
     12894 HOAC     23       HOAC     DC1      DRUD    -2.696200        0.4000           0   0.00000   0.00000
     12895 HOAC     23       HOAC     C2       CD33C    3.268200       11.6110           0   -2.11400   0.750000
     12896 HOAC     23       HOAC     DC2      DRUD    -3.568200        0.4000           0   0.00000   0.00000
     12897 HOAC     23       HOAC     H1       HDA3A    0.092000        1.0080           0   0.00000   0.00000
     12898 HOAC     23       HOAC     H2       HDA3A    0.092000        1.0080           0   0.00000   0.00000
     12899 HOAC     23       HOAC     H3       HDA3A    0.092000        1.0080           0   0.00000   0.00000
     12900 HOAC     23       HOAC     O1       OD2C3A   2.356500       15.5994           0   -0.922000   1.53900
     12901 HOAC     23       HOAC     DO1      DRUD    -2.356500        0.4000           0   0.00000   0.00000
     12902 HOAC     23       HOAC     O2       OD31F    2.776500       15.5990           0   -1.28000   1.12400
     12903 HOAC     23       HOAC     DO2      DRUD    -2.776500        0.4000           0   0.00000   0.00000
     12904 HOAC     23       HOAC     H        HDP1A    0.374000        1.0080           0   0.00000   0.00000
     12905 HOAC     23       HOAC     LPO11    LPD     -0.319000        0.0000           -1   0.00000   0.00000
     12906 HOAC     23       HOAC     LPO12    LPD     -0.319000        0.0000           -1   0.00000   0.00000
     12907 HOAC     23       HOAC     LPO21    LPD     -0.285000        0.0000           -1   0.00000   0.00000
     12908 HOAC     23       HOAC     LPO22    LPD     -0.285000        0.0000           -1   0.00000   0.00000
     12909 HOAC     24       HOAC     C1       CD2O3A   3.554200       11.6110           0   -1.20700   0.708000
     12910 HOAC     24       HOAC     DC1      DRUD    -2.696200        0.4000           0   0.00000   0.00000
     12911 HOAC     24       HOAC     C2       CD33C    3.268200       11.6110           0   -2.11400   0.750000
     12912 HOAC     24       HOAC     DC2      DRUD    -3.568200        0.4000           0   0.00000   0.00000
     12913 HOAC     24       HOAC     H1       HDA3A    0.092000        1.0080           0   0.00000   0.00000
     12914 HOAC     24       HOAC     H2       HDA3A    0.092000        1.0080           0   0.00000   0.00000
     12915 HOAC     24       HOAC     H3       HDA3A    0.092000        1.0080           0   0.00000   0.00000
     12916 HOAC     24       HOAC     O1       OD2C3A   2.356500       15.5994           0   -0.922000   1.53900
     12917 HOAC     24       HOAC     DO1      DRUD    -2.356500        0.4000           0   0.00000   0.00000
     12918 HOAC     24       HOAC     O2       OD31F    2.776500       15.5990           0   -1.28000   1.12400
     12919 HOAC     24       HOAC     DO2      DRUD    -2.776500        0.4000           0   0.00000   0.00000
     12920 HOAC     24       HOAC     H        HDP1A    0.374000        1.0080           0   0.00000   0.00000
     12921 HOAC     24       HOAC     LPO11    LPD     -0.319000        0.0000           -1   0.00000   0.00000
     12922 HOAC     24       HOAC     LPO12    LPD     -0.319000        0.0000           -1   0.00000   0.00000
     12923 HOAC     24       HOAC     LPO21    LPD     -0.285000        0.0000           -1   0.00000   0.00000
     12924 HOAC     24       HOAC     LPO22    LPD     -0.285000        0.0000           -1   0.00000   0.00000
     12925 HOAC     25       HOAC     C1       CD2O3A   3.554200       11.6110           0   -1.20700   0.708000
     12926 HOAC     25       HOAC     DC1      DRUD    -2.696200        0.4000           0   0.00000   0.00000
     12927 HOAC     25       HOAC     C2       CD33C    3.268200       11.6110           0   -2.11400   0.750000
     12928 HOAC     25       HOAC     DC2      DRUD    -3.568200        0.4000           0   0.00000   0.00000
     12929 HOAC     25       HOAC     H1       HDA3A    0.092000        1.0080           0   0.00000   0.00000
     12930 HOAC     25       HOAC     H2       HDA3A    0.092000        1.0080           0   0.00000   0.00000
     12931 HOAC     25       HOAC     H3       HDA3A    0.092000        1.0080           0   0.00000   0.00000
     12932 HOAC     25       HOAC     O1       OD2C3A   2.356500       15.5994           0   -0.922000   1.53900
     12933 HOAC     25       HOAC     DO1      DRUD    -2.356500        0.4000           0   0.00000   0.00000
     12934 HOAC     25       HOAC     O2       OD31F    2.776500       15.5990           0   -1.28000   1.12400
     12935 HOAC     25       HOAC     DO2      DRUD    -2.776500        0.4000           0   0.00000   0.00000
     12936 HOAC     25       HOAC     H        HDP1A    0.374000        1.0080           0   0.00000   0.00000
     12937 HOAC     25       HOAC     LPO11    LPD     -0.319000        0.0000           -1   0.00000   0.00000
     12938 HOAC     25       HOAC     LPO12    LPD     -0.319000        0.0000           -1   0.00000   0.00000
     12939 HOAC     25       HOAC     LPO21    LPD     -0.285000        0.0000           -1   0.00000   0.00000
     12940 HOAC     25       HOAC     LPO22    LPD     -0.285000        0.0000           -1   0.00000   0.00000
     12941 HOAC     26       HOAC     C1       CD2O3A   3.554200       11.6110           0   -1.20700   0.708000
     12942 HOAC     26       HOAC     DC1      DRUD    -2.696200        0.4000           0   0.00000   0.00000
     12943 HOAC     26       HOAC     C2       CD33C    3.268200       11.6110           0   -2.11400   0.750000
     12944 HOAC     26       HOAC     DC2      DRUD    -3.568200        0.4000           0   0.00000   0.00000
     12945 HOAC     26       HOAC     H1       HDA3A    0.092000        1.0080           0   0.00000   0.00000
     12946 HOAC     26       HOAC     H2       HDA3A    0.092000        1.0080           0   0.00000   0.00000
     12947 HOAC     26       HOAC     H3       HDA3A    0.092000        1.0080           0   0.00000   0.00000
     12948 HOAC     26       HOAC     O1       OD2C3A   2.356500       15.5994           0   -0.922000   1.53900
     12949 HOAC     26       HOAC     DO1      DRUD    -2.356500        0.4000           0   0.00000   0.00000
     12950 HOAC     26       HOAC     O2       OD31F    2.776500       15.5990           0   -1.28000   1.12400
     12951 HOAC     26       HOAC     DO2      DRUD    -2.776500        0.4000           0   0.00000   0.00000
     12952 HOAC     26       HOAC     H        HDP1A    0.374000        1.0080           0   0.00000   0.00000
     12953 HOAC     26       HOAC     LPO11    LPD     -0.319000        0.0000           -1   0.00000   0.00000
     12954 HOAC     26       HOAC     LPO12    LPD     -0.319000        0.0000           -1   0.00000   0.00000
     12955 HOAC     26       HOAC     LPO21    LPD     -0.285000        0.0000           -1   0.00000   0.00000
     12956 HOAC     26       HOAC     LPO22    LPD     -0.285000        0.0000           -1   0.00000   0.00000
     12957 HOAC     27       HOAC     C1       CD2O3A   3.554200       11.6110           0   -1.20700   0.708000
     12958 HOAC     27       HOAC     DC1      DRUD    -2.696200        0.4000           0   0.00000   0.00000
     12959 HOAC     27       HOAC     C2       CD33C    3.268200       11.6110           0   -2.11400   0.750000
     12960 HOAC     27       HOAC     DC2      DRUD    -3.568200        0.4000           0   0.00000   0.00000
     12961 HOAC     27       HOAC     H1       HDA3A    0.092000        1.0080           0   0.00000   0.00000
     12962 HOAC     27       HOAC     H2       HDA3A    0.092000        1.0080           0   0.00000   0.00000
     12963 HOAC     27       HOAC     H3       HDA3A    0.092000        1.0080           0   0.00000   0.00000
     12964 HOAC     27       HOAC     O1       OD2C3A   2.356500       15.5994           0   -0.922000   1.53900
     12965 HOAC     27       HOAC     DO1      DRUD    -2.356500        0.4000           0   0.00000   0.00000
     12966 HOAC     27       HOAC     O2       OD31F    2.776500       15.5990           0   -1.28000   1.12400
     12967 HOAC     27       HOAC     DO2      DRUD    -2.776500        0.4000           0   0.00000   0.00000
     12968 HOAC     27       HOAC     H        HDP1A    0.374000        1.0080           0   0.00000   0.00000
     12969 HOAC     27       HOAC     LPO11    LPD     -0.319000        0.0000           -1   0.00000   0.00000
     12970 HOAC     27       HOAC     LPO12    LPD     -0.319000        0.0000           -1   0.00000   0.00000
     12971 HOAC     27       HOAC     LPO21    LPD     -0.285000        0.0000           -1   0.00000   0.00000
     12972 HOAC     27       HOAC     LPO22    LPD     -0.285000        0.0000           -1   0.00000   0.00000
     12973 HOAC     28       HOAC     C1       CD2O3A   3.554200       11.6110           0   -1.20700   0.708000
     12974 HOAC     28       HOAC     DC1      DRUD    -2.696200        0.4000           0   0.00000   0.00000
     12975 HOAC     28       HOAC     C2       CD33C    3.268200       11.6110           0   -2.11400   0.750000
     12976 HOAC     28       HOAC     DC2      DRUD    -3.568200        0.4000           0   0.00000   0.00000
     12977 HOAC     28       HOAC     H1       HDA3A    0.092000        1.0080           0   0.00000   0.00000
     12978 HOAC     28       HOAC     H2       HDA3A    0.092000        1.0080           0   0.00000   0.00000
     12979 HOAC     28       HOAC     H3       HDA3A    0.092000        1.0080           0   0.00000   0.00000
     12980 HOAC     28       HOAC     O1       OD2C3A   2.356500       15.5994           0   -0.922000   1.53900
     12981 HOAC     28       HOAC     DO1      DRUD    -2.356500        0.4000           0   0.00000   0.00000
     12982 HOAC     28       HOAC     O2       OD31F    2.776500       15.5990           0   -1.28000   1.12400
     12983 HOAC     28       HOAC     DO2      DRUD    -2.776500        0.4000           0   0.00000   0.00000
     12984 HOAC     28       HOAC     H        HDP1A    0.374000        1.0080           0   0.00000   0.00000
     12985 HOAC     28       HOAC     LPO11    LPD     -0.319000        0.0000           -1   0.00000   0.00000
     12986 HOAC     28       HOAC     LPO12    LPD     -0.319000        0.0000           -1   0.00000   0.00000
     12987 HOAC     28       HOAC     LPO21    LPD     -0.285000        0.0000           -1   0.00000   0.00000
     12988 HOAC     28       HOAC     LPO22    LPD     -0.285000        0.0000           -1   0.00000   0.00000
     12989 HOAC     29       HOAC     C1       CD2O3A   3.554200       11.6110           0   -1.20700   0.708000
     12990 HOAC     29       HOAC     DC1      DRUD    -2.696200        0.4000           0   0.00000   0.00000
     12991 HOAC     29       HOAC     C2       CD33C    3.268200       11.6110           0   -2.11400   0.750000
     12992 HOAC     29       HOAC     DC2      DRUD    -3.568200        0.4000           0   0.00000   0.00000
     12993 HOAC     29       HOAC     H1       HDA3A    0.092000        1.0080           0   0.00000   0.00000
     12994 HOAC     29       HOAC     H2       HDA3A    0.092000        1.0080           0   0.00000   0.00000
     12995 HOAC     29       HOAC     H3       HDA3A    0.092000        1.0080           0   0.00000   0.00000
     12996 HOAC     29       HOAC     O1       OD2C3A   2.356500       15.5994           0   -0.922000   1.53900
     12997 HOAC     29       HOAC     DO1      DRUD    -2.356500        0.4000           0   0.00000   0.00000
     12998 HOAC     29       HOAC     O2       OD31F    2.776500       15.5990           0   -1.28000   1.12400
     12999 HOAC     29       HOAC     DO2      DRUD    -2.776500        0.4000           0   0.00000   0.00000
     13000 HOAC     29       HOAC     H        HDP1A    0.374000        1.0080           0   0.00000   0.00000
     13001 HOAC     29       HOAC     LPO11    LPD     -0.319000        0.0000           -1   0.00000   0.00000
     13002 HOAC     29       HOAC     LPO12    LPD     -0.319000        0.0000           -1   0.00000   0.00000
     13003 HOAC     29       HOAC     LPO21    LPD     -0.285000        0.0000           -1   0.00000   0.00000
     13004 HOAC     29       HOAC     LPO22    LPD     -0.285000        0.0000           -1   0.00000   0.00000
     13005 HOAC     30       HOAC     C1       CD2O3A   3.554200       11.6110           0   -1.20700   0.708000
     13006 HOAC     30       HOAC     DC1      DRUD    -2.696200        0.4000           0   0.00000   0.00000
     13007 HOAC     30       HOAC     C2       CD33C    3.268200       11.6110           0   -2.11400   0.750000
     13008 HOAC     30       HOAC     DC2      DRUD    -3.568200        0.4000           0   0.00000   0.00000
     13009 HOAC     30       HOAC     H1       HDA3A    0.092000        1.0080           0   0.00000   0.00000
     13010 HOAC     30       HOAC     H2       HDA3A    0.092000        1.0080           0   0.00000   0.00000
     13011 HOAC     30       HOAC     H3       HDA3A    0.092000        1.0080           0   0.00000   0.00000
     13012 HOAC     30       HOAC     O1       OD2C3A   2.356500       15.5994           0   -0.922000   1.53900
     13013 HOAC     30       HOAC     DO1      DRUD    -2.356500        0.4000           0   0.00000   0.00000
     13014 HOAC     30       HOAC     O2       OD31F    2.776500       15.5990           0   -1.28000   1.12400
     13015 HOAC     30       HOAC     DO2      DRUD    -2.776500        0.4000           0   0.00000   0.00000
     13016 HOAC     30       HOAC     H        HDP1A    0.374000        1.0080           0   0.00000   0.00000
     13017 HOAC     30       HOAC     LPO11    LPD     -0.319000        0.0000           -1   0.00000   0.00000
     13018 HOAC     30       HOAC     LPO12    LPD     -0.319000        0.0000           -1   0.00000   0.00000
     13019 HOAC     30       HOAC     LPO21    LPD     -0.285000        0.0000           -1   0.00000   0.00000
     13020 HOAC     30       HOAC     LPO22    LPD     -0.285000        0.0000           -1   0.00000   0.00000
     13021 HOAC     31       HOAC     C1       CD2O3A   3.554200       11.6110           0   -1.20700   0.708000
     13022 HOAC     31       HOAC     DC1      DRUD    -2.696200        0.4000           0   0.00000   0.00000
     13023 HOAC     31       HOAC     C2       CD33C    3.268200       11.6110           0   -2.11400   0.750000
     13024 HOAC     31       HOAC     DC2      DRUD    -3.568200        0.4000           0   0.00000   0.00000
     13025 HOAC     31       HOAC     H1       HDA3A    0.092000        1.0080           0   0.00000   0.00000
     13026 HOAC     31       HOAC     H2       HDA3A    0.092000        1.0080           0   0.00000   0.00000
     13027 HOAC     31       HOAC     H3       HDA3A    0.092000        1.0080           0   0.00000   0.00000
     13028 HOAC     31       HOAC     O1       OD2C3A   2.356500       15.5994           0   -0.922000   1.53900
     13029 HOAC     31       HOAC     DO1      DRUD    -2.356500        0.4000           0   0.00000   0.00000
     13030 HOAC     31       HOAC     O2       OD31F    2.776500       15.5990           0   -1.28000   1.12400
     13031 HOAC     31       HOAC     DO2      DRUD    -2.776500        0.4000           0   0.00000   0.00000
     13032 HOAC     31       HOAC     H        HDP1A    0.374000        1.0080           0   0.00000   0.00000
     13033 HOAC     31       HOAC     LPO11    LPD     -0.319000        0.0000           -1   0.00000   0.00000
     13034 HOAC     31       HOAC     LPO12    LPD     -0.319000        0.0000           -1   0.00000   0.00000
     13035 HOAC     31       HOAC     LPO21    LPD     -0.285000        0.0000           -1   0.00000   0.00000
     13036 HOAC     31       HOAC     LPO22    LPD     -0.285000        0.0000           -1   0.00000   0.00000
     13037 HOAC     32       HOAC     C1       CD2O3A   3.554200       11.6110           0   -1.20700   0.708000
     13038 HOAC     32       HOAC     DC1      DRUD    -2.696200        0.4000           0   0.00000   0.00000
     13039 HOAC     32       HOAC     C2       CD33C    3.268200       11.6110           0   -2.11400   0.750000
     13040 HOAC     32       HOAC     DC2      DRUD    -3.568200        0.4000           0   0.00000   0.00000
     13041 HOAC     32       HOAC     H1       HDA3A    0.092000        1.0080           0   0.00000   0.00000
     13042 HOAC     32       HOAC     H2       HDA3A    0.092000        1.0080           0   0.00000   0.00000
     13043 HOAC     32       HOAC     H3       HDA3A    0.092000        1.0080           0   0.00000   0.00000
     13044 HOAC     32       HOAC     O1       OD2C3A   2.356500       15.5994           0   -0.922000   1.53900
     13045 HOAC     32       HOAC     DO1      DRUD    -2.356500        0.4000           0   0.00000   0.00000
     13046 HOAC     32       HOAC     O2       OD31F    2.776500       15.5990           0   -1.28000   1.12400
     13047 HOAC     32       HOAC     DO2      DRUD    -2.776500        0.4000           0   0.00000   0.00000
     13048 HOAC     32       HOAC     H        HDP1A    0.374000        1.0080           0   0.00000   0.00000
     13049 HOAC     32       HOAC     LPO11    LPD     -0.319000        0.0000           -1   0.00000   0.00000
     13050 HOAC     32       HOAC     LPO12    LPD     -0.319000        0.0000           -1   0.00000   0.00000
     13051 HOAC     32       HOAC     LPO21    LPD     -0.285000        0.0000           -1   0.00000   0.00000
     13052 HOAC     32       HOAC     LPO22    LPD     -0.285000        0.0000           -1   0.00000   0.00000
     13053 HOAC     33       HOAC     C1       CD2O3A   3.554200       11.6110           0   -1.20700   0.708000
     13054 HOAC     33       HOAC     DC1      DRUD    -2.696200        0.4000           0   0.00000   0.00000
     13055 HOAC     33       HOAC     C2       CD33C    3.268200       11.6110           0   -2.11400   0.750000
     13056 HOAC     33       HOAC     DC2      DRUD    -3.568200        0.4000           0   0.00000   0.00000
     13057 HOAC     33       HOAC     H1       HDA3A    0.092000        1.0080           0   0.00000   0.00000
     13058 HOAC     33       HOAC     H2       HDA3A    0.092000        1.0080           0   0.00000   0.00000
     13059 HOAC     33       HOAC     H3       HDA3A    0.092000        1.0080           0   0.00000   0.00000
     13060 HOAC     33       HOAC     O1       OD2C3A   2.356500       15.5994           0   -0.922000   1.53900
     13061 HOAC     33       HOAC     DO1      DRUD    -2.356500        0.4000           0   0.00000   0.00000
     13062 HOAC     33       HOAC     O2       OD31F    2.776500       15.5990           0   -1.28000   1.12400
     13063 HOAC     33       HOAC     DO2      DRUD    -2.776500        0.4000           0   0.00000   0.00000
     13064 HOAC     33       HOAC     H        HDP1A    0.374000        1.0080           0   0.00000   0.00000
     13065 HOAC     33       HOAC     LPO11    LPD     -0.319000        0.0000           -1   0.00000   0.00000
     13066 HOAC     33       HOAC     LPO12    LPD     -0.319000        0.0000           -1   0.00000   0.00000
     13067 HOAC     33       HOAC     LPO21    LPD     -0.285000        0.0000           -1   0.00000   0.00000
     13068 HOAC     33       HOAC     LPO22    LPD     -0.285000        0.0000           -1   0.00000   0.00000
     13069 HOAC     34       HOAC     C1       CD2O3A   3.554200       11.6110           0   -1.20700   0.708000
     13070 HOAC     34       HOAC     DC1      DRUD    -2.696200        0.4000           0   0.00000   0.00000
     13071 HOAC     34       HOAC     C2       CD33C    3.268200       11.6110           0   -2.11400   0.750000
     13072 HOAC     34       HOAC     DC2      DRUD    -3.568200        0.4000           0   0.00000   0.00000
     13073 HOAC     34       HOAC     H1       HDA3A    0.092000        1.0080           0   0.00000   0.00000
     13074 HOAC     34       HOAC     H2       HDA3A    0.092000        1.0080           0   0.00000   0.00000
     13075 HOAC     34       HOAC     H3       HDA3A    0.092000        1.0080           0   0.00000   0.00000
     13076 HOAC     34       HOAC     O1       OD2C3A   2.356500       15.5994           0   -0.922000   1.53900
     13077 HOAC     34       HOAC     DO1      DRUD    -2.356500        0.4000           0   0.00000   0.00000
     13078 HOAC     34       HOAC     O2       OD31F    2.776500       15.5990           0   -1.28000   1.12400
     13079 HOAC     34       HOAC     DO2      DRUD    -2.776500        0.4000           0   0.00000   0.00000
     13080 HOAC     34       HOAC     H        HDP1A    0.374000        1.0080           0   0.00000   0.00000
     13081 HOAC     34       HOAC     LPO11    LPD     -0.319000        0.0000           -1   0.00000   0.00000
     13082 HOAC     34       HOAC     LPO12    LPD     -0.319000        0.0000           -1   0.00000   0.00000
     13083 HOAC     34       HOAC     LPO21    LPD     -0.285000        0.0000           -1   0.00000   0.00000
     13084 HOAC     34       HOAC     LPO22    LPD     -0.285000        0.0000           -1   0.00000   0.00000
     13085 HOAC     35       HOAC     C1       CD2O3A   3.554200       11.6110           0   -1.20700   0.708000
     13086 HOAC     35       HOAC     DC1      DRUD    -2.696200        0.4000           0   0.00000   0.00000
     13087 HOAC     35       HOAC     C2       CD33C    3.268200       11.6110           0   -2.11400   0.750000
     13088 HOAC     35       HOAC     DC2      DRUD    -3.568200        0.4000           0   0.00000   0.00000
     13089 HOAC     35       HOAC     H1       HDA3A    0.092000        1.0080           0   0.00000   0.00000
     13090 HOAC     35       HOAC     H2       HDA3A    0.092000        1.0080           0   0.00000   0.00000
     13091 HOAC     35       HOAC     H3       HDA3A    0.092000        1.0080           0   0.00000   0.00000
     13092 HOAC     35       HOAC     O1       OD2C3A   2.356500       15.5994           0   -0.922000   1.53900
     13093 HOAC     35       HOAC     DO1      DRUD    -2.356500        0.4000           0   0.00000   0.00000
     13094 HOAC     35       HOAC     O2       OD31F    2.776500       15.5990           0   -1.28000   1.12400
     13095 HOAC     35       HOAC     DO2      DRUD    -2.776500        0.4000           0   0.00000   0.00000
     13096 HOAC     35       HOAC     H        HDP1A    0.374000        1.0080           0   0.00000   0.00000
     13097 HOAC     35       HOAC     LPO11    LPD     -0.319000        0.0000           -1   0.00000   0.00000
     13098 HOAC     35       HOAC     LPO12    LPD     -0.319000        0.0000           -1   0.00000   0.00000
     13099 HOAC     35       HOAC     LPO21    LPD     -0.285000        0.0000           -1   0.00000   0.00000
     13100 HOAC     35       HOAC     LPO22    LPD     -0.285000        0.0000           -1   0.00000   0.00000
     13101 HOAC     36       HOAC     C1       CD2O3A   3.554200       11.6110           0   -1.20700   0.708000
     13102 HOAC     36       HOAC     DC1      DRUD    -2.696200        0.4000           0   0.00000   0.00000
     13103 HOAC     36       HOAC     C2       CD33C    3.268200       11.6110           0   -2.11400   0.750000
     13104 HOAC     36       HOAC     DC2      DRUD    -3.568200        0.4000           0   0.00000   0.00000
     13105 HOAC     36       HOAC     H1       HDA3A    0.092000        1.0080           0   0.00000   0.00000
     13106 HOAC     36       HOAC     H2       HDA3A    0.092000        1.0080           0   0.00000   0.00000
     13107 HOAC     36       HOAC     H3       HDA3A    0.092000        1.0080           0   0.00000   0.00000
     13108 HOAC     36       HOAC     O1       OD2C3A   2.356500       15.5994           0   -0.922000   1.53900
     13109 HOAC     36       HOAC     DO1      DRUD    -2.356500        0.4000           0   0.00000   0.00000
     13110 HOAC     36       HOAC     O2       OD31F    2.776500       15.5990           0   -1.28000   1.12400
     13111 HOAC     36       HOAC     DO2      DRUD    -2.776500        0.4000           0   0.00000   0.00000
     13112 HOAC     36       HOAC     H        HDP1A    0.374000        1.0080           0   0.00000   0.00000
     13113 HOAC     36       HOAC     LPO11    LPD     -0.319000        0.0000           -1   0.00000   0.00000
     13114 HOAC     36       HOAC     LPO12    LPD     -0.319000        0.0000           -1   0.00000   0.00000
     13115 HOAC     36       HOAC     LPO21    LPD     -0.285000        0.0000           -1   0.00000   0.00000
     13116 HOAC     36       HOAC     LPO22    LPD     -0.285000        0.0000           -1   0.00000   0.00000
     13117 HOAC     37       HOAC     C1       CD2O3A   3.554200       11.6110           0   -1.20700   0.708000
     13118 HOAC     37       HOAC     DC1      DRUD    -2.696200        0.4000           0   0.00000   0.00000
     13119 HOAC     37       HOAC     C2       CD33C    3.268200       11.6110           0   -2.11400   0.750000
     13120 HOAC     37       HOAC     DC2      DRUD    -3.568200        0.4000           0   0.00000   0.00000
     13121 HOAC     37       HOAC     H1       HDA3A    0.092000        1.0080           0   0.00000   0.00000
     13122 HOAC     37       HOAC     H2       HDA3A    0.092000        1.0080           0   0.00000   0.00000
     13123 HOAC     37       HOAC     H3       HDA3A    0.092000        1.0080           0   0.00000   0.00000
     13124 HOAC     37       HOAC     O1       OD2C3A   2.356500       15.5994           0   -0.922000   1.53900
     13125 HOAC     37       HOAC     DO1      DRUD    -2.356500        0.4000           0   0.00000   0.00000
     13126 HOAC     37       HOAC     O2       OD31F    2.776500       15.5990           0   -1.28000   1.12400
     13127 HOAC     37       HOAC     DO2      DRUD    -2.776500        0.4000           0   0.00000   0.00000
     13128 HOAC     37       HOAC     H        HDP1A    0.374000        1.0080           0   0.00000   0.00000
     13129 HOAC     37       HOAC     LPO11    LPD     -0.319000        0.0000           -1   0.00000   0.00000
     13130 HOAC     37       HOAC     LPO12    LPD     -0.319000        0.0000           -1   0.00000   0.00000
     13131 HOAC     37       HOAC     LPO21    LPD     -0.285000        0.0000           -1   0.00000   0.00000
     13132 HOAC     37       HOAC     LPO22    LPD     -0.285000        0.0000           -1   0.00000   0.00000
     13133 HOAC     38       HOAC     C1       CD2O3A   3.554200       11.6110           0   -1.20700   0.708000
     13134 HOAC     38       HOAC     DC1      DRUD    -2.696200        0.4000           0   0.00000   0.00000
     13135 HOAC     38       HOAC     C2       CD33C    3.268200       11.6110           0   -2.11400   0.750000
     13136 HOAC     38       HOAC     DC2      DRUD    -3.568200        0.4000           0   0.00000   0.00000
     13137 HOAC     38       HOAC     H1       HDA3A    0.092000        1.0080           0   0.00000   0.00000
     13138 HOAC     38       HOAC     H2       HDA3A    0.092000        1.0080           0   0.00000   0.00000
     13139 HOAC     38       HOAC     H3       HDA3A    0.092000        1.0080           0   0.00000   0.00000
     13140 HOAC     38       HOAC     O1       OD2C3A   2.356500       15.5994           0   -0.922000   1.53900
     13141 HOAC     38       HOAC     DO1      DRUD    -2.356500        0.4000           0   0.00000   0.00000
     13142 HOAC     38       HOAC     O2       OD31F    2.776500       15.5990           0   -1.28000   1.12400
     13143 HOAC     38       HOAC     DO2      DRUD    -2.776500        0.4000           0   0.00000   0.00000
     13144 HOAC     38       HOAC     H        HDP1A    0.374000        1.0080           0   0.00000   0.00000
     13145 HOAC     38       HOAC     LPO11    LPD     -0.319000        0.0000           -1   0.00000   0.00000
     13146 HOAC     38       HOAC     LPO12    LPD     -0.319000        0.0000           -1   0.00000   0.00000
     13147 HOAC     38       HOAC     LPO21    LPD     -0.285000        0.0000           -1   0.00000   0.00000
     13148 HOAC     38       HOAC     LPO22    LPD     -0.285000        0.0000           -1   0.00000   0.00000
     13149 HOAC     39       HOAC     C1       CD2O3A   3.554200       11.6110           0   -1.20700   0.708000
     13150 HOAC     39       HOAC     DC1      DRUD    -2.696200        0.4000           0   0.00000   0.00000
     13151 HOAC     39       HOAC     C2       CD33C    3.268200       11.6110           0   -2.11400   0.750000
     13152 HOAC     39       HOAC     DC2      DRUD    -3.568200        0.4000           0   0.00000   0.00000
     13153 HOAC     39       HOAC     H1       HDA3A    0.092000        1.0080           0   0.00000   0.00000
     13154 HOAC     39       HOAC     H2       HDA3A    0.092000        1.0080           0   0.00000   0.00000
     13155 HOAC     39       HOAC     H3       HDA3A    0.092000        1.0080           0   0.00000   0.00000
     13156 HOAC     39       HOAC     O1       OD2C3A   2.356500       15.5994           0   -0.922000   1.53900
     13157 HOAC     39       HOAC     DO1      DRUD    -2.356500        0.4000           0   0.00000   0.00000
     13158 HOAC     39       HOAC     O2       OD31F    2.776500       15.5990           0   -1.28000   1.12400
     13159 HOAC     39       HOAC     DO2      DRUD    -2.776500        0.4000           0   0.00000   0.00000
     13160 HOAC     39       HOAC     H        HDP1A    0.374000        1.0080           0   0.00000   0.00000
     13161 HOAC     39       HOAC     LPO11    LPD     -0.319000        0.0000           -1   0.00000   0.00000
     13162 HOAC     39       HOAC     LPO12    LPD     -0.319000        0.0000           -1   0.00000   0.00000
     13163 HOAC     39       HOAC     LPO21    LPD     -0.285000        0.0000           -1   0.00000   0.00000
     13164 HOAC     39       HOAC     LPO22    LPD     -0.285000        0.0000           -1   0.00000   0.00000
     13165 HOAC     40       HOAC     C1       CD2O3A   3.554200       11.6110           0   -1.20700   0.708000
     13166 HOAC     40       HOAC     DC1      DRUD    -2.696200        0.4000           0   0.00000   0.00000
     13167 HOAC     40       HOAC     C2       CD33C    3.268200       11.6110           0   -2.11400   0.750000
     13168 HOAC     40       HOAC     DC2      DRUD    -3.568200        0.4000           0   0.00000   0.00000
     13169 HOAC     40       HOAC     H1       HDA3A    0.092000        1.0080           0   0.00000   0.00000
     13170 HOAC     40       HOAC     H2       HDA3A    0.092000        1.0080           0   0.00000   0.00000
     13171 HOAC     40       HOAC     H3       HDA3A    0.092000        1.0080           0   0.00000   0.00000
     13172 HOAC     40       HOAC     O1       OD2C3A   2.356500       15.5994           0   -0.922000   1.53900
     13173 HOAC     40       HOAC     DO1      DRUD    -2.356500        0.4000           0   0.00000   0.00000
     13174 HOAC     40       HOAC     O2       OD31F    2.776500       15.5990           0   -1.28000   1.12400
     13175 HOAC     40       HOAC     DO2      DRUD    -2.776500        0.4000           0   0.00000   0.00000
     13176 HOAC     40       HOAC     H        HDP1A    0.374000        1.0080           0   0.00000   0.00000
     13177 HOAC     40       HOAC     LPO11    LPD     -0.319000        0.0000           -1   0.00000   0.00000
     13178 HOAC     40       HOAC     LPO12    LPD     -0.319000        0.0000           -1   0.00000   0.00000
     13179 HOAC     40       HOAC     LPO21    LPD     -0.285000        0.0000           -1   0.00000   0.00000
     13180 HOAC     40       HOAC     LPO22    LPD     -0.285000        0.0000           -1   0.00000   0.00000
     13181 HOAC     41       HOAC     C1       CD2O3A   3.554200       11.6110           0   -1.20700   0.708000
     13182 HOAC     41       HOAC     DC1      DRUD    -2.696200        0.4000           0   0.00000   0.00000
     13183 HOAC     41       HOAC     C2       CD33C    3.268200       11.6110           0   -2.11400   0.750000
     13184 HOAC     41       HOAC     DC2      DRUD    -3.568200        0.4000           0   0.00000   0.00000
     13185 HOAC     41       HOAC     H1       HDA3A    0.092000        1.0080           0   0.00000   0.00000
     13186 HOAC     41       HOAC     H2       HDA3A    0.092000        1.0080           0   0.00000   0.00000
     13187 HOAC     41       HOAC     H3       HDA3A    0.092000        1.0080           0   0.00000   0.00000
     13188 HOAC     41       HOAC     O1       OD2C3A   2.356500       15.5994           0   -0.922000   1.53900
     13189 HOAC     41       HOAC     DO1      DRUD    -2.356500        0.4000           0   0.00000   0.00000
     13190 HOAC     41       HOAC     O2       OD31F    2.776500       15.5990           0   -1.28000   1.12400
     13191 HOAC     41       HOAC     DO2      DRUD    -2.776500        0.4000           0   0.00000   0.00000
     13192 HOAC     41       HOAC     H        HDP1A    0.374000        1.0080           0   0.00000   0.00000
     13193 HOAC     41       HOAC     LPO11    LPD     -0.319000        0.0000           -1   0.00000   0.00000
     13194 HOAC     41       HOAC     LPO12    LPD     -0.319000        0.0000           -1   0.00000   0.00000
     13195 HOAC     41       HOAC     LPO21    LPD     -0.285000        0.0000           -1   0.00000   0.00000
     13196 HOAC     41       HOAC     LPO22    LPD     -0.285000        0.0000           -1   0.00000   0.00000
     13197 HOAC     42       HOAC     C1       CD2O3A   3.554200       11.6110           0   -1.20700   0.708000
     13198 HOAC     42       HOAC     DC1      DRUD    -2.696200        0.4000           0   0.00000   0.00000
     13199 HOAC     42       HOAC     C2       CD33C    3.268200       11.6110           0   -2.11400   0.750000
     13200 HOAC     42       HOAC     DC2      DRUD    -3.568200        0.4000           0   0.00000   0.00000
     13201 HOAC     42       HOAC     H1       HDA3A    0.092000        1.0080           0   0.00000   0.00000
     13202 HOAC     42       HOAC     H2       HDA3A    0.092000        1.0080           0   0.00000   0.00000
     13203 HOAC     42       HOAC     H3       HDA3A    0.092000        1.0080           0   0.00000   0.00000
     13204 HOAC     42       HOAC     O1       OD2C3A   2.356500       15.5994           0   -0.922000   1.53900
     13205 HOAC     42       HOAC     DO1      DRUD    -2.356500        0.4000           0   0.00000   0.00000
     13206 HOAC     42       HOAC     O2       OD31F    2.776500       15.5990           0   -1.28000   1.12400
     13207 HOAC     42       HOAC     DO2      DRUD    -2.776500        0.4000           0   0.00000   0.00000
     13208 HOAC     42       HOAC     H        HDP1A    0.374000        1.0080           0   0.00000   0.00000
     13209 HOAC     42       HOAC     LPO11    LPD     -0.319000        0.0000           -1   0.00000   0.00000
     13210 HOAC     42       HOAC     LPO12    LPD     -0.319000        0.0000           -1   0.00000   0.00000
     13211 HOAC     42       HOAC     LPO21    LPD     -0.285000        0.0000           -1   0.00000   0.00000
     13212 HOAC     42       HOAC     LPO22    LPD     -0.285000        0.0000           -1   0.00000   0.00000
     13213 HOAC     43       HOAC     C1       CD2O3A   3.554200       11.6110           0   -1.20700   0.708000
     13214 HOAC     43       HOAC     DC1      DRUD    -2.696200        0.4000           0   0.00000   0.00000
     13215 HOAC     43       HOAC     C2       CD33C    3.268200       11.6110           0   -2.11400   0.750000
     13216 HOAC     43       HOAC     DC2      DRUD    -3.568200        0.4000           0   0.00000   0.00000
     13217 HOAC     43       HOAC     H1       HDA3A    0.092000        1.0080           0   0.00000   0.00000
     13218 HOAC     43       HOAC     H2       HDA3A    0.092000        1.0080           0   0.00000   0.00000
     13219 HOAC     43       HOAC     H3       HDA3A    0.092000        1.0080           0   0.00000   0.00000
     13220 HOAC     43       HOAC     O1       OD2C3A   2.356500       15.5994           0   -0.922000   1.53900
     13221 HOAC     43       HOAC     DO1      DRUD    -2.356500        0.4000           0   0.00000   0.00000
     13222 HOAC     43       HOAC     O2       OD31F    2.776500       15.5990           0   -1.28000   1.12400
     13223 HOAC     43       HOAC     DO2      DRUD    -2.776500        0.4000           0   0.00000   0.00000
     13224 HOAC     43       HOAC     H        HDP1A    0.374000        1.0080           0   0.00000   0.00000
     13225 HOAC     43       HOAC     LPO11    LPD     -0.319000        0.0000           -1   0.00000   0.00000
     13226 HOAC     43       HOAC     LPO12    LPD     -0.319000        0.0000           -1   0.00000   0.00000
     13227 HOAC     43       HOAC     LPO21    LPD     -0.285000        0.0000           -1   0.00000   0.00000
     13228 HOAC     43       HOAC     LPO22    LPD     -0.285000        0.0000           -1   0.00000   0.00000
     13229 HOAC     44       HOAC     C1       CD2O3A   3.554200       11.6110           0   -1.20700   0.708000
     13230 HOAC     44       HOAC     DC1      DRUD    -2.696200        0.4000           0   0.00000   0.00000
     13231 HOAC     44       HOAC     C2       CD33C    3.268200       11.6110           0   -2.11400   0.750000
     13232 HOAC     44       HOAC     DC2      DRUD    -3.568200        0.4000           0   0.00000   0.00000
     13233 HOAC     44       HOAC     H1       HDA3A    0.092000        1.0080           0   0.00000   0.00000
     13234 HOAC     44       HOAC     H2       HDA3A    0.092000        1.0080           0   0.00000   0.00000
     13235 HOAC     44       HOAC     H3       HDA3A    0.092000        1.0080           0   0.00000   0.00000
     13236 HOAC     44       HOAC     O1       OD2C3A   2.356500       15.5994           0   -0.922000   1.53900
     13237 HOAC     44       HOAC     DO1      DRUD    -2.356500        0.4000           0   0.00000   0.00000
     13238 HOAC     44       HOAC     O2       OD31F    2.776500       15.5990           0   -1.28000   1.12400
     13239 HOAC     44       HOAC     DO2      DRUD    -2.776500        0.4000           0   0.00000   0.00000
     13240 HOAC     44       HOAC     H        HDP1A    0.374000        1.0080           0   0.00000   0.00000
     13241 HOAC     44       HOAC     LPO11    LPD     -0.319000        0.0000           -1   0.00000   0.00000
     13242 HOAC     44       HOAC     LPO12    LPD     -0.319000        0.0000           -1   0.00000   0.00000
     13243 HOAC     44       HOAC     LPO21    LPD     -0.285000        0.0000           -1   0.00000   0.00000
     13244 HOAC     44       HOAC     LPO22    LPD     -0.285000        0.0000           -1   0.00000   0.00000
     13245 HOAC     45       HOAC     C1       CD2O3A   3.554200       11.6110           0   -1.20700   0.708000
     13246 HOAC     45       HOAC     DC1      DRUD    -2.696200        0.4000           0   0.00000   0.00000
     13247 HOAC     45       HOAC     C2       CD33C    3.268200       11.6110           0   -2.11400   0.750000
     13248 HOAC     45       HOAC     DC2      DRUD    -3.568200        0.4000           0   0.00000   0.00000
     13249 HOAC     45       HOAC     H1       HDA3A    0.092000        1.0080           0   0.00000   0.00000
     13250 HOAC     45       HOAC     H2       HDA3A    0.092000        1.0080           0   0.00000   0.00000
     13251 HOAC     45       HOAC     H3       HDA3A    0.092000        1.0080           0   0.00000   0.00000
     13252 HOAC     45       HOAC     O1       OD2C3A   2.356500       15.5994           0   -0.922000   1.53900
     13253 HOAC     45       HOAC     DO1      DRUD    -2.356500        0.4000           0   0.00000   0.00000
     13254 HOAC     45       HOAC     O2       OD31F    2.776500       15.5990           0   -1.28000   1.12400
     13255 HOAC     45       HOAC     DO2      DRUD    -2.776500        0.4000           0   0.00000   0.00000
     13256 HOAC     45       HOAC     H        HDP1A    0.374000        1.0080           0   0.00000   0.00000
     13257 HOAC     45       HOAC     LPO11    LPD     -0.319000        0.0000           -1   0.00000   0.00000
     13258 HOAC     45       HOAC     LPO12    LPD     -0.319000        0.0000           -1   0.00000   0.00000
     13259 HOAC     45       HOAC     LPO21    LPD     -0.285000        0.0000           -1   0.00000   0.00000
     13260 HOAC     45       HOAC     LPO22    LPD     -0.285000        0.0000           -1   0.00000   0.00000
     13261 HOAC     46       HOAC     C1       CD2O3A   3.554200       11.6110           0   -1.20700   0.708000
     13262 HOAC     46       HOAC     DC1      DRUD    -2.696200        0.4000           0   0.00000   0.00000
     13263 HOAC     46       HOAC     C2       CD33C    3.268200       11.6110           0   -2.11400   0.750000
     13264 HOAC     46       HOAC     DC2      DRUD    -3.568200        0.4000           0   0.00000   0.00000
     13265 HOAC     46       HOAC     H1       HDA3A    0.092000        1.0080           0   0.00000   0.00000
     13266 HOAC     46       HOAC     H2       HDA3A    0.092000        1.0080           0   0.00000   0.00000
     13267 HOAC     46       HOAC     H3       HDA3A    0.092000        1.0080           0   0.00000   0.00000
     13268 HOAC     46       HOAC     O1       OD2C3A   2.356500       15.5994           0   -0.922000   1.53900
     13269 HOAC     46       HOAC     DO1      DRUD    -2.356500        0.4000           0   0.00000   0.00000
     13270 HOAC     46       HOAC     O2       OD31F    2.776500       15.5990           0   -1.28000   1.12400
     13271 HOAC     46       HOAC     DO2      DRUD    -2.776500        0.4000           0   0.00000   0.00000
     13272 HOAC     46       HOAC     H        HDP1A    0.374000        1.0080           0   0.00000   0.00000
     13273 HOAC     46       HOAC     LPO11    LPD     -0.319000        0.0000           -1   0.00000   0.00000
     13274 HOAC     46       HOAC     LPO12    LPD     -0.319000        0.0000           -1   0.00000   0.00000
     13275 HOAC     46       HOAC     LPO21    LPD     -0.285000        0.0000           -1   0.00000   0.00000
     13276 HOAC     46       HOAC     LPO22    LPD     -0.285000        0.0000           -1   0.00000   0.00000
     13277 HOAC     47       HOAC     C1       CD2O3A   3.554200       11.6110           0   -1.20700   0.708000
     13278 HOAC     47       HOAC     DC1      DRUD    -2.696200        0.4000           0   0.00000   0.00000
     13279 HOAC     47       HOAC     C2       CD33C    3.268200       11.6110           0   -2.11400   0.750000
     13280 HOAC     47       HOAC     DC2      DRUD    -3.568200        0.4000           0   0.00000   0.00000
     13281 HOAC     47       HOAC     H1       HDA3A    0.092000        1.0080           0   0.00000   0.00000
     13282 HOAC     47       HOAC     H2       HDA3A    0.092000        1.0080           0   0.00000   0.00000
     13283 HOAC     47       HOAC     H3       HDA3A    0.092000        1.0080           0   0.00000   0.00000
     13284 HOAC     47       HOAC     O1       OD2C3A   2.356500       15.5994           0   -0.922000   1.53900
     13285 HOAC     47       HOAC     DO1      DRUD    -2.356500        0.4000           0   0.00000   0.00000
     13286 HOAC     47       HOAC     O2       OD31F    2.776500       15.5990           0   -1.28000   1.12400
     13287 HOAC     47       HOAC     DO2      DRUD    -2.776500        0.4000           0   0.00000   0.00000
     13288 HOAC     47       HOAC     H        HDP1A    0.374000        1.0080           0   0.00000   0.00000
     13289 HOAC     47       HOAC     LPO11    LPD     -0.319000        0.0000           -1   0.00000   0.00000
     13290 HOAC     47       HOAC     LPO12    LPD     -0.319000        0.0000           -1   0.00000   0.00000
     13291 HOAC     47       HOAC     LPO21    LPD     -0.285000        0.0000           -1   0.00000   0.00000
     13292 HOAC     47       HOAC     LPO22    LPD     -0.285000        0.0000           -1   0.00000   0.00000
     13293 HOAC     48       HOAC     C1       CD2O3A   3.554200       11.6110           0   -1.20700   0.708000
     13294 HOAC     48       HOAC     DC1      DRUD    -2.696200        0.4000           0   0.00000   0.00000
     13295 HOAC     48       HOAC     C2       CD33C    3.268200       11.6110           0   -2.11400   0.750000
     13296 HOAC     48       HOAC     DC2      DRUD    -3.568200        0.4000           0   0.00000   0.00000
     13297 HOAC     48       HOAC     H1       HDA3A    0.092000        1.0080           0   0.00000   0.00000
     13298 HOAC     48       HOAC     H2       HDA3A    0.092000        1.0080           0   0.00000   0.00000
     13299 HOAC     48       HOAC     H3       HDA3A    0.092000        1.0080           0   0.00000   0.00000
     13300 HOAC     48       HOAC     O1       OD2C3A   2.356500       15.5994           0   -0.922000   1.53900
     13301 HOAC     48       HOAC     DO1      DRUD    -2.356500        0.4000           0   0.00000   0.00000
     13302 HOAC     48       HOAC     O2       OD31F    2.776500       15.5990           0   -1.28000   1.12400
     13303 HOAC     48       HOAC     DO2      DRUD    -2.776500        0.4000           0   0.00000   0.00000
     13304 HOAC     48       HOAC     H        HDP1A    0.374000        1.0080           0   0.00000   0.00000
     13305 HOAC     48       HOAC     LPO11    LPD     -0.319000        0.0000           -1   0.00000   0.00000
     13306 HOAC     48       HOAC     LPO12    LPD     -0.319000        0.0000           -1   0.00000   0.00000
     13307 HOAC     48       HOAC     LPO21    LPD     -0.285000        0.0000           -1   0.00000   0.00000
     13308 HOAC     48       HOAC     LPO22    LPD     -0.285000        0.0000           -1   0.00000   0.00000
     13309 HOAC     49       HOAC     C1       CD2O3A   3.554200       11.6110           0   -1.20700   0.708000
     13310 HOAC     49       HOAC     DC1      DRUD    -2.696200        0.4000           0   0.00000   0.00000
     13311 HOAC     49       HOAC     C2       CD33C    3.268200       11.6110           0   -2.11400   0.750000
     13312 HOAC     49       HOAC     DC2      DRUD    -3.568200        0.4000           0   0.00000   0.00000
     13313 HOAC     49       HOAC     H1       HDA3A    0.092000        1.0080           0   0.00000   0.00000
     13314 HOAC     49       HOAC     H2       HDA3A    0.092000        1.0080           0   0.00000   0.00000
     13315 HOAC     49       HOAC     H3       HDA3A    0.092000        1.0080           0   0.00000   0.00000
     13316 HOAC     49       HOAC     O1       OD2C3A   2.356500       15.5994           0   -0.922000   1.53900
     13317 HOAC     49       HOAC     DO1      DRUD    -2.356500        0.4000           0   0.00000   0.00000
     13318 HOAC     49       HOAC     O2       OD31F    2.776500       15.5990           0   -1.28000   1.12400
     13319 HOAC     49       HOAC     DO2      DRUD    -2.776500        0.4000           0   0.00000   0.00000
     13320 HOAC     49       HOAC     H        HDP1A    0.374000        1.0080           0   0.00000   0.00000
     13321 HOAC     49       HOAC     LPO11    LPD     -0.319000        0.0000           -1   0.00000   0.00000
     13322 HOAC     49       HOAC     LPO12    LPD     -0.319000        0.0000           -1   0.00000   0.00000
     13323 HOAC     49       HOAC     LPO21    LPD     -0.285000        0.0000           -1   0.00000   0.00000
     13324 HOAC     49       HOAC     LPO22    LPD     -0.285000        0.0000           -1   0.00000   0.00000
     13325 HOAC     50       HOAC     C1       CD2O3A   3.554200       11.6110           0   -1.20700   0.708000
     13326 HOAC     50       HOAC     DC1      DRUD    -2.696200        0.4000           0   0.00000   0.00000
     13327 HOAC     50       HOAC     C2       CD33C    3.268200       11.6110           0   -2.11400   0.750000
     13328 HOAC     50       HOAC     DC2      DRUD    -3.568200        0.4000           0   0.00000   0.00000
     13329 HOAC     50       HOAC     H1       HDA3A    0.092000        1.0080           0   0.00000   0.00000
     13330 HOAC     50       HOAC     H2       HDA3A    0.092000        1.0080           0   0.00000   0.00000
     13331 HOAC     50       HOAC     H3       HDA3A    0.092000        1.0080           0   0.00000   0.00000
     13332 HOAC     50       HOAC     O1       OD2C3A   2.356500       15.5994           0   -0.922000   1.53900
     13333 HOAC     50       HOAC     DO1      DRUD    -2.356500        0.4000           0   0.00000   0.00000
     13334 HOAC     50       HOAC     O2       OD31F    2.776500       15.5990           0   -1.28000   1.12400
     13335 HOAC     50       HOAC     DO2      DRUD    -2.776500        0.4000           0   0.00000   0.00000
     13336 HOAC     50       HOAC     H        HDP1A    0.374000        1.0080           0   0.00000   0.00000
     13337 HOAC     50       HOAC     LPO11    LPD     -0.319000        0.0000           -1   0.00000   0.00000
     13338 HOAC     50       HOAC     LPO12    LPD     -0.319000        0.0000           -1   0.00000   0.00000
     13339 HOAC     50       HOAC     LPO21    LPD     -0.285000        0.0000           -1   0.00000   0.00000
     13340 HOAC     50       HOAC     LPO22    LPD     -0.285000        0.0000           -1   0.00000   0.00000
     13341 HOAC     51       HOAC     C1       CD2O3A   3.554200       11.6110           0   -1.20700   0.708000
     13342 HOAC     51       HOAC     DC1      DRUD    -2.696200        0.4000           0   0.00000   0.00000
     13343 HOAC     51       HOAC     C2       CD33C    3.268200       11.6110           0   -2.11400   0.750000
     13344 HOAC     51       HOAC     DC2      DRUD    -3.568200        0.4000           0   0.00000   0.00000
     13345 HOAC     51       HOAC     H1       HDA3A    0.092000        1.0080           0   0.00000   0.00000
     13346 HOAC     51       HOAC     H2       HDA3A    0.092000        1.0080           0   0.00000   0.00000
     13347 HOAC     51       HOAC     H3       HDA3A    0.092000        1.0080           0   0.00000   0.00000
     13348 HOAC     51       HOAC     O1       OD2C3A   2.356500       15.5994           0   -0.922000   1.53900
     13349 HOAC     51       HOAC     DO1      DRUD    -2.356500        0.4000           0   0.00000   0.00000
     13350 HOAC     51       HOAC     O2       OD31F    2.776500       15.5990           0   -1.28000   1.12400
     13351 HOAC     51       HOAC     DO2      DRUD    -2.776500        0.4000           0   0.00000   0.00000
     13352 HOAC     51       HOAC     H        HDP1A    0.374000        1.0080           0   0.00000   0.00000
     13353 HOAC     51       HOAC     LPO11    LPD     -0.319000        0.0000           -1   0.00000   0.00000
     13354 HOAC     51       HOAC     LPO12    LPD     -0.319000        0.0000           -1   0.00000   0.00000
     13355 HOAC     51       HOAC     LPO21    LPD     -0.285000        0.0000           -1   0.00000   0.00000
     13356 HOAC     51       HOAC     LPO22    LPD     -0.285000        0.0000           -1   0.00000   0.00000
     13357 HOAC     52       HOAC     C1       CD2O3A   3.554200       11.6110           0   -1.20700   0.708000
     13358 HOAC     52       HOAC     DC1      DRUD    -2.696200        0.4000           0   0.00000   0.00000
     13359 HOAC     52       HOAC     C2       CD33C    3.268200       11.6110           0   -2.11400   0.750000
     13360 HOAC     52       HOAC     DC2      DRUD    -3.568200        0.4000           0   0.00000   0.00000
     13361 HOAC     52       HOAC     H1       HDA3A    0.092000        1.0080           0   0.00000   0.00000
     13362 HOAC     52       HOAC     H2       HDA3A    0.092000        1.0080           0   0.00000   0.00000
     13363 HOAC     52       HOAC     H3       HDA3A    0.092000        1.0080           0   0.00000   0.00000
     13364 HOAC     52       HOAC     O1       OD2C3A   2.356500       15.5994           0   -0.922000   1.53900
     13365 HOAC     52       HOAC     DO1      DRUD    -2.356500        0.4000           0   0.00000   0.00000
     13366 HOAC     52       HOAC     O2       OD31F    2.776500       15.5990           0   -1.28000   1.12400
     13367 HOAC     52       HOAC     DO2      DRUD    -2.776500        0.4000           0   0.00000   0.00000
     13368 HOAC     52       HOAC     H        HDP1A    0.374000        1.0080           0   0.00000   0.00000
     13369 HOAC     52       HOAC     LPO11    LPD     -0.319000        0.0000           -1   0.00000   0.00000
     13370 HOAC     52       HOAC     LPO12    LPD     -0.319000        0.0000           -1   0.00000   0.00000
     13371 HOAC     52       HOAC     LPO21    LPD     -0.285000        0.0000           -1   0.00000   0.00000
     13372 HOAC     52       HOAC     LPO22    LPD     -0.285000        0.0000           -1   0.00000   0.00000
     13373 HOAC     53       HOAC     C1       CD2O3A   3.554200       11.6110           0   -1.20700   0.708000
     13374 HOAC     53       HOAC     DC1      DRUD    -2.696200        0.4000           0   0.00000   0.00000
     13375 HOAC     53       HOAC     C2       CD33C    3.268200       11.6110           0   -2.11400   0.750000
     13376 HOAC     53       HOAC     DC2      DRUD    -3.568200        0.4000           0   0.00000   0.00000
     13377 HOAC     53       HOAC     H1       HDA3A    0.092000        1.0080           0   0.00000   0.00000
     13378 HOAC     53       HOAC     H2       HDA3A    0.092000        1.0080           0   0.00000   0.00000
     13379 HOAC     53       HOAC     H3       HDA3A    0.092000        1.0080           0   0.00000   0.00000
     13380 HOAC     53       HOAC     O1       OD2C3A   2.356500       15.5994           0   -0.922000   1.53900
     13381 HOAC     53       HOAC     DO1      DRUD    -2.356500        0.4000           0   0.00000   0.00000
     13382 HOAC     53       HOAC     O2       OD31F    2.776500       15.5990           0   -1.28000   1.12400
     13383 HOAC     53       HOAC     DO2      DRUD    -2.776500        0.4000           0   0.00000   0.00000
     13384 HOAC     53       HOAC     H        HDP1A    0.374000        1.0080           0   0.00000   0.00000
     13385 HOAC     53       HOAC     LPO11    LPD     -0.319000        0.0000           -1   0.00000   0.00000
     13386 HOAC     53       HOAC     LPO12    LPD     -0.319000        0.0000           -1   0.00000   0.00000
     13387 HOAC     53       HOAC     LPO21    LPD     -0.285000        0.0000           -1   0.00000   0.00000
     13388 HOAC     53       HOAC     LPO22    LPD     -0.285000        0.0000           -1   0.00000   0.00000
     13389 HOAC     54       HOAC     C1       CD2O3A   3.554200       11.6110           0   -1.20700   0.708000
     13390 HOAC     54       HOAC     DC1      DRUD    -2.696200        0.4000           0   0.00000   0.00000
     13391 HOAC     54       HOAC     C2       CD33C    3.268200       11.6110           0   -2.11400   0.750000
     13392 HOAC     54       HOAC     DC2      DRUD    -3.568200        0.4000           0   0.00000   0.00000
     13393 HOAC     54       HOAC     H1       HDA3A    0.092000        1.0080           0   0.00000   0.00000
     13394 HOAC     54       HOAC     H2       HDA3A    0.092000        1.0080           0   0.00000   0.00000
     13395 HOAC     54       HOAC     H3       HDA3A    0.092000        1.0080           0   0.00000   0.00000
     13396 HOAC     54       HOAC     O1       OD2C3A   2.356500       15.5994           0   -0.922000   1.53900
     13397 HOAC     54       HOAC     DO1      DRUD    -2.356500        0.4000           0   0.00000   0.00000
     13398 HOAC     54       HOAC     O2       OD31F    2.776500       15.5990           0   -1.28000   1.12400
     13399 HOAC     54       HOAC     DO2      DRUD    -2.776500        0.4000           0   0.00000   0.00000
     13400 HOAC     54       HOAC     H        HDP1A    0.374000        1.0080           0   0.00000   0.00000
     13401 HOAC     54       HOAC     LPO11    LPD     -0.319000        0.0000           -1   0.00000   0.00000
     13402 HOAC     54       HOAC     LPO12    LPD     -0.319000        0.0000           -1   0.00000   0.00000
     13403 HOAC     54       HOAC     LPO21    LPD     -0.285000        0.0000           -1   0.00000   0.00000
     13404 HOAC     54       HOAC     LPO22    LPD     -0.285000        0.0000           -1   0.00000   0.00000
     13405 HOAC     55       HOAC     C1       CD2O3A   3.554200       11.6110           0   -1.20700   0.708000
     13406 HOAC     55       HOAC     DC1      DRUD    -2.696200        0.4000           0   0.00000   0.00000
     13407 HOAC     55       HOAC     C2       CD33C    3.268200       11.6110           0   -2.11400   0.750000
     13408 HOAC     55       HOAC     DC2      DRUD    -3.568200        0.4000           0   0.00000   0.00000
     13409 HOAC     55       HOAC     H1       HDA3A    0.092000        1.0080           0   0.00000   0.00000
     13410 HOAC     55       HOAC     H2       HDA3A    0.092000        1.0080           0   0.00000   0.00000
     13411 HOAC     55       HOAC     H3       HDA3A    0.092000        1.0080           0   0.00000   0.00000
     13412 HOAC     55       HOAC     O1       OD2C3A   2.356500       15.5994           0   -0.922000   1.53900
     13413 HOAC     55       HOAC     DO1      DRUD    -2.356500        0.4000           0   0.00000   0.00000
     13414 HOAC     55       HOAC     O2       OD31F    2.776500       15.5990           0   -1.28000   1.12400
     13415 HOAC     55       HOAC     DO2      DRUD    -2.776500        0.4000           0   0.00000   0.00000
     13416 HOAC     55       HOAC     H        HDP1A    0.374000        1.0080           0   0.00000   0.00000
     13417 HOAC     55       HOAC     LPO11    LPD     -0.319000        0.0000           -1   0.00000   0.00000
     13418 HOAC     55       HOAC     LPO12    LPD     -0.319000        0.0000           -1   0.00000   0.00000
     13419 HOAC     55       HOAC     LPO21    LPD     -0.285000        0.0000           -1   0.00000   0.00000
     13420 HOAC     55       HOAC     LPO22    LPD     -0.285000        0.0000           -1   0.00000   0.00000
     13421 HOAC     56       HOAC     C1       CD2O3A   3.554200       11.6110           0   -1.20700   0.708000
     13422 HOAC     56       HOAC     DC1      DRUD    -2.696200        0.4000           0   0.00000   0.00000
     13423 HOAC     56       HOAC     C2       CD33C    3.268200       11.6110           0   -2.11400   0.750000
     13424 HOAC     56       HOAC     DC2      DRUD    -3.568200        0.4000           0   0.00000   0.00000
     13425 HOAC     56       HOAC     H1       HDA3A    0.092000        1.0080           0   0.00000   0.00000
     13426 HOAC     56       HOAC     H2       HDA3A    0.092000        1.0080           0   0.00000   0.00000
     13427 HOAC     56       HOAC     H3       HDA3A    0.092000        1.0080           0   0.00000   0.00000
     13428 HOAC     56       HOAC     O1       OD2C3A   2.356500       15.5994           0   -0.922000   1.53900
     13429 HOAC     56       HOAC     DO1      DRUD    -2.356500        0.4000           0   0.00000   0.00000
     13430 HOAC     56       HOAC     O2       OD31F    2.776500       15.5990           0   -1.28000   1.12400
     13431 HOAC     56       HOAC     DO2      DRUD    -2.776500        0.4000           0   0.00000   0.00000
     13432 HOAC     56       HOAC     H        HDP1A    0.374000        1.0080           0   0.00000   0.00000
     13433 HOAC     56       HOAC     LPO11    LPD     -0.319000        0.0000           -1   0.00000   0.00000
     13434 HOAC     56       HOAC     LPO12    LPD     -0.319000        0.0000           -1   0.00000   0.00000
     13435 HOAC     56       HOAC     LPO21    LPD     -0.285000        0.0000           -1   0.00000   0.00000
     13436 HOAC     56       HOAC     LPO22    LPD     -0.285000        0.0000           -1   0.00000   0.00000
     13437 HOAC     57       HOAC     C1       CD2O3A   3.554200       11.6110           0   -1.20700   0.708000
     13438 HOAC     57       HOAC     DC1      DRUD    -2.696200        0.4000           0   0.00000   0.00000
     13439 HOAC     57       HOAC     C2       CD33C    3.268200       11.6110           0   -2.11400   0.750000
     13440 HOAC     57       HOAC     DC2      DRUD    -3.568200        0.4000           0   0.00000   0.00000
     13441 HOAC     57       HOAC     H1       HDA3A    0.092000        1.0080           0   0.00000   0.00000
     13442 HOAC     57       HOAC     H2       HDA3A    0.092000        1.0080           0   0.00000   0.00000
     13443 HOAC     57       HOAC     H3       HDA3A    0.092000        1.0080           0   0.00000   0.00000
     13444 HOAC     57       HOAC     O1       OD2C3A   2.356500       15.5994           0   -0.922000   1.53900
     13445 HOAC     57       HOAC     DO1      DRUD    -2.356500        0.4000           0   0.00000   0.00000
     13446 HOAC     57       HOAC     O2       OD31F    2.776500       15.5990           0   -1.28000   1.12400
     13447 HOAC     57       HOAC     DO2      DRUD    -2.776500        0.4000           0   0.00000   0.00000
     13448 HOAC     57       HOAC     H        HDP1A    0.374000        1.0080           0   0.00000   0.00000
     13449 HOAC     57       HOAC     LPO11    LPD     -0.319000        0.0000           -1   0.00000   0.00000
     13450 HOAC     57       HOAC     LPO12    LPD     -0.319000        0.0000           -1   0.00000   0.00000
     13451 HOAC     57       HOAC     LPO21    LPD     -0.285000        0.0000           -1   0.00000   0.00000
     13452 HOAC     57       HOAC     LPO22    LPD     -0.285000        0.0000           -1   0.00000   0.00000
     13453 HOAC     58       HOAC     C1       CD2O3A   3.554200       11.6110           0   -1.20700   0.708000
     13454 HOAC     58       HOAC     DC1      DRUD    -2.696200        0.4000           0   0.00000   0.00000
     13455 HOAC     58       HOAC     C2       CD33C    3.268200       11.6110           0   -2.11400   0.750000
     13456 HOAC     58       HOAC     DC2      DRUD    -3.568200        0.4000           0   0.00000   0.00000
     13457 HOAC     58       HOAC     H1       HDA3A    0.092000        1.0080           0   0.00000   0.00000
     13458 HOAC     58       HOAC     H2       HDA3A    0.092000        1.0080           0   0.00000   0.00000
     13459 HOAC     58       HOAC     H3       HDA3A    0.092000        1.0080           0   0.00000   0.00000
     13460 HOAC     58       HOAC     O1       OD2C3A   2.356500       15.5994           0   -0.922000   1.53900
     13461 HOAC     58       HOAC     DO1      DRUD    -2.356500        0.4000           0   0.00000   0.00000
     13462 HOAC     58       HOAC     O2       OD31F    2.776500       15.5990           0   -1.28000   1.12400
     13463 HOAC     58       HOAC     DO2      DRUD    -2.776500        0.4000           0   0.00000   0.00000
     13464 HOAC     58       HOAC     H        HDP1A    0.374000        1.0080           0   0.00000   0.00000
     13465 HOAC     58       HOAC     LPO11    LPD     -0.319000        0.0000           -1   0.00000   0.00000
     13466 HOAC     58       HOAC     LPO12    LPD     -0.319000        0.0000           -1   0.00000   0.00000
     13467 HOAC     58       HOAC     LPO21    LPD     -0.285000        0.0000           -1   0.00000   0.00000
     13468 HOAC     58       HOAC     LPO22    LPD     -0.285000        0.0000           -1   0.00000   0.00000
     13469 HOAC     59       HOAC     C1       CD2O3A   3.554200       11.6110           0   -1.20700   0.708000
     13470 HOAC     59       HOAC     DC1      DRUD    -2.696200        0.4000           0   0.00000   0.00000
     13471 HOAC     59       HOAC     C2       CD33C    3.268200       11.6110           0   -2.11400   0.750000
     13472 HOAC     59       HOAC     DC2      DRUD    -3.568200        0.4000           0   0.00000   0.00000
     13473 HOAC     59       HOAC     H1       HDA3A    0.092000        1.0080           0   0.00000   0.00000
     13474 HOAC     59       HOAC     H2       HDA3A    0.092000        1.0080           0   0.00000   0.00000
     13475 HOAC     59       HOAC     H3       HDA3A    0.092000        1.0080           0   0.00000   0.00000
     13476 HOAC     59       HOAC     O1       OD2C3A   2.356500       15.5994           0   -0.922000   1.53900
     13477 HOAC     59       HOAC     DO1      DRUD    -2.356500        0.4000           0   0.00000   0.00000
     13478 HOAC     59       HOAC     O2       OD31F    2.776500       15.5990           0   -1.28000   1.12400
     13479 HOAC     59       HOAC     DO2      DRUD    -2.776500        0.4000           0   0.00000   0.00000
     13480 HOAC     59       HOAC     H        HDP1A    0.374000        1.0080           0   0.00000   0.00000
     13481 HOAC     59       HOAC     LPO11    LPD     -0.319000        0.0000           -1   0.00000   0.00000
     13482 HOAC     59       HOAC     LPO12    LPD     -0.319000        0.0000           -1   0.00000   0.00000
     13483 HOAC     59       HOAC     LPO21    LPD     -0.285000        0.0000           -1   0.00000   0.00000
     13484 HOAC     59       HOAC     LPO22    LPD     -0.285000        0.0000           -1   0.00000   0.00000
     13485 HOAC     60       HOAC     C1       CD2O3A   3.554200       11.6110           0   -1.20700   0.708000
     13486 HOAC     60       HOAC     DC1      DRUD    -2.696200        0.4000           0   0.00000   0.00000
     13487 HOAC     60       HOAC     C2       CD33C    3.268200       11.6110           0   -2.11400   0.750000
     13488 HOAC     60       HOAC     DC2      DRUD    -3.568200        0.4000           0   0.00000   0.00000
     13489 HOAC     60       HOAC     H1       HDA3A    0.092000        1.0080           0   0.00000   0.00000
     13490 HOAC     60       HOAC     H2       HDA3A    0.092000        1.0080           0   0.00000   0.00000
     13491 HOAC     60       HOAC     H3       HDA3A    0.092000        1.0080           0   0.00000   0.00000
     13492 HOAC     60       HOAC     O1       OD2C3A   2.356500       15.5994           0   -0.922000   1.53900
     13493 HOAC     60       HOAC     DO1      DRUD    -2.356500        0.4000           0   0.00000   0.00000
     13494 HOAC     60       HOAC     O2       OD31F    2.776500       15.5990           0   -1.28000   1.12400
     13495 HOAC     60       HOAC     DO2      DRUD    -2.776500        0.4000           0   0.00000   0.00000
     13496 HOAC     60       HOAC     H        HDP1A    0.374000        1.0080           0   0.00000   0.00000
     13497 HOAC     60       HOAC     LPO11    LPD     -0.319000        0.0000           -1   0.00000   0.00000
     13498 HOAC     60       HOAC     LPO12    LPD     -0.319000        0.0000           -1   0.00000   0.00000
     13499 HOAC     60       HOAC     LPO21    LPD     -0.285000        0.0000           -1   0.00000   0.00000
     13500 HOAC     60       HOAC     LPO22    LPD     -0.285000        0.0000           -1   0.00000   0.00000
     13501 HOAC     61       HOAC     C1       CD2O3A   3.554200       11.6110           0   -1.20700   0.708000
     13502 HOAC     61       HOAC     DC1      DRUD    -2.696200        0.4000           0   0.00000   0.00000
     13503 HOAC     61       HOAC     C2       CD33C    3.268200       11.6110           0   -2.11400   0.750000
     13504 HOAC     61       HOAC     DC2      DRUD    -3.568200        0.4000           0   0.00000   0.00000
     13505 HOAC     61       HOAC     H1       HDA3A    0.092000        1.0080           0   0.00000   0.00000
     13506 HOAC     61       HOAC     H2       HDA3A    0.092000        1.0080           0   0.00000   0.00000
     13507 HOAC     61       HOAC     H3       HDA3A    0.092000        1.0080           0   0.00000   0.00000
     13508 HOAC     61       HOAC     O1       OD2C3A   2.356500       15.5994           0   -0.922000   1.53900
     13509 HOAC     61       HOAC     DO1      DRUD    -2.356500        0.4000           0   0.00000   0.00000
     13510 HOAC     61       HOAC     O2       OD31F    2.776500       15.5990           0   -1.28000   1.12400
     13511 HOAC     61       HOAC     DO2      DRUD    -2.776500        0.4000           0   0.00000   0.00000
     13512 HOAC     61       HOAC     H        HDP1A    0.374000        1.0080           0   0.00000   0.00000
     13513 HOAC     61       HOAC     LPO11    LPD     -0.319000        0.0000           -1   0.00000   0.00000
     13514 HOAC     61       HOAC     LPO12    LPD     -0.319000        0.0000           -1   0.00000   0.00000
     13515 HOAC     61       HOAC     LPO21    LPD     -0.285000        0.0000           -1   0.00000   0.00000
     13516 HOAC     61       HOAC     LPO22    LPD     -0.285000        0.0000           -1   0.00000   0.00000
     13517 HOAC     62       HOAC     C1       CD2O3A   3.554200       11.6110           0   -1.20700   0.708000
     13518 HOAC     62       HOAC     DC1      DRUD    -2.696200        0.4000           0   0.00000   0.00000
     13519 HOAC     62       HOAC     C2       CD33C    3.268200       11.6110           0   -2.11400   0.750000
     13520 HOAC     62       HOAC     DC2      DRUD    -3.568200        0.4000           0   0.00000   0.00000
     13521 HOAC     62       HOAC     H1       HDA3A    0.092000        1.0080           0   0.00000   0.00000
     13522 HOAC     62       HOAC     H2       HDA3A    0.092000        1.0080           0   0.00000   0.00000
     13523 HOAC     62       HOAC     H3       HDA3A    0.092000        1.0080           0   0.00000   0.00000
     13524 HOAC     62       HOAC     O1       OD2C3A   2.356500       15.5994           0   -0.922000   1.53900
     13525 HOAC     62       HOAC     DO1      DRUD    -2.356500        0.4000           0   0.00000   0.00000
     13526 HOAC     62       HOAC     O2       OD31F    2.776500       15.5990           0   -1.28000   1.12400
     13527 HOAC     62       HOAC     DO2      DRUD    -2.776500        0.4000           0   0.00000   0.00000
     13528 HOAC     62       HOAC     H        HDP1A    0.374000        1.0080           0   0.00000   0.00000
     13529 HOAC     62       HOAC     LPO11    LPD     -0.319000        0.0000           -1   0.00000   0.00000
     13530 HOAC     62       HOAC     LPO12    LPD     -0.319000        0.0000           -1   0.00000   0.00000
     13531 HOAC     62       HOAC     LPO21    LPD     -0.285000        0.0000           -1   0.00000   0.00000
     13532 HOAC     62       HOAC     LPO22    LPD     -0.285000        0.0000           -1   0.00000   0.00000
     13533 HOAC     63       HOAC     C1       CD2O3A   3.554200       11.6110           0   -1.20700   0.708000
     13534 HOAC     63       HOAC     DC1      DRUD    -2.696200        0.4000           0   0.00000   0.00000
     13535 HOAC     63       HOAC     C2       CD33C    3.268200       11.6110           0   -2.11400   0.750000
     13536 HOAC     63       HOAC     DC2      DRUD    -3.568200        0.4000           0   0.00000   0.00000
     13537 HOAC     63       HOAC     H1       HDA3A    0.092000        1.0080           0   0.00000   0.00000
     13538 HOAC     63       HOAC     H2       HDA3A    0.092000        1.0080           0   0.00000   0.00000
     13539 HOAC     63       HOAC     H3       HDA3A    0.092000        1.0080           0   0.00000   0.00000
     13540 HOAC     63       HOAC     O1       OD2C3A   2.356500       15.5994           0   -0.922000   1.53900
     13541 HOAC     63       HOAC     DO1      DRUD    -2.356500        0.4000           0   0.00000   0.00000
     13542 HOAC     63       HOAC     O2       OD31F    2.776500       15.5990           0   -1.28000   1.12400
     13543 HOAC     63       HOAC     DO2      DRUD    -2.776500        0.4000           0   0.00000   0.00000
     13544 HOAC     63       HOAC     H        HDP1A    0.374000        1.0080           0   0.00000   0.00000
     13545 HOAC     63       HOAC     LPO11    LPD     -0.319000        0.0000           -1   0.00000   0.00000
     13546 HOAC     63       HOAC     LPO12    LPD     -0.319000        0.0000           -1   0.00000   0.00000
     13547 HOAC     63       HOAC     LPO21    LPD     -0.285000        0.0000           -1   0.00000   0.00000
     13548 HOAC     63       HOAC     LPO22    LPD     -0.285000        0.0000           -1   0.00000   0.00000
     13549 HOAC     64       HOAC     C1       CD2O3A   3.554200       11.6110           0   -1.20700   0.708000
     13550 HOAC     64       HOAC     DC1      DRUD    -2.696200        0.4000           0   0.00000   0.00000
     13551 HOAC     64       HOAC     C2       CD33C    3.268200       11.6110           0   -2.11400   0.750000
     13552 HOAC     64       HOAC     DC2      DRUD    -3.568200        0.4000           0   0.00000   0.00000
     13553 HOAC     64       HOAC     H1       HDA3A    0.092000        1.0080           0   0.00000   0.00000
     13554 HOAC     64       HOAC     H2       HDA3A    0.092000        1.0080           0   0.00000   0.00000
     13555 HOAC     64       HOAC     H3       HDA3A    0.092000        1.0080           0   0.00000   0.00000
     13556 HOAC     64       HOAC     O1       OD2C3A   2.356500       15.5994           0   -0.922000   1.53900
     13557 HOAC     64       HOAC     DO1      DRUD    -2.356500        0.4000           0   0.00000   0.00000
     13558 HOAC     64       HOAC     O2       OD31F    2.776500       15.5990           0   -1.28000   1.12400
     13559 HOAC     64       HOAC     DO2      DRUD    -2.776500        0.4000           0   0.00000   0.00000
     13560 HOAC     64       HOAC     H        HDP1A    0.374000        1.0080           0   0.00000   0.00000
     13561 HOAC     64       HOAC     LPO11    LPD     -0.319000        0.0000           -1   0.00000   0.00000
     13562 HOAC     64       HOAC     LPO12    LPD     -0.319000        0.0000           -1   0.00000   0.00000
     13563 HOAC     64       HOAC     LPO21    LPD     -0.285000        0.0000           -1   0.00000   0.00000
     13564 HOAC     64       HOAC     LPO22    LPD     -0.285000        0.0000           -1   0.00000   0.00000
     13565 HOAC     65       HOAC     C1       CD2O3A   3.554200       11.6110           0   -1.20700   0.708000
     13566 HOAC     65       HOAC     DC1      DRUD    -2.696200        0.4000           0   0.00000   0.00000
     13567 HOAC     65       HOAC     C2       CD33C    3.268200       11.6110           0   -2.11400   0.750000
     13568 HOAC     65       HOAC     DC2      DRUD    -3.568200        0.4000           0   0.00000   0.00000
     13569 HOAC     65       HOAC     H1       HDA3A    0.092000        1.0080           0   0.00000   0.00000
     13570 HOAC     65       HOAC     H2       HDA3A    0.092000        1.0080           0   0.00000   0.00000
     13571 HOAC     65       HOAC     H3       HDA3A    0.092000        1.0080           0   0.00000   0.00000
     13572 HOAC     65       HOAC     O1       OD2C3A   2.356500       15.5994           0   -0.922000   1.53900
     13573 HOAC     65       HOAC     DO1      DRUD    -2.356500        0.4000           0   0.00000   0.00000
     13574 HOAC     65       HOAC     O2       OD31F    2.776500       15.5990           0   -1.28000   1.12400
     13575 HOAC     65       HOAC     DO2      DRUD    -2.776500        0.4000           0   0.00000   0.00000
     13576 HOAC     65       HOAC     H        HDP1A    0.374000        1.0080           0   0.00000   0.00000
     13577 HOAC     65       HOAC     LPO11    LPD     -0.319000        0.0000           -1   0.00000   0.00000
     13578 HOAC     65       HOAC     LPO12    LPD     -0.319000        0.0000           -1   0.00000   0.00000
     13579 HOAC     65       HOAC     LPO21    LPD     -0.285000        0.0000           -1   0.00000   0.00000
     13580 HOAC     65       HOAC     LPO22    LPD     -0.285000        0.0000           -1   0.00000   0.00000
     13581 HOAC     66       HOAC     C1       CD2O3A   3.554200       11.6110           0   -1.20700   0.708000
     13582 HOAC     66       HOAC     DC1      DRUD    -2.696200        0.4000           0   0.00000   0.00000
     13583 HOAC     66       HOAC     C2       CD33C    3.268200       11.6110           0   -2.11400   0.750000
     13584 HOAC     66       HOAC     DC2      DRUD    -3.568200        0.4000           0   0.00000   0.00000
     13585 HOAC     66       HOAC     H1       HDA3A    0.092000        1.0080           0   0.00000   0.00000
     13586 HOAC     66       HOAC     H2       HDA3A    0.092000        1.0080           0   0.00000   0.00000
     13587 HOAC     66       HOAC     H3       HDA3A    0.092000        1.0080           0   0.00000   0.00000
     13588 HOAC     66       HOAC     O1       OD2C3A   2.356500       15.5994           0   -0.922000   1.53900
     13589 HOAC     66       HOAC     DO1      DRUD    -2.356500        0.4000           0   0.00000   0.00000
     13590 HOAC     66       HOAC     O2       OD31F    2.776500       15.5990           0   -1.28000   1.12400
     13591 HOAC     66       HOAC     DO2      DRUD    -2.776500        0.4000           0   0.00000   0.00000
     13592 HOAC     66       HOAC     H        HDP1A    0.374000        1.0080           0   0.00000   0.00000
     13593 HOAC     66       HOAC     LPO11    LPD     -0.319000        0.0000           -1   0.00000   0.00000
     13594 HOAC     66       HOAC     LPO12    LPD     -0.319000        0.0000           -1   0.00000   0.00000
     13595 HOAC     66       HOAC     LPO21    LPD     -0.285000        0.0000           -1   0.00000   0.00000
     13596 HOAC     66       HOAC     LPO22    LPD     -0.285000        0.0000           -1   0.00000   0.00000
     13597 HOAC     67       HOAC     C1       CD2O3A   3.554200       11.6110           0   -1.20700   0.708000
     13598 HOAC     67       HOAC     DC1      DRUD    -2.696200        0.4000           0   0.00000   0.00000
     13599 HOAC     67       HOAC     C2       CD33C    3.268200       11.6110           0   -2.11400   0.750000
     13600 HOAC     67       HOAC     DC2      DRUD    -3.568200        0.4000           0   0.00000   0.00000
     13601 HOAC     67       HOAC     H1       HDA3A    0.092000        1.0080           0   0.00000   0.00000
     13602 HOAC     67       HOAC     H2       HDA3A    0.092000        1.0080           0   0.00000   0.00000
     13603 HOAC     67       HOAC     H3       HDA3A    0.092000        1.0080           0   0.00000   0.00000
     13604 HOAC     67       HOAC     O1       OD2C3A   2.356500       15.5994           0   -0.922000   1.53900
     13605 HOAC     67       HOAC     DO1      DRUD    -2.356500        0.4000           0   0.00000   0.00000
     13606 HOAC     67       HOAC     O2       OD31F    2.776500       15.5990           0   -1.28000   1.12400
     13607 HOAC     67       HOAC     DO2      DRUD    -2.776500        0.4000           0   0.00000   0.00000
     13608 HOAC     67       HOAC     H        HDP1A    0.374000        1.0080           0   0.00000   0.00000
     13609 HOAC     67       HOAC     LPO11    LPD     -0.319000        0.0000           -1   0.00000   0.00000
     13610 HOAC     67       HOAC     LPO12    LPD     -0.319000        0.0000           -1   0.00000   0.00000
     13611 HOAC     67       HOAC     LPO21    LPD     -0.285000        0.0000           -1   0.00000   0.00000
     13612 HOAC     67       HOAC     LPO22    LPD     -0.285000        0.0000           -1   0.00000   0.00000
     13613 HOAC     68       HOAC     C1       CD2O3A   3.554200       11.6110           0   -1.20700   0.708000
     13614 HOAC     68       HOAC     DC1      DRUD    -2.696200        0.4000           0   0.00000   0.00000
     13615 HOAC     68       HOAC     C2       CD33C    3.268200       11.6110           0   -2.11400   0.750000
     13616 HOAC     68       HOAC     DC2      DRUD    -3.568200        0.4000           0   0.00000   0.00000
     13617 HOAC     68       HOAC     H1       HDA3A    0.092000        1.0080           0   0.00000   0.00000
     13618 HOAC     68       HOAC     H2       HDA3A    0.092000        1.0080           0   0.00000   0.00000
     13619 HOAC     68       HOAC     H3       HDA3A    0.092000        1.0080           0   0.00000   0.00000
     13620 HOAC     68       HOAC     O1       OD2C3A   2.356500       15.5994           0   -0.922000   1.53900
     13621 HOAC     68       HOAC     DO1      DRUD    -2.356500        0.4000           0   0.00000   0.00000
     13622 HOAC     68       HOAC     O2       OD31F    2.776500       15.5990           0   -1.28000   1.12400
     13623 HOAC     68       HOAC     DO2      DRUD    -2.776500        0.4000           0   0.00000   0.00000
     13624 HOAC     68       HOAC     H        HDP1A    0.374000        1.0080           0   0.00000   0.00000
     13625 HOAC     68       HOAC     LPO11    LPD     -0.319000        0.0000           -1   0.00000   0.00000
     13626 HOAC     68       HOAC     LPO12    LPD     -0.319000        0.0000           -1   0.00000   0.00000
     13627 HOAC     68       HOAC     LPO21    LPD     -0.285000        0.0000           -1   0.00000   0.00000
     13628 HOAC     68       HOAC     LPO22    LPD     -0.285000        0.0000           -1   0.00000   0.00000
     13629 HOAC     69       HOAC     C1       CD2O3A   3.554200       11.6110           0   -1.20700   0.708000
     13630 HOAC     69       HOAC     DC1      DRUD    -2.696200        0.4000           0   0.00000   0.00000
     13631 HOAC     69       HOAC     C2       CD33C    3.268200       11.6110           0   -2.11400   0.750000
     13632 HOAC     69       HOAC     DC2      DRUD    -3.568200        0.4000           0   0.00000   0.00000
     13633 HOAC     69       HOAC     H1       HDA3A    0.092000        1.0080           0   0.00000   0.00000
     13634 HOAC     69       HOAC     H2       HDA3A    0.092000        1.0080           0   0.00000   0.00000
     13635 HOAC     69       HOAC     H3       HDA3A    0.092000        1.0080           0   0.00000   0.00000
     13636 HOAC     69       HOAC     O1       OD2C3A   2.356500       15.5994           0   -0.922000   1.53900
     13637 HOAC     69       HOAC     DO1      DRUD    -2.356500        0.4000           0   0.00000   0.00000
     13638 HOAC     69       HOAC     O2       OD31F    2.776500       15.5990           0   -1.28000   1.12400
     13639 HOAC     69       HOAC     DO2      DRUD    -2.776500        0.4000           0   0.00000   0.00000
     13640 HOAC     69       HOAC     H        HDP1A    0.374000        1.0080           0   0.00000   0.00000
     13641 HOAC     69       HOAC     LPO11    LPD     -0.319000        0.0000           -1   0.00000   0.00000
     13642 HOAC     69       HOAC     LPO12    LPD     -0.319000        0.0000           -1   0.00000   0.00000
     13643 HOAC     69       HOAC     LPO21    LPD     -0.285000        0.0000           -1   0.00000   0.00000
     13644 HOAC     69       HOAC     LPO22    LPD     -0.285000        0.0000           -1   0.00000   0.00000
     13645 HOAC     70       HOAC     C1       CD2O3A   3.554200       11.6110           0   -1.20700   0.708000
     13646 HOAC     70       HOAC     DC1      DRUD    -2.696200        0.4000           0   0.00000   0.00000
     13647 HOAC     70       HOAC     C2       CD33C    3.268200       11.6110           0   -2.11400   0.750000
     13648 HOAC     70       HOAC     DC2      DRUD    -3.568200        0.4000           0   0.00000   0.00000
     13649 HOAC     70       HOAC     H1       HDA3A    0.092000        1.0080           0   0.00000   0.00000
     13650 HOAC     70       HOAC     H2       HDA3A    0.092000        1.0080           0   0.00000   0.00000
     13651 HOAC     70       HOAC     H3       HDA3A    0.092000        1.0080           0   0.00000   0.00000
     13652 HOAC     70       HOAC     O1       OD2C3A   2.356500       15.5994           0   -0.922000   1.53900
     13653 HOAC     70       HOAC     DO1      DRUD    -2.356500        0.4000           0   0.00000   0.00000
     13654 HOAC     70       HOAC     O2       OD31F    2.776500       15.5990           0   -1.28000   1.12400
     13655 HOAC     70       HOAC     DO2      DRUD    -2.776500        0.4000           0   0.00000   0.00000
     13656 HOAC     70       HOAC     H        HDP1A    0.374000        1.0080           0   0.00000   0.00000
     13657 HOAC     70       HOAC     LPO11    LPD     -0.319000        0.0000           -1   0.00000   0.00000
     13658 HOAC     70       HOAC     LPO12    LPD     -0.319000        0.0000           -1   0.00000   0.00000
     13659 HOAC     70       HOAC     LPO21    LPD     -0.285000        0.0000           -1   0.00000   0.00000
     13660 HOAC     70       HOAC     LPO22    LPD     -0.285000        0.0000           -1   0.00000   0.00000
     13661 HOAC     71       HOAC     C1       CD2O3A   3.554200       11.6110           0   -1.20700   0.708000
     13662 HOAC     71       HOAC     DC1      DRUD    -2.696200        0.4000           0   0.00000   0.00000
     13663 HOAC     71       HOAC     C2       CD33C    3.268200       11.6110           0   -2.11400   0.750000
     13664 HOAC     71       HOAC     DC2      DRUD    -3.568200        0.4000           0   0.00000   0.00000
     13665 HOAC     71       HOAC     H1       HDA3A    0.092000        1.0080           0   0.00000   0.00000
     13666 HOAC     71       HOAC     H2       HDA3A    0.092000        1.0080           0   0.00000   0.00000
     13667 HOAC     71       HOAC     H3       HDA3A    0.092000        1.0080           0   0.00000   0.00000
     13668 HOAC     71       HOAC     O1       OD2C3A   2.356500       15.5994           0   -0.922000   1.53900
     13669 HOAC     71       HOAC     DO1      DRUD    -2.356500        0.4000           0   0.00000   0.00000
     13670 HOAC     71       HOAC     O2       OD31F    2.776500       15.5990           0   -1.28000   1.12400
     13671 HOAC     71       HOAC     DO2      DRUD    -2.776500        0.4000           0   0.00000   0.00000
     13672 HOAC     71       HOAC     H        HDP1A    0.374000        1.0080           0   0.00000   0.00000
     13673 HOAC     71       HOAC     LPO11    LPD     -0.319000        0.0000           -1   0.00000   0.00000
     13674 HOAC     71       HOAC     LPO12    LPD     -0.319000        0.0000           -1   0.00000   0.00000
     13675 HOAC     71       HOAC     LPO21    LPD     -0.285000        0.0000           -1   0.00000   0.00000
     13676 HOAC     71       HOAC     LPO22    LPD     -0.285000        0.0000           -1   0.00000   0.00000
     13677 HOAC     72       HOAC     C1       CD2O3A   3.554200       11.6110           0   -1.20700   0.708000
     13678 HOAC     72       HOAC     DC1      DRUD    -2.696200        0.4000           0   0.00000   0.00000
     13679 HOAC     72       HOAC     C2       CD33C    3.268200       11.6110           0   -2.11400   0.750000
     13680 HOAC     72       HOAC     DC2      DRUD    -3.568200        0.4000           0   0.00000   0.00000
     13681 HOAC     72       HOAC     H1       HDA3A    0.092000        1.0080           0   0.00000   0.00000
     13682 HOAC     72       HOAC     H2       HDA3A    0.092000        1.0080           0   0.00000   0.00000
     13683 HOAC     72       HOAC     H3       HDA3A    0.092000        1.0080           0   0.00000   0.00000
     13684 HOAC     72       HOAC     O1       OD2C3A   2.356500       15.5994           0   -0.922000   1.53900
     13685 HOAC     72       HOAC     DO1      DRUD    -2.356500        0.4000           0   0.00000   0.00000
     13686 HOAC     72       HOAC     O2       OD31F    2.776500       15.5990           0   -1.28000   1.12400
     13687 HOAC     72       HOAC     DO2      DRUD    -2.776500        0.4000           0   0.00000   0.00000
     13688 HOAC     72       HOAC     H        HDP1A    0.374000        1.0080           0   0.00000   0.00000
     13689 HOAC     72       HOAC     LPO11    LPD     -0.319000        0.0000           -1   0.00000   0.00000
     13690 HOAC     72       HOAC     LPO12    LPD     -0.319000        0.0000           -1   0.00000   0.00000
     13691 HOAC     72       HOAC     LPO21    LPD     -0.285000        0.0000           -1   0.00000   0.00000
     13692 HOAC     72       HOAC     LPO22    LPD     -0.285000        0.0000           -1   0.00000   0.00000
     13693 HOAC     73       HOAC     C1       CD2O3A   3.554200       11.6110           0   -1.20700   0.708000
     13694 HOAC     73       HOAC     DC1      DRUD    -2.696200        0.4000           0   0.00000   0.00000
     13695 HOAC     73       HOAC     C2       CD33C    3.268200       11.6110           0   -2.11400   0.750000
     13696 HOAC     73       HOAC     DC2      DRUD    -3.568200        0.4000           0   0.00000   0.00000
     13697 HOAC     73       HOAC     H1       HDA3A    0.092000        1.0080           0   0.00000   0.00000
     13698 HOAC     73       HOAC     H2       HDA3A    0.092000        1.0080           0   0.00000   0.00000
     13699 HOAC     73       HOAC     H3       HDA3A    0.092000        1.0080           0   0.00000   0.00000
     13700 HOAC     73       HOAC     O1       OD2C3A   2.356500       15.5994           0   -0.922000   1.53900
     13701 HOAC     73       HOAC     DO1      DRUD    -2.356500        0.4000           0   0.00000   0.00000
     13702 HOAC     73       HOAC     O2       OD31F    2.776500       15.5990           0   -1.28000   1.12400
     13703 HOAC     73       HOAC     DO2      DRUD    -2.776500        0.4000           0   0.00000   0.00000
     13704 HOAC     73       HOAC     H        HDP1A    0.374000        1.0080           0   0.00000   0.00000
     13705 HOAC     73       HOAC     LPO11    LPD     -0.319000        0.0000           -1   0.00000   0.00000
     13706 HOAC     73       HOAC     LPO12    LPD     -0.319000        0.0000           -1   0.00000   0.00000
     13707 HOAC     73       HOAC     LPO21    LPD     -0.285000        0.0000           -1   0.00000   0.00000
     13708 HOAC     73       HOAC     LPO22    LPD     -0.285000        0.0000           -1   0.00000   0.00000
     13709 HOAC     74       HOAC     C1       CD2O3A   3.554200       11.6110           0   -1.20700   0.708000
     13710 HOAC     74       HOAC     DC1      DRUD    -2.696200        0.4000           0   0.00000   0.00000
     13711 HOAC     74       HOAC     C2       CD33C    3.268200       11.6110           0   -2.11400   0.750000
     13712 HOAC     74       HOAC     DC2      DRUD    -3.568200        0.4000           0   0.00000   0.00000
     13713 HOAC     74       HOAC     H1       HDA3A    0.092000        1.0080           0   0.00000   0.00000
     13714 HOAC     74       HOAC     H2       HDA3A    0.092000        1.0080           0   0.00000   0.00000
     13715 HOAC     74       HOAC     H3       HDA3A    0.092000        1.0080           0   0.00000   0.00000
     13716 HOAC     74       HOAC     O1       OD2C3A   2.356500       15.5994           0   -0.922000   1.53900
     13717 HOAC     74       HOAC     DO1      DRUD    -2.356500        0.4000           0   0.00000   0.00000
     13718 HOAC     74       HOAC     O2       OD31F    2.776500       15.5990           0   -1.28000   1.12400
     13719 HOAC     74       HOAC     DO2      DRUD    -2.776500        0.4000           0   0.00000   0.00000
     13720 HOAC     74       HOAC     H        HDP1A    0.374000        1.0080           0   0.00000   0.00000
     13721 HOAC     74       HOAC     LPO11    LPD     -0.319000        0.0000           -1   0.00000   0.00000
     13722 HOAC     74       HOAC     LPO12    LPD     -0.319000        0.0000           -1   0.00000   0.00000
     13723 HOAC     74       HOAC     LPO21    LPD     -0.285000        0.0000           -1   0.00000   0.00000
     13724 HOAC     74       HOAC     LPO22    LPD     -0.285000        0.0000           -1   0.00000   0.00000
     13725 HOAC     75       HOAC     C1       CD2O3A   3.554200       11.6110           0   -1.20700   0.708000
     13726 HOAC     75       HOAC     DC1      DRUD    -2.696200        0.4000           0   0.00000   0.00000
     13727 HOAC     75       HOAC     C2       CD33C    3.268200       11.6110           0   -2.11400   0.750000
     13728 HOAC     75       HOAC     DC2      DRUD    -3.568200        0.4000           0   0.00000   0.00000
     13729 HOAC     75       HOAC     H1       HDA3A    0.092000        1.0080           0   0.00000   0.00000
     13730 HOAC     75       HOAC     H2       HDA3A    0.092000        1.0080           0   0.00000   0.00000
     13731 HOAC     75       HOAC     H3       HDA3A    0.092000        1.0080           0   0.00000   0.00000
     13732 HOAC     75       HOAC     O1       OD2C3A   2.356500       15.5994           0   -0.922000   1.53900
     13733 HOAC     75       HOAC     DO1      DRUD    -2.356500        0.4000           0   0.00000   0.00000
     13734 HOAC     75       HOAC     O2       OD31F    2.776500       15.5990           0   -1.28000   1.12400
     13735 HOAC     75       HOAC     DO2      DRUD    -2.776500        0.4000           0   0.00000   0.00000
     13736 HOAC     75       HOAC     H        HDP1A    0.374000        1.0080           0   0.00000   0.00000
     13737 HOAC     75       HOAC     LPO11    LPD     -0.319000        0.0000           -1   0.00000   0.00000
     13738 HOAC     75       HOAC     LPO12    LPD     -0.319000        0.0000           -1   0.00000   0.00000
     13739 HOAC     75       HOAC     LPO21    LPD     -0.285000        0.0000           -1   0.00000   0.00000
     13740 HOAC     75       HOAC     LPO22    LPD     -0.285000        0.0000           -1   0.00000   0.00000
     13741 HOAC     76       HOAC     C1       CD2O3A   3.554200       11.6110           0   -1.20700   0.708000
     13742 HOAC     76       HOAC     DC1      DRUD    -2.696200        0.4000           0   0.00000   0.00000
     13743 HOAC     76       HOAC     C2       CD33C    3.268200       11.6110           0   -2.11400   0.750000
     13744 HOAC     76       HOAC     DC2      DRUD    -3.568200        0.4000           0   0.00000   0.00000
     13745 HOAC     76       HOAC     H1       HDA3A    0.092000        1.0080           0   0.00000   0.00000
     13746 HOAC     76       HOAC     H2       HDA3A    0.092000        1.0080           0   0.00000   0.00000
     13747 HOAC     76       HOAC     H3       HDA3A    0.092000        1.0080           0   0.00000   0.00000
     13748 HOAC     76       HOAC     O1       OD2C3A   2.356500       15.5994           0   -0.922000   1.53900
     13749 HOAC     76       HOAC     DO1      DRUD    -2.356500        0.4000           0   0.00000   0.00000
     13750 HOAC     76       HOAC     O2       OD31F    2.776500       15.5990           0   -1.28000   1.12400
     13751 HOAC     76       HOAC     DO2      DRUD    -2.776500        0.4000           0   0.00000   0.00000
     13752 HOAC     76       HOAC     H        HDP1A    0.374000        1.0080           0   0.00000   0.00000
     13753 HOAC     76       HOAC     LPO11    LPD     -0.319000        0.0000           -1   0.00000   0.00000
     13754 HOAC     76       HOAC     LPO12    LPD     -0.319000        0.0000           -1   0.00000   0.00000
     13755 HOAC     76       HOAC     LPO21    LPD     -0.285000        0.0000           -1   0.00000   0.00000
     13756 HOAC     76       HOAC     LPO22    LPD     -0.285000        0.0000           -1   0.00000   0.00000
     13757 HOAC     77       HOAC     C1       CD2O3A   3.554200       11.6110           0   -1.20700   0.708000
     13758 HOAC     77       HOAC     DC1      DRUD    -2.696200        0.4000           0   0.00000   0.00000
     13759 HOAC     77       HOAC     C2       CD33C    3.268200       11.6110           0   -2.11400   0.750000
     13760 HOAC     77       HOAC     DC2      DRUD    -3.568200        0.4000           0   0.00000   0.00000
     13761 HOAC     77       HOAC     H1       HDA3A    0.092000        1.0080           0   0.00000   0.00000
     13762 HOAC     77       HOAC     H2       HDA3A    0.092000        1.0080           0   0.00000   0.00000
     13763 HOAC     77       HOAC     H3       HDA3A    0.092000        1.0080           0   0.00000   0.00000
     13764 HOAC     77       HOAC     O1       OD2C3A   2.356500       15.5994           0   -0.922000   1.53900
     13765 HOAC     77       HOAC     DO1      DRUD    -2.356500        0.4000           0   0.00000   0.00000
     13766 HOAC     77       HOAC     O2       OD31F    2.776500       15.5990           0   -1.28000   1.12400
     13767 HOAC     77       HOAC     DO2      DRUD    -2.776500        0.4000           0   0.00000   0.00000
     13768 HOAC     77       HOAC     H        HDP1A    0.374000        1.0080           0   0.00000   0.00000
     13769 HOAC     77       HOAC     LPO11    LPD     -0.319000        0.0000           -1   0.00000   0.00000
     13770 HOAC     77       HOAC     LPO12    LPD     -0.319000        0.0000           -1   0.00000   0.00000
     13771 HOAC     77       HOAC     LPO21    LPD     -0.285000        0.0000           -1   0.00000   0.00000
     13772 HOAC     77       HOAC     LPO22    LPD     -0.285000        0.0000           -1   0.00000   0.00000
     13773 HOAC     78       HOAC     C1       CD2O3A   3.554200       11.6110           0   -1.20700   0.708000
     13774 HOAC     78       HOAC     DC1      DRUD    -2.696200        0.4000           0   0.00000   0.00000
     13775 HOAC     78       HOAC     C2       CD33C    3.268200       11.6110           0   -2.11400   0.750000
     13776 HOAC     78       HOAC     DC2      DRUD    -3.568200        0.4000           0   0.00000   0.00000
     13777 HOAC     78       HOAC     H1       HDA3A    0.092000        1.0080           0   0.00000   0.00000
     13778 HOAC     78       HOAC     H2       HDA3A    0.092000        1.0080           0   0.00000   0.00000
     13779 HOAC     78       HOAC     H3       HDA3A    0.092000        1.0080           0   0.00000   0.00000
     13780 HOAC     78       HOAC     O1       OD2C3A   2.356500       15.5994           0   -0.922000   1.53900
     13781 HOAC     78       HOAC     DO1      DRUD    -2.356500        0.4000           0   0.00000   0.00000
     13782 HOAC     78       HOAC     O2       OD31F    2.776500       15.5990           0   -1.28000   1.12400
     13783 HOAC     78       HOAC     DO2      DRUD    -2.776500        0.4000           0   0.00000   0.00000
     13784 HOAC     78       HOAC     H        HDP1A    0.374000        1.0080           0   0.00000   0.00000
     13785 HOAC     78       HOAC     LPO11    LPD     -0.319000        0.0000           -1   0.00000   0.00000
     13786 HOAC     78       HOAC     LPO12    LPD     -0.319000        0.0000           -1   0.00000   0.00000
     13787 HOAC     78       HOAC     LPO21    LPD     -0.285000        0.0000           -1   0.00000   0.00000
     13788 HOAC     78       HOAC     LPO22    LPD     -0.285000        0.0000           -1   0.00000   0.00000
     13789 HOAC     79       HOAC     C1       CD2O3A   3.554200       11.6110           0   -1.20700   0.708000
     13790 HOAC     79       HOAC     DC1      DRUD    -2.696200        0.4000           0   0.00000   0.00000
     13791 HOAC     79       HOAC     C2       CD33C    3.268200       11.6110           0   -2.11400   0.750000
     13792 HOAC     79       HOAC     DC2      DRUD    -3.568200        0.4000           0   0.00000   0.00000
     13793 HOAC     79       HOAC     H1       HDA3A    0.092000        1.0080           0   0.00000   0.00000
     13794 HOAC     79       HOAC     H2       HDA3A    0.092000        1.0080           0   0.00000   0.00000
     13795 HOAC     79       HOAC     H3       HDA3A    0.092000        1.0080           0   0.00000   0.00000
     13796 HOAC     79       HOAC     O1       OD2C3A   2.356500       15.5994           0   -0.922000   1.53900
     13797 HOAC     79       HOAC     DO1      DRUD    -2.356500        0.4000           0   0.00000   0.00000
     13798 HOAC     79       HOAC     O2       OD31F    2.776500       15.5990           0   -1.28000   1.12400
     13799 HOAC     79       HOAC     DO2      DRUD    -2.776500        0.4000           0   0.00000   0.00000
     13800 HOAC     79       HOAC     H        HDP1A    0.374000        1.0080           0   0.00000   0.00000
     13801 HOAC     79       HOAC     LPO11    LPD     -0.319000        0.0000           -1   0.00000   0.00000
     13802 HOAC     79       HOAC     LPO12    LPD     -0.319000        0.0000           -1   0.00000   0.00000
     13803 HOAC     79       HOAC     LPO21    LPD     -0.285000        0.0000           -1   0.00000   0.00000
     13804 HOAC     79       HOAC     LPO22    LPD     -0.285000        0.0000           -1   0.00000   0.00000
     13805 HOAC     80       HOAC     C1       CD2O3A   3.554200       11.6110           0   -1.20700   0.708000
     13806 HOAC     80       HOAC     DC1      DRUD    -2.696200        0.4000           0   0.00000   0.00000
     13807 HOAC     80       HOAC     C2       CD33C    3.268200       11.6110           0   -2.11400   0.750000
     13808 HOAC     80       HOAC     DC2      DRUD    -3.568200        0.4000           0   0.00000   0.00000
     13809 HOAC     80       HOAC     H1       HDA3A    0.092000        1.0080           0   0.00000   0.00000
     13810 HOAC     80       HOAC     H2       HDA3A    0.092000        1.0080           0   0.00000   0.00000
     13811 HOAC     80       HOAC     H3       HDA3A    0.092000        1.0080           0   0.00000   0.00000
     13812 HOAC     80       HOAC     O1       OD2C3A   2.356500       15.5994           0   -0.922000   1.53900
     13813 HOAC     80       HOAC     DO1      DRUD    -2.356500        0.4000           0   0.00000   0.00000
     13814 HOAC     80       HOAC     O2       OD31F    2.776500       15.5990           0   -1.28000   1.12400
     13815 HOAC     80       HOAC     DO2      DRUD    -2.776500        0.4000           0   0.00000   0.00000
     13816 HOAC     80       HOAC     H        HDP1A    0.374000        1.0080           0   0.00000   0.00000
     13817 HOAC     80       HOAC     LPO11    LPD     -0.319000        0.0000           -1   0.00000   0.00000
     13818 HOAC     80       HOAC     LPO12    LPD     -0.319000        0.0000           -1   0.00000   0.00000
     13819 HOAC     80       HOAC     LPO21    LPD     -0.285000        0.0000           -1   0.00000   0.00000
     13820 HOAC     80       HOAC     LPO22    LPD     -0.285000        0.0000           -1   0.00000   0.00000
     13821 HOAC     81       HOAC     C1       CD2O3A   3.554200       11.6110           0   -1.20700   0.708000
     13822 HOAC     81       HOAC     DC1      DRUD    -2.696200        0.4000           0   0.00000   0.00000
     13823 HOAC     81       HOAC     C2       CD33C    3.268200       11.6110           0   -2.11400   0.750000
     13824 HOAC     81       HOAC     DC2      DRUD    -3.568200        0.4000           0   0.00000   0.00000
     13825 HOAC     81       HOAC     H1       HDA3A    0.092000        1.0080           0   0.00000   0.00000
     13826 HOAC     81       HOAC     H2       HDA3A    0.092000        1.0080           0   0.00000   0.00000
     13827 HOAC     81       HOAC     H3       HDA3A    0.092000        1.0080           0   0.00000   0.00000
     13828 HOAC     81       HOAC     O1       OD2C3A   2.356500       15.5994           0   -0.922000   1.53900
     13829 HOAC     81       HOAC     DO1      DRUD    -2.356500        0.4000           0   0.00000   0.00000
     13830 HOAC     81       HOAC     O2       OD31F    2.776500       15.5990           0   -1.28000   1.12400
     13831 HOAC     81       HOAC     DO2      DRUD    -2.776500        0.4000           0   0.00000   0.00000
     13832 HOAC     81       HOAC     H        HDP1A    0.374000        1.0080           0   0.00000   0.00000
     13833 HOAC     81       HOAC     LPO11    LPD     -0.319000        0.0000           -1   0.00000   0.00000
     13834 HOAC     81       HOAC     LPO12    LPD     -0.319000        0.0000           -1   0.00000   0.00000
     13835 HOAC     81       HOAC     LPO21    LPD     -0.285000        0.0000           -1   0.00000   0.00000
     13836 HOAC     81       HOAC     LPO22    LPD     -0.285000        0.0000           -1   0.00000   0.00000
     13837 HOAC     82       HOAC     C1       CD2O3A   3.554200       11.6110           0   -1.20700   0.708000
     13838 HOAC     82       HOAC     DC1      DRUD    -2.696200        0.4000           0   0.00000   0.00000
     13839 HOAC     82       HOAC     C2       CD33C    3.268200       11.6110           0   -2.11400   0.750000
     13840 HOAC     82       HOAC     DC2      DRUD    -3.568200        0.4000           0   0.00000   0.00000
     13841 HOAC     82       HOAC     H1       HDA3A    0.092000        1.0080           0   0.00000   0.00000
     13842 HOAC     82       HOAC     H2       HDA3A    0.092000        1.0080           0   0.00000   0.00000
     13843 HOAC     82       HOAC     H3       HDA3A    0.092000        1.0080           0   0.00000   0.00000
     13844 HOAC     82       HOAC     O1       OD2C3A   2.356500       15.5994           0   -0.922000   1.53900
     13845 HOAC     82       HOAC     DO1      DRUD    -2.356500        0.4000           0   0.00000   0.00000
     13846 HOAC     82       HOAC     O2       OD31F    2.776500       15.5990           0   -1.28000   1.12400
     13847 HOAC     82       HOAC     DO2      DRUD    -2.776500        0.4000           0   0.00000   0.00000
     13848 HOAC     82       HOAC     H        HDP1A    0.374000        1.0080           0   0.00000   0.00000
     13849 HOAC     82       HOAC     LPO11    LPD     -0.319000        0.0000           -1   0.00000   0.00000
     13850 HOAC     82       HOAC     LPO12    LPD     -0.319000        0.0000           -1   0.00000   0.00000
     13851 HOAC     82       HOAC     LPO21    LPD     -0.285000        0.0000           -1   0.00000   0.00000
     13852 HOAC     82       HOAC     LPO22    LPD     -0.285000        0.0000           -1   0.00000   0.00000
     13853 HOAC     83       HOAC     C1       CD2O3A   3.554200       11.6110           0   -1.20700   0.708000
     13854 HOAC     83       HOAC     DC1      DRUD    -2.696200        0.4000           0   0.00000   0.00000
     13855 HOAC     83       HOAC     C2       CD33C    3.268200       11.6110           0   -2.11400   0.750000
     13856 HOAC     83       HOAC     DC2      DRUD    -3.568200        0.4000           0   0.00000   0.00000
     13857 HOAC     83       HOAC     H1       HDA3A    0.092000        1.0080           0   0.00000   0.00000
     13858 HOAC     83       HOAC     H2       HDA3A    0.092000        1.0080           0   0.00000   0.00000
     13859 HOAC     83       HOAC     H3       HDA3A    0.092000        1.0080           0   0.00000   0.00000
     13860 HOAC     83       HOAC     O1       OD2C3A   2.356500       15.5994           0   -0.922000   1.53900
     13861 HOAC     83       HOAC     DO1      DRUD    -2.356500        0.4000           0   0.00000   0.00000
     13862 HOAC     83       HOAC     O2       OD31F    2.776500       15.5990           0   -1.28000   1.12400
     13863 HOAC     83       HOAC     DO2      DRUD    -2.776500        0.4000           0   0.00000   0.00000
     13864 HOAC     83       HOAC     H        HDP1A    0.374000        1.0080           0   0.00000   0.00000
     13865 HOAC     83       HOAC     LPO11    LPD     -0.319000        0.0000           -1   0.00000   0.00000
     13866 HOAC     83       HOAC     LPO12    LPD     -0.319000        0.0000           -1   0.00000   0.00000
     13867 HOAC     83       HOAC     LPO21    LPD     -0.285000        0.0000           -1   0.00000   0.00000
     13868 HOAC     83       HOAC     LPO22    LPD     -0.285000        0.0000           -1   0.00000   0.00000
     13869 HOAC     84       HOAC     C1       CD2O3A   3.554200       11.6110           0   -1.20700   0.708000
     13870 HOAC     84       HOAC     DC1      DRUD    -2.696200        0.4000           0   0.00000   0.00000
     13871 HOAC     84       HOAC     C2       CD33C    3.268200       11.6110           0   -2.11400   0.750000
     13872 HOAC     84       HOAC     DC2      DRUD    -3.568200        0.4000           0   0.00000   0.00000
     13873 HOAC     84       HOAC     H1       HDA3A    0.092000        1.0080           0   0.00000   0.00000
     13874 HOAC     84       HOAC     H2       HDA3A    0.092000        1.0080           0   0.00000   0.00000
     13875 HOAC     84       HOAC     H3       HDA3A    0.092000        1.0080           0   0.00000   0.00000
     13876 HOAC     84       HOAC     O1       OD2C3A   2.356500       15.5994           0   -0.922000   1.53900
     13877 HOAC     84       HOAC     DO1      DRUD    -2.356500        0.4000           0   0.00000   0.00000
     13878 HOAC     84       HOAC     O2       OD31F    2.776500       15.5990           0   -1.28000   1.12400
     13879 HOAC     84       HOAC     DO2      DRUD    -2.776500        0.4000           0   0.00000   0.00000
     13880 HOAC     84       HOAC     H        HDP1A    0.374000        1.0080           0   0.00000   0.00000
     13881 HOAC     84       HOAC     LPO11    LPD     -0.319000        0.0000           -1   0.00000   0.00000
     13882 HOAC     84       HOAC     LPO12    LPD     -0.319000        0.0000           -1   0.00000   0.00000
     13883 HOAC     84       HOAC     LPO21    LPD     -0.285000        0.0000           -1   0.00000   0.00000
     13884 HOAC     84       HOAC     LPO22    LPD     -0.285000        0.0000           -1   0.00000   0.00000
     13885 HOAC     85       HOAC     C1       CD2O3A   3.554200       11.6110           0   -1.20700   0.708000
     13886 HOAC     85       HOAC     DC1      DRUD    -2.696200        0.4000           0   0.00000   0.00000
     13887 HOAC     85       HOAC     C2       CD33C    3.268200       11.6110           0   -2.11400   0.750000
     13888 HOAC     85       HOAC     DC2      DRUD    -3.568200        0.4000           0   0.00000   0.00000
     13889 HOAC     85       HOAC     H1       HDA3A    0.092000        1.0080           0   0.00000   0.00000
     13890 HOAC     85       HOAC     H2       HDA3A    0.092000        1.0080           0   0.00000   0.00000
     13891 HOAC     85       HOAC     H3       HDA3A    0.092000        1.0080           0   0.00000   0.00000
     13892 HOAC     85       HOAC     O1       OD2C3A   2.356500       15.5994           0   -0.922000   1.53900
     13893 HOAC     85       HOAC     DO1      DRUD    -2.356500        0.4000           0   0.00000   0.00000
     13894 HOAC     85       HOAC     O2       OD31F    2.776500       15.5990           0   -1.28000   1.12400
     13895 HOAC     85       HOAC     DO2      DRUD    -2.776500        0.4000           0   0.00000   0.00000
     13896 HOAC     85       HOAC     H        HDP1A    0.374000        1.0080           0   0.00000   0.00000
     13897 HOAC     85       HOAC     LPO11    LPD     -0.319000        0.0000           -1   0.00000   0.00000
     13898 HOAC     85       HOAC     LPO12    LPD     -0.319000        0.0000           -1   0.00000   0.00000
     13899 HOAC     85       HOAC     LPO21    LPD     -0.285000        0.0000           -1   0.00000   0.00000
     13900 HOAC     85       HOAC     LPO22    LPD     -0.285000        0.0000           -1   0.00000   0.00000
     13901 HOAC     86       HOAC     C1       CD2O3A   3.554200       11.6110           0   -1.20700   0.708000
     13902 HOAC     86       HOAC     DC1      DRUD    -2.696200        0.4000           0   0.00000   0.00000
     13903 HOAC     86       HOAC     C2       CD33C    3.268200       11.6110           0   -2.11400   0.750000
     13904 HOAC     86       HOAC     DC2      DRUD    -3.568200        0.4000           0   0.00000   0.00000
     13905 HOAC     86       HOAC     H1       HDA3A    0.092000        1.0080           0   0.00000   0.00000
     13906 HOAC     86       HOAC     H2       HDA3A    0.092000        1.0080           0   0.00000   0.00000
     13907 HOAC     86       HOAC     H3       HDA3A    0.092000        1.0080           0   0.00000   0.00000
     13908 HOAC     86       HOAC     O1       OD2C3A   2.356500       15.5994           0   -0.922000   1.53900
     13909 HOAC     86       HOAC     DO1      DRUD    -2.356500        0.4000           0   0.00000   0.00000
     13910 HOAC     86       HOAC     O2       OD31F    2.776500       15.5990           0   -1.28000   1.12400
     13911 HOAC     86       HOAC     DO2      DRUD    -2.776500        0.4000           0   0.00000   0.00000
     13912 HOAC     86       HOAC     H        HDP1A    0.374000        1.0080           0   0.00000   0.00000
     13913 HOAC     86       HOAC     LPO11    LPD     -0.319000        0.0000           -1   0.00000   0.00000
     13914 HOAC     86       HOAC     LPO12    LPD     -0.319000        0.0000           -1   0.00000   0.00000
     13915 HOAC     86       HOAC     LPO21    LPD     -0.285000        0.0000           -1   0.00000   0.00000
     13916 HOAC     86       HOAC     LPO22    LPD     -0.285000        0.0000           -1   0.00000   0.00000
     13917 HOAC     87       HOAC     C1       CD2O3A   3.554200       11.6110           0   -1.20700   0.708000
     13918 HOAC     87       HOAC     DC1      DRUD    -2.696200        0.4000           0   0.00000   0.00000
     13919 HOAC     87       HOAC     C2       CD33C    3.268200       11.6110           0   -2.11400   0.750000
     13920 HOAC     87       HOAC     DC2      DRUD    -3.568200        0.4000           0   0.00000   0.00000
     13921 HOAC     87       HOAC     H1       HDA3A    0.092000        1.0080           0   0.00000   0.00000
     13922 HOAC     87       HOAC     H2       HDA3A    0.092000        1.0080           0   0.00000   0.00000
     13923 HOAC     87       HOAC     H3       HDA3A    0.092000        1.0080           0   0.00000   0.00000
     13924 HOAC     87       HOAC     O1       OD2C3A   2.356500       15.5994           0   -0.922000   1.53900
     13925 HOAC     87       HOAC     DO1      DRUD    -2.356500        0.4000           0   0.00000   0.00000
     13926 HOAC     87       HOAC     O2       OD31F    2.776500       15.5990           0   -1.28000   1.12400
     13927 HOAC     87       HOAC     DO2      DRUD    -2.776500        0.4000           0   0.00000   0.00000
     13928 HOAC     87       HOAC     H        HDP1A    0.374000        1.0080           0   0.00000   0.00000
     13929 HOAC     87       HOAC     LPO11    LPD     -0.319000        0.0000           -1   0.00000   0.00000
     13930 HOAC     87       HOAC     LPO12    LPD     -0.319000        0.0000           -1   0.00000   0.00000
     13931 HOAC     87       HOAC     LPO21    LPD     -0.285000        0.0000           -1   0.00000   0.00000
     13932 HOAC     87       HOAC     LPO22    LPD     -0.285000        0.0000           -1   0.00000   0.00000
     13933 HOAC     88       HOAC     C1       CD2O3A   3.554200       11.6110           0   -1.20700   0.708000
     13934 HOAC     88       HOAC     DC1      DRUD    -2.696200        0.4000           0   0.00000   0.00000
     13935 HOAC     88       HOAC     C2       CD33C    3.268200       11.6110           0   -2.11400   0.750000
     13936 HOAC     88       HOAC     DC2      DRUD    -3.568200        0.4000           0   0.00000   0.00000
     13937 HOAC     88       HOAC     H1       HDA3A    0.092000        1.0080           0   0.00000   0.00000
     13938 HOAC     88       HOAC     H2       HDA3A    0.092000        1.0080           0   0.00000   0.00000
     13939 HOAC     88       HOAC     H3       HDA3A    0.092000        1.0080           0   0.00000   0.00000
     13940 HOAC     88       HOAC     O1       OD2C3A   2.356500       15.5994           0   -0.922000   1.53900
     13941 HOAC     88       HOAC     DO1      DRUD    -2.356500        0.4000           0   0.00000   0.00000
     13942 HOAC     88       HOAC     O2       OD31F    2.776500       15.5990           0   -1.28000   1.12400
     13943 HOAC     88       HOAC     DO2      DRUD    -2.776500        0.4000           0   0.00000   0.00000
     13944 HOAC     88       HOAC     H        HDP1A    0.374000        1.0080           0   0.00000   0.00000
     13945 HOAC     88       HOAC     LPO11    LPD     -0.319000        0.0000           -1   0.00000   0.00000
     13946 HOAC     88       HOAC     LPO12    LPD     -0.319000        0.0000           -1   0.00000   0.00000
     13947 HOAC     88       HOAC     LPO21    LPD     -0.285000        0.0000           -1   0.00000   0.00000
     13948 HOAC     88       HOAC     LPO22    LPD     -0.285000        0.0000           -1   0.00000   0.00000
     13949 HOAC     89       HOAC     C1       CD2O3A   3.554200       11.6110           0   -1.20700   0.708000
     13950 HOAC     89       HOAC     DC1      DRUD    -2.696200        0.4000           0   0.00000   0.00000
     13951 HOAC     89       HOAC     C2       CD33C    3.268200       11.6110           0   -2.11400   0.750000
     13952 HOAC     89       HOAC     DC2      DRUD    -3.568200        0.4000           0   0.00000   0.00000
     13953 HOAC     89       HOAC     H1       HDA3A    0.092000        1.0080           0   0.00000   0.00000
     13954 HOAC     89       HOAC     H2       HDA3A    0.092000        1.0080           0   0.00000   0.00000
     13955 HOAC     89       HOAC     H3       HDA3A    0.092000        1.0080           0   0.00000   0.00000
     13956 HOAC     89       HOAC     O1       OD2C3A   2.356500       15.5994           0   -0.922000   1.53900
     13957 HOAC     89       HOAC     DO1      DRUD    -2.356500        0.4000           0   0.00000   0.00000
     13958 HOAC     89       HOAC     O2       OD31F    2.776500       15.5990           0   -1.28000   1.12400
     13959 HOAC     89       HOAC     DO2      DRUD    -2.776500        0.4000           0   0.00000   0.00000
     13960 HOAC     89       HOAC     H        HDP1A    0.374000        1.0080           0   0.00000   0.00000
     13961 HOAC     89       HOAC     LPO11    LPD     -0.319000        0.0000           -1   0.00000   0.00000
     13962 HOAC     89       HOAC     LPO12    LPD     -0.319000        0.0000           -1   0.00000   0.00000
     13963 HOAC     89       HOAC     LPO21    LPD     -0.285000        0.0000           -1   0.00000   0.00000
     13964 HOAC     89       HOAC     LPO22    LPD     -0.285000        0.0000           -1   0.00000   0.00000
     13965 HOAC     90       HOAC     C1       CD2O3A   3.554200       11.6110           0   -1.20700   0.708000
     13966 HOAC     90       HOAC     DC1      DRUD    -2.696200        0.4000           0   0.00000   0.00000
     13967 HOAC     90       HOAC     C2       CD33C    3.268200       11.6110           0   -2.11400   0.750000
     13968 HOAC     90       HOAC     DC2      DRUD    -3.568200        0.4000           0   0.00000   0.00000
     13969 HOAC     90       HOAC     H1       HDA3A    0.092000        1.0080           0   0.00000   0.00000
     13970 HOAC     90       HOAC     H2       HDA3A    0.092000        1.0080           0   0.00000   0.00000
     13971 HOAC     90       HOAC     H3       HDA3A    0.092000        1.0080           0   0.00000   0.00000
     13972 HOAC     90       HOAC     O1       OD2C3A   2.356500       15.5994           0   -0.922000   1.53900
     13973 HOAC     90       HOAC     DO1      DRUD    -2.356500        0.4000           0   0.00000   0.00000
     13974 HOAC     90       HOAC     O2       OD31F    2.776500       15.5990           0   -1.28000   1.12400
     13975 HOAC     90       HOAC     DO2      DRUD    -2.776500        0.4000           0   0.00000   0.00000
     13976 HOAC     90       HOAC     H        HDP1A    0.374000        1.0080           0   0.00000   0.00000
     13977 HOAC     90       HOAC     LPO11    LPD     -0.319000        0.0000           -1   0.00000   0.00000
     13978 HOAC     90       HOAC     LPO12    LPD     -0.319000        0.0000           -1   0.00000   0.00000
     13979 HOAC     90       HOAC     LPO21    LPD     -0.285000        0.0000           -1   0.00000   0.00000
     13980 HOAC     90       HOAC     LPO22    LPD     -0.285000        0.0000           -1   0.00000   0.00000
     13981 HOAC     91       HOAC     C1       CD2O3A   3.554200       11.6110           0   -1.20700   0.708000
     13982 HOAC     91       HOAC     DC1      DRUD    -2.696200        0.4000           0   0.00000   0.00000
     13983 HOAC     91       HOAC     C2       CD33C    3.268200       11.6110           0   -2.11400   0.750000
     13984 HOAC     91       HOAC     DC2      DRUD    -3.568200        0.4000           0   0.00000   0.00000
     13985 HOAC     91       HOAC     H1       HDA3A    0.092000        1.0080           0   0.00000   0.00000
     13986 HOAC     91       HOAC     H2       HDA3A    0.092000        1.0080           0   0.00000   0.00000
     13987 HOAC     91       HOAC     H3       HDA3A    0.092000        1.0080           0   0.00000   0.00000
     13988 HOAC     91       HOAC     O1       OD2C3A   2.356500       15.5994           0   -0.922000   1.53900
     13989 HOAC     91       HOAC     DO1      DRUD    -2.356500        0.4000           0   0.00000   0.00000
     13990 HOAC     91       HOAC     O2       OD31F    2.776500       15.5990           0   -1.28000   1.12400
     13991 HOAC     91       HOAC     DO2      DRUD    -2.776500        0.4000           0   0.00000   0.00000
     13992 HOAC     91       HOAC     H        HDP1A    0.374000        1.0080           0   0.00000   0.00000
     13993 HOAC     91       HOAC     LPO11    LPD     -0.319000        0.0000           -1   0.00000   0.00000
     13994 HOAC     91       HOAC     LPO12    LPD     -0.319000        0.0000           -1   0.00000   0.00000
     13995 HOAC     91       HOAC     LPO21    LPD     -0.285000        0.0000           -1   0.00000   0.00000
     13996 HOAC     91       HOAC     LPO22    LPD     -0.285000        0.0000           -1   0.00000   0.00000
     13997 HOAC     92       HOAC     C1       CD2O3A   3.554200       11.6110           0   -1.20700   0.708000
     13998 HOAC     92       HOAC     DC1      DRUD    -2.696200        0.4000           0   0.00000   0.00000
     13999 HOAC     92       HOAC     C2       CD33C    3.268200       11.6110           0   -2.11400   0.750000
     14000 HOAC     92       HOAC     DC2      DRUD    -3.568200        0.4000           0   0.00000   0.00000
     14001 HOAC     92       HOAC     H1       HDA3A    0.092000        1.0080           0   0.00000   0.00000
     14002 HOAC     92       HOAC     H2       HDA3A    0.092000        1.0080           0   0.00000   0.00000
     14003 HOAC     92       HOAC     H3       HDA3A    0.092000        1.0080           0   0.00000   0.00000
     14004 HOAC     92       HOAC     O1       OD2C3A   2.356500       15.5994           0   -0.922000   1.53900
     14005 HOAC     92       HOAC     DO1      DRUD    -2.356500        0.4000           0   0.00000   0.00000
     14006 HOAC     92       HOAC     O2       OD31F    2.776500       15.5990           0   -1.28000   1.12400
     14007 HOAC     92       HOAC     DO2      DRUD    -2.776500        0.4000           0   0.00000   0.00000
     14008 HOAC     92       HOAC     H        HDP1A    0.374000        1.0080           0   0.00000   0.00000
     14009 HOAC     92       HOAC     LPO11    LPD     -0.319000        0.0000           -1   0.00000   0.00000
     14010 HOAC     92       HOAC     LPO12    LPD     -0.319000        0.0000           -1   0.00000   0.00000
     14011 HOAC     92       HOAC     LPO21    LPD     -0.285000        0.0000           -1   0.00000   0.00000
     14012 HOAC     92       HOAC     LPO22    LPD     -0.285000        0.0000           -1   0.00000   0.00000
     14013 HOAC     93       HOAC     C1       CD2O3A   3.554200       11.6110           0   -1.20700   0.708000
     14014 HOAC     93       HOAC     DC1      DRUD    -2.696200        0.4000           0   0.00000   0.00000
     14015 HOAC     93       HOAC     C2       CD33C    3.268200       11.6110           0   -2.11400   0.750000
     14016 HOAC     93       HOAC     DC2      DRUD    -3.568200        0.4000           0   0.00000   0.00000
     14017 HOAC     93       HOAC     H1       HDA3A    0.092000        1.0080           0   0.00000   0.00000
     14018 HOAC     93       HOAC     H2       HDA3A    0.092000        1.0080           0   0.00000   0.00000
     14019 HOAC     93       HOAC     H3       HDA3A    0.092000        1.0080           0   0.00000   0.00000
     14020 HOAC     93       HOAC     O1       OD2C3A   2.356500       15.5994           0   -0.922000   1.53900
     14021 HOAC     93       HOAC     DO1      DRUD    -2.356500        0.4000           0   0.00000   0.00000
     14022 HOAC     93       HOAC     O2       OD31F    2.776500       15.5990           0   -1.28000   1.12400
     14023 HOAC     93       HOAC     DO2      DRUD    -2.776500        0.4000           0   0.00000   0.00000
     14024 HOAC     93       HOAC     H        HDP1A    0.374000        1.0080           0   0.00000   0.00000
     14025 HOAC     93       HOAC     LPO11    LPD     -0.319000        0.0000           -1   0.00000   0.00000
     14026 HOAC     93       HOAC     LPO12    LPD     -0.319000        0.0000           -1   0.00000   0.00000
     14027 HOAC     93       HOAC     LPO21    LPD     -0.285000        0.0000           -1   0.00000   0.00000
     14028 HOAC     93       HOAC     LPO22    LPD     -0.285000        0.0000           -1   0.00000   0.00000
     14029 HOAC     94       HOAC     C1       CD2O3A   3.554200       11.6110           0   -1.20700   0.708000
     14030 HOAC     94       HOAC     DC1      DRUD    -2.696200        0.4000           0   0.00000   0.00000
     14031 HOAC     94       HOAC     C2       CD33C    3.268200       11.6110           0   -2.11400   0.750000
     14032 HOAC     94       HOAC     DC2      DRUD    -3.568200        0.4000           0   0.00000   0.00000
     14033 HOAC     94       HOAC     H1       HDA3A    0.092000        1.0080           0   0.00000   0.00000
     14034 HOAC     94       HOAC     H2       HDA3A    0.092000        1.0080           0   0.00000   0.00000
     14035 HOAC     94       HOAC     H3       HDA3A    0.092000        1.0080           0   0.00000   0.00000
     14036 HOAC     94       HOAC     O1       OD2C3A   2.356500       15.5994           0   -0.922000   1.53900
     14037 HOAC     94       HOAC     DO1      DRUD    -2.356500        0.4000           0   0.00000   0.00000
     14038 HOAC     94       HOAC     O2       OD31F    2.776500       15.5990           0   -1.28000   1.12400
     14039 HOAC     94       HOAC     DO2      DRUD    -2.776500        0.4000           0   0.00000   0.00000
     14040 HOAC     94       HOAC     H        HDP1A    0.374000        1.0080           0   0.00000   0.00000
     14041 HOAC     94       HOAC     LPO11    LPD     -0.319000        0.0000           -1   0.00000   0.00000
     14042 HOAC     94       HOAC     LPO12    LPD     -0.319000        0.0000           -1   0.00000   0.00000
     14043 HOAC     94       HOAC     LPO21    LPD     -0.285000        0.0000           -1   0.00000   0.00000
     14044 HOAC     94       HOAC     LPO22    LPD     -0.285000        0.0000           -1   0.00000   0.00000
     14045 HOAC     95       HOAC     C1       CD2O3A   3.554200       11.6110           0   -1.20700   0.708000
     14046 HOAC     95       HOAC     DC1      DRUD    -2.696200        0.4000           0   0.00000   0.00000
     14047 HOAC     95       HOAC     C2       CD33C    3.268200       11.6110           0   -2.11400   0.750000
     14048 HOAC     95       HOAC     DC2      DRUD    -3.568200        0.4000           0   0.00000   0.00000
     14049 HOAC     95       HOAC     H1       HDA3A    0.092000        1.0080           0   0.00000   0.00000
     14050 HOAC     95       HOAC     H2       HDA3A    0.092000        1.0080           0   0.00000   0.00000
     14051 HOAC     95       HOAC     H3       HDA3A    0.092000        1.0080           0   0.00000   0.00000
     14052 HOAC     95       HOAC     O1       OD2C3A   2.356500       15.5994           0   -0.922000   1.53900
     14053 HOAC     95       HOAC     DO1      DRUD    -2.356500        0.4000           0   0.00000   0.00000
     14054 HOAC     95       HOAC     O2       OD31F    2.776500       15.5990           0   -1.28000   1.12400
     14055 HOAC     95       HOAC     DO2      DRUD    -2.776500        0.4000           0   0.00000   0.00000
     14056 HOAC     95       HOAC     H        HDP1A    0.374000        1.0080           0   0.00000   0.00000
     14057 HOAC     95       HOAC     LPO11    LPD     -0.319000        0.0000           -1   0.00000   0.00000
     14058 HOAC     95       HOAC     LPO12    LPD     -0.319000        0.0000           -1   0.00000   0.00000
     14059 HOAC     95       HOAC     LPO21    LPD     -0.285000        0.0000           -1   0.00000   0.00000
     14060 HOAC     95       HOAC     LPO22    LPD     -0.285000        0.0000           -1   0.00000   0.00000
     14061 HOAC     96       HOAC     C1       CD2O3A   3.554200       11.6110           0   -1.20700   0.708000
     14062 HOAC     96       HOAC     DC1      DRUD    -2.696200        0.4000           0   0.00000   0.00000
     14063 HOAC     96       HOAC     C2       CD33C    3.268200       11.6110           0   -2.11400   0.750000
     14064 HOAC     96       HOAC     DC2      DRUD    -3.568200        0.4000           0   0.00000   0.00000
     14065 HOAC     96       HOAC     H1       HDA3A    0.092000        1.0080           0   0.00000   0.00000
     14066 HOAC     96       HOAC     H2       HDA3A    0.092000        1.0080           0   0.00000   0.00000
     14067 HOAC     96       HOAC     H3       HDA3A    0.092000        1.0080           0   0.00000   0.00000
     14068 HOAC     96       HOAC     O1       OD2C3A   2.356500       15.5994           0   -0.922000   1.53900
     14069 HOAC     96       HOAC     DO1      DRUD    -2.356500        0.4000           0   0.00000   0.00000
     14070 HOAC     96       HOAC     O2       OD31F    2.776500       15.5990           0   -1.28000   1.12400
     14071 HOAC     96       HOAC     DO2      DRUD    -2.776500        0.4000           0   0.00000   0.00000
     14072 HOAC     96       HOAC     H        HDP1A    0.374000        1.0080           0   0.00000   0.00000
     14073 HOAC     96       HOAC     LPO11    LPD     -0.319000        0.0000           -1   0.00000   0.00000
     14074 HOAC     96       HOAC     LPO12    LPD     -0.319000        0.0000           -1   0.00000   0.00000
     14075 HOAC     96       HOAC     LPO21    LPD     -0.285000        0.0000           -1   0.00000   0.00000
     14076 HOAC     96       HOAC     LPO22    LPD     -0.285000        0.0000           -1   0.00000   0.00000
     14077 HOAC     97       HOAC     C1       CD2O3A   3.554200       11.6110           0   -1.20700   0.708000
     14078 HOAC     97       HOAC     DC1      DRUD    -2.696200        0.4000           0   0.00000   0.00000
     14079 HOAC     97       HOAC     C2       CD33C    3.268200       11.6110           0   -2.11400   0.750000
     14080 HOAC     97       HOAC     DC2      DRUD    -3.568200        0.4000           0   0.00000   0.00000
     14081 HOAC     97       HOAC     H1       HDA3A    0.092000        1.0080           0   0.00000   0.00000
     14082 HOAC     97       HOAC     H2       HDA3A    0.092000        1.0080           0   0.00000   0.00000
     14083 HOAC     97       HOAC     H3       HDA3A    0.092000        1.0080           0   0.00000   0.00000
     14084 HOAC     97       HOAC     O1       OD2C3A   2.356500       15.5994           0   -0.922000   1.53900
     14085 HOAC     97       HOAC     DO1      DRUD    -2.356500        0.4000           0   0.00000   0.00000
     14086 HOAC     97       HOAC     O2       OD31F    2.776500       15.5990           0   -1.28000   1.12400
     14087 HOAC     97       HOAC     DO2      DRUD    -2.776500        0.4000           0   0.00000   0.00000
     14088 HOAC     97       HOAC     H        HDP1A    0.374000        1.0080           0   0.00000   0.00000
     14089 HOAC     97       HOAC     LPO11    LPD     -0.319000        0.0000           -1   0.00000   0.00000
     14090 HOAC     97       HOAC     LPO12    LPD     -0.319000        0.0000           -1   0.00000   0.00000
     14091 HOAC     97       HOAC     LPO21    LPD     -0.285000        0.0000           -1   0.00000   0.00000
     14092 HOAC     97       HOAC     LPO22    LPD     -0.285000        0.0000           -1   0.00000   0.00000
     14093 HOAC     98       HOAC     C1       CD2O3A   3.554200       11.6110           0   -1.20700   0.708000
     14094 HOAC     98       HOAC     DC1      DRUD    -2.696200        0.4000           0   0.00000   0.00000
     14095 HOAC     98       HOAC     C2       CD33C    3.268200       11.6110           0   -2.11400   0.750000
     14096 HOAC     98       HOAC     DC2      DRUD    -3.568200        0.4000           0   0.00000   0.00000
     14097 HOAC     98       HOAC     H1       HDA3A    0.092000        1.0080           0   0.00000   0.00000
     14098 HOAC     98       HOAC     H2       HDA3A    0.092000        1.0080           0   0.00000   0.00000
     14099 HOAC     98       HOAC     H3       HDA3A    0.092000        1.0080           0   0.00000   0.00000
     14100 HOAC     98       HOAC     O1       OD2C3A   2.356500       15.5994           0   -0.922000   1.53900
     14101 HOAC     98       HOAC     DO1      DRUD    -2.356500        0.4000           0   0.00000   0.00000
     14102 HOAC     98       HOAC     O2       OD31F    2.776500       15.5990           0   -1.28000   1.12400
     14103 HOAC     98       HOAC     DO2      DRUD    -2.776500        0.4000           0   0.00000   0.00000
     14104 HOAC     98       HOAC     H        HDP1A    0.374000        1.0080           0   0.00000   0.00000
     14105 HOAC     98       HOAC     LPO11    LPD     -0.319000        0.0000           -1   0.00000   0.00000
     14106 HOAC     98       HOAC     LPO12    LPD     -0.319000        0.0000           -1   0.00000   0.00000
     14107 HOAC     98       HOAC     LPO21    LPD     -0.285000        0.0000           -1   0.00000   0.00000
     14108 HOAC     98       HOAC     LPO22    LPD     -0.285000        0.0000           -1   0.00000   0.00000
     14109 HOAC     99       HOAC     C1       CD2O3A   3.554200       11.6110           0   -1.20700   0.708000
     14110 HOAC     99       HOAC     DC1      DRUD    -2.696200        0.4000           0   0.00000   0.00000
     14111 HOAC     99       HOAC     C2       CD33C    3.268200       11.6110           0   -2.11400   0.750000
     14112 HOAC     99       HOAC     DC2      DRUD    -3.568200        0.4000           0   0.00000   0.00000
     14113 HOAC     99       HOAC     H1       HDA3A    0.092000        1.0080           0   0.00000   0.00000
     14114 HOAC     99       HOAC     H2       HDA3A    0.092000        1.0080           0   0.00000   0.00000
     14115 HOAC     99       HOAC     H3       HDA3A    0.092000        1.0080           0   0.00000   0.00000
     14116 HOAC     99       HOAC     O1       OD2C3A   2.356500       15.5994           0   -0.922000   1.53900
     14117 HOAC     99       HOAC     DO1      DRUD    -2.356500        0.4000           0   0.00000   0.00000
     14118 HOAC     99       HOAC     O2       OD31F    2.776500       15.5990           0   -1.28000   1.12400
     14119 HOAC     99       HOAC     DO2      DRUD    -2.776500        0.4000           0   0.00000   0.00000
     14120 HOAC     99       HOAC     H        HDP1A    0.374000        1.0080           0   0.00000   0.00000
     14121 HOAC     99       HOAC     LPO11    LPD     -0.319000        0.0000           -1   0.00000   0.00000
     14122 HOAC     99       HOAC     LPO12    LPD     -0.319000        0.0000           -1   0.00000   0.00000
     14123 HOAC     99       HOAC     LPO21    LPD     -0.285000        0.0000           -1   0.00000   0.00000
     14124 HOAC     99       HOAC     LPO22    LPD     -0.285000        0.0000           -1   0.00000   0.00000
     14125 HOAC     100      HOAC     C1       CD2O3A   3.554200       11.6110           0   -1.20700   0.708000
     14126 HOAC     100      HOAC     DC1      DRUD    -2.696200        0.4000           0   0.00000   0.00000
     14127 HOAC     100      HOAC     C2       CD33C    3.268200       11.6110           0   -2.11400   0.750000
     14128 HOAC     100      HOAC     DC2      DRUD    -3.568200        0.4000           0   0.00000   0.00000
     14129 HOAC     100      HOAC     H1       HDA3A    0.092000        1.0080           0   0.00000   0.00000
     14130 HOAC     100      HOAC     H2       HDA3A    0.092000        1.0080           0   0.00000   0.00000
     14131 HOAC     100      HOAC     H3       HDA3A    0.092000        1.0080           0   0.00000   0.00000
     14132 HOAC     100      HOAC     O1       OD2C3A   2.356500       15.5994           0   -0.922000   1.53900
     14133 HOAC     100      HOAC     DO1      DRUD    -2.356500        0.4000           0   0.00000   0.00000
     14134 HOAC     100      HOAC     O2       OD31F    2.776500       15.5990           0   -1.28000   1.12400
     14135 HOAC     100      HOAC     DO2      DRUD    -2.776500        0.4000           0   0.00000   0.00000
     14136 HOAC     100      HOAC     H        HDP1A    0.374000        1.0080           0   0.00000   0.00000
     14137 HOAC     100      HOAC     LPO11    LPD     -0.319000        0.0000           -1   0.00000   0.00000
     14138 HOAC     100      HOAC     LPO12    LPD     -0.319000        0.0000           -1   0.00000   0.00000
     14139 HOAC     100      HOAC     LPO21    LPD     -0.285000        0.0000           -1   0.00000   0.00000
     14140 HOAC     100      HOAC     LPO22    LPD     -0.285000        0.0000           -1   0.00000   0.00000
     14141 HOAC     101      HOAC     C1       CD2O3A   3.554200       11.6110           0   -1.20700   0.708000
     14142 HOAC     101      HOAC     DC1      DRUD    -2.696200        0.4000           0   0.00000   0.00000
     14143 HOAC     101      HOAC     C2       CD33C    3.268200       11.6110           0   -2.11400   0.750000
     14144 HOAC     101      HOAC     DC2      DRUD    -3.568200        0.4000           0   0.00000   0.00000
     14145 HOAC     101      HOAC     H1       HDA3A    0.092000        1.0080           0   0.00000   0.00000
     14146 HOAC     101      HOAC     H2       HDA3A    0.092000        1.0080           0   0.00000   0.00000
     14147 HOAC     101      HOAC     H3       HDA3A    0.092000        1.0080           0   0.00000   0.00000
     14148 HOAC     101      HOAC     O1       OD2C3A   2.356500       15.5994           0   -0.922000   1.53900
     14149 HOAC     101      HOAC     DO1      DRUD    -2.356500        0.4000           0   0.00000   0.00000
     14150 HOAC     101      HOAC     O2       OD31F    2.776500       15.5990           0   -1.28000   1.12400
     14151 HOAC     101      HOAC     DO2      DRUD    -2.776500        0.4000           0   0.00000   0.00000
     14152 HOAC     101      HOAC     H        HDP1A    0.374000        1.0080           0   0.00000   0.00000
     14153 HOAC     101      HOAC     LPO11    LPD     -0.319000        0.0000           -1   0.00000   0.00000
     14154 HOAC     101      HOAC     LPO12    LPD     -0.319000        0.0000           -1   0.00000   0.00000
     14155 HOAC     101      HOAC     LPO21    LPD     -0.285000        0.0000           -1   0.00000   0.00000
     14156 HOAC     101      HOAC     LPO22    LPD     -0.285000        0.0000           -1   0.00000   0.00000
     14157 HOAC     102      HOAC     C1       CD2O3A   3.554200       11.6110           0   -1.20700   0.708000
     14158 HOAC     102      HOAC     DC1      DRUD    -2.696200        0.4000           0   0.00000   0.00000
     14159 HOAC     102      HOAC     C2       CD33C    3.268200       11.6110           0   -2.11400   0.750000
     14160 HOAC     102      HOAC     DC2      DRUD    -3.568200        0.4000           0   0.00000   0.00000
     14161 HOAC     102      HOAC     H1       HDA3A    0.092000        1.0080           0   0.00000   0.00000
     14162 HOAC     102      HOAC     H2       HDA3A    0.092000        1.0080           0   0.00000   0.00000
     14163 HOAC     102      HOAC     H3       HDA3A    0.092000        1.0080           0   0.00000   0.00000
     14164 HOAC     102      HOAC     O1       OD2C3A   2.356500       15.5994           0   -0.922000   1.53900
     14165 HOAC     102      HOAC     DO1      DRUD    -2.356500        0.4000           0   0.00000   0.00000
     14166 HOAC     102      HOAC     O2       OD31F    2.776500       15.5990           0   -1.28000   1.12400
     14167 HOAC     102      HOAC     DO2      DRUD    -2.776500        0.4000           0   0.00000   0.00000
     14168 HOAC     102      HOAC     H        HDP1A    0.374000        1.0080           0   0.00000   0.00000
     14169 HOAC     102      HOAC     LPO11    LPD     -0.319000        0.0000           -1   0.00000   0.00000
     14170 HOAC     102      HOAC     LPO12    LPD     -0.319000        0.0000           -1   0.00000   0.00000
     14171 HOAC     102      HOAC     LPO21    LPD     -0.285000        0.0000           -1   0.00000   0.00000
     14172 HOAC     102      HOAC     LPO22    LPD     -0.285000        0.0000           -1   0.00000   0.00000
     14173 HOAC     103      HOAC     C1       CD2O3A   3.554200       11.6110           0   -1.20700   0.708000
     14174 HOAC     103      HOAC     DC1      DRUD    -2.696200        0.4000           0   0.00000   0.00000
     14175 HOAC     103      HOAC     C2       CD33C    3.268200       11.6110           0   -2.11400   0.750000
     14176 HOAC     103      HOAC     DC2      DRUD    -3.568200        0.4000           0   0.00000   0.00000
     14177 HOAC     103      HOAC     H1       HDA3A    0.092000        1.0080           0   0.00000   0.00000
     14178 HOAC     103      HOAC     H2       HDA3A    0.092000        1.0080           0   0.00000   0.00000
     14179 HOAC     103      HOAC     H3       HDA3A    0.092000        1.0080           0   0.00000   0.00000
     14180 HOAC     103      HOAC     O1       OD2C3A   2.356500       15.5994           0   -0.922000   1.53900
     14181 HOAC     103      HOAC     DO1      DRUD    -2.356500        0.4000           0   0.00000   0.00000
     14182 HOAC     103      HOAC     O2       OD31F    2.776500       15.5990           0   -1.28000   1.12400
     14183 HOAC     103      HOAC     DO2      DRUD    -2.776500        0.4000           0   0.00000   0.00000
     14184 HOAC     103      HOAC     H        HDP1A    0.374000        1.0080           0   0.00000   0.00000
     14185 HOAC     103      HOAC     LPO11    LPD     -0.319000        0.0000           -1   0.00000   0.00000
     14186 HOAC     103      HOAC     LPO12    LPD     -0.319000        0.0000           -1   0.00000   0.00000
     14187 HOAC     103      HOAC     LPO21    LPD     -0.285000        0.0000           -1   0.00000   0.00000
     14188 HOAC     103      HOAC     LPO22    LPD     -0.285000        0.0000           -1   0.00000   0.00000
     14189 HOAC     104      HOAC     C1       CD2O3A   3.554200       11.6110           0   -1.20700   0.708000
     14190 HOAC     104      HOAC     DC1      DRUD    -2.696200        0.4000           0   0.00000   0.00000
     14191 HOAC     104      HOAC     C2       CD33C    3.268200       11.6110           0   -2.11400   0.750000
     14192 HOAC     104      HOAC     DC2      DRUD    -3.568200        0.4000           0   0.00000   0.00000
     14193 HOAC     104      HOAC     H1       HDA3A    0.092000        1.0080           0   0.00000   0.00000
     14194 HOAC     104      HOAC     H2       HDA3A    0.092000        1.0080           0   0.00000   0.00000
     14195 HOAC     104      HOAC     H3       HDA3A    0.092000        1.0080           0   0.00000   0.00000
     14196 HOAC     104      HOAC     O1       OD2C3A   2.356500       15.5994           0   -0.922000   1.53900
     14197 HOAC     104      HOAC     DO1      DRUD    -2.356500        0.4000           0   0.00000   0.00000
     14198 HOAC     104      HOAC     O2       OD31F    2.776500       15.5990           0   -1.28000   1.12400
     14199 HOAC     104      HOAC     DO2      DRUD    -2.776500        0.4000           0   0.00000   0.00000
     14200 HOAC     104      HOAC     H        HDP1A    0.374000        1.0080           0   0.00000   0.00000
     14201 HOAC     104      HOAC     LPO11    LPD     -0.319000        0.0000           -1   0.00000   0.00000
     14202 HOAC     104      HOAC     LPO12    LPD     -0.319000        0.0000           -1   0.00000   0.00000
     14203 HOAC     104      HOAC     LPO21    LPD     -0.285000        0.0000           -1   0.00000   0.00000
     14204 HOAC     104      HOAC     LPO22    LPD     -0.285000        0.0000           -1   0.00000   0.00000
     14205 HOAC     105      HOAC     C1       CD2O3A   3.554200       11.6110           0   -1.20700   0.708000
     14206 HOAC     105      HOAC     DC1      DRUD    -2.696200        0.4000           0   0.00000   0.00000
     14207 HOAC     105      HOAC     C2       CD33C    3.268200       11.6110           0   -2.11400   0.750000
     14208 HOAC     105      HOAC     DC2      DRUD    -3.568200        0.4000           0   0.00000   0.00000
     14209 HOAC     105      HOAC     H1       HDA3A    0.092000        1.0080           0   0.00000   0.00000
     14210 HOAC     105      HOAC     H2       HDA3A    0.092000        1.0080           0   0.00000   0.00000
     14211 HOAC     105      HOAC     H3       HDA3A    0.092000        1.0080           0   0.00000   0.00000
     14212 HOAC     105      HOAC     O1       OD2C3A   2.356500       15.5994           0   -0.922000   1.53900
     14213 HOAC     105      HOAC     DO1      DRUD    -2.356500        0.4000           0   0.00000   0.00000
     14214 HOAC     105      HOAC     O2       OD31F    2.776500       15.5990           0   -1.28000   1.12400
     14215 HOAC     105      HOAC     DO2      DRUD    -2.776500        0.4000           0   0.00000   0.00000
     14216 HOAC     105      HOAC     H        HDP1A    0.374000        1.0080           0   0.00000   0.00000
     14217 HOAC     105      HOAC     LPO11    LPD     -0.319000        0.0000           -1   0.00000   0.00000
     14218 HOAC     105      HOAC     LPO12    LPD     -0.319000        0.0000           -1   0.00000   0.00000
     14219 HOAC     105      HOAC     LPO21    LPD     -0.285000        0.0000           -1   0.00000   0.00000
     14220 HOAC     105      HOAC     LPO22    LPD     -0.285000        0.0000           -1   0.00000   0.00000
     14221 HOAC     106      HOAC     C1       CD2O3A   3.554200       11.6110           0   -1.20700   0.708000
     14222 HOAC     106      HOAC     DC1      DRUD    -2.696200        0.4000           0   0.00000   0.00000
     14223 HOAC     106      HOAC     C2       CD33C    3.268200       11.6110           0   -2.11400   0.750000
     14224 HOAC     106      HOAC     DC2      DRUD    -3.568200        0.4000           0   0.00000   0.00000
     14225 HOAC     106      HOAC     H1       HDA3A    0.092000        1.0080           0   0.00000   0.00000
     14226 HOAC     106      HOAC     H2       HDA3A    0.092000        1.0080           0   0.00000   0.00000
     14227 HOAC     106      HOAC     H3       HDA3A    0.092000        1.0080           0   0.00000   0.00000
     14228 HOAC     106      HOAC     O1       OD2C3A   2.356500       15.5994           0   -0.922000   1.53900
     14229 HOAC     106      HOAC     DO1      DRUD    -2.356500        0.4000           0   0.00000   0.00000
     14230 HOAC     106      HOAC     O2       OD31F    2.776500       15.5990           0   -1.28000   1.12400
     14231 HOAC     106      HOAC     DO2      DRUD    -2.776500        0.4000           0   0.00000   0.00000
     14232 HOAC     106      HOAC     H        HDP1A    0.374000        1.0080           0   0.00000   0.00000
     14233 HOAC     106      HOAC     LPO11    LPD     -0.319000        0.0000           -1   0.00000   0.00000
     14234 HOAC     106      HOAC     LPO12    LPD     -0.319000        0.0000           -1   0.00000   0.00000
     14235 HOAC     106      HOAC     LPO21    LPD     -0.285000        0.0000           -1   0.00000   0.00000
     14236 HOAC     106      HOAC     LPO22    LPD     -0.285000        0.0000           -1   0.00000   0.00000
     14237 HOAC     107      HOAC     C1       CD2O3A   3.554200       11.6110           0   -1.20700   0.708000
     14238 HOAC     107      HOAC     DC1      DRUD    -2.696200        0.4000           0   0.00000   0.00000
     14239 HOAC     107      HOAC     C2       CD33C    3.268200       11.6110           0   -2.11400   0.750000
     14240 HOAC     107      HOAC     DC2      DRUD    -3.568200        0.4000           0   0.00000   0.00000
     14241 HOAC     107      HOAC     H1       HDA3A    0.092000        1.0080           0   0.00000   0.00000
     14242 HOAC     107      HOAC     H2       HDA3A    0.092000        1.0080           0   0.00000   0.00000
     14243 HOAC     107      HOAC     H3       HDA3A    0.092000        1.0080           0   0.00000   0.00000
     14244 HOAC     107      HOAC     O1       OD2C3A   2.356500       15.5994           0   -0.922000   1.53900
     14245 HOAC     107      HOAC     DO1      DRUD    -2.356500        0.4000           0   0.00000   0.00000
     14246 HOAC     107      HOAC     O2       OD31F    2.776500       15.5990           0   -1.28000   1.12400
     14247 HOAC     107      HOAC     DO2      DRUD    -2.776500        0.4000           0   0.00000   0.00000
     14248 HOAC     107      HOAC     H        HDP1A    0.374000        1.0080           0   0.00000   0.00000
     14249 HOAC     107      HOAC     LPO11    LPD     -0.319000        0.0000           -1   0.00000   0.00000
     14250 HOAC     107      HOAC     LPO12    LPD     -0.319000        0.0000           -1   0.00000   0.00000
     14251 HOAC     107      HOAC     LPO21    LPD     -0.285000        0.0000           -1   0.00000   0.00000
     14252 HOAC     107      HOAC     LPO22    LPD     -0.285000        0.0000           -1   0.00000   0.00000
     14253 HOAC     108      HOAC     C1       CD2O3A   3.554200       11.6110           0   -1.20700   0.708000
     14254 HOAC     108      HOAC     DC1      DRUD    -2.696200        0.4000           0   0.00000   0.00000
     14255 HOAC     108      HOAC     C2       CD33C    3.268200       11.6110           0   -2.11400   0.750000
     14256 HOAC     108      HOAC     DC2      DRUD    -3.568200        0.4000           0   0.00000   0.00000
     14257 HOAC     108      HOAC     H1       HDA3A    0.092000        1.0080           0   0.00000   0.00000
     14258 HOAC     108      HOAC     H2       HDA3A    0.092000        1.0080           0   0.00000   0.00000
     14259 HOAC     108      HOAC     H3       HDA3A    0.092000        1.0080           0   0.00000   0.00000
     14260 HOAC     108      HOAC     O1       OD2C3A   2.356500       15.5994           0   -0.922000   1.53900
     14261 HOAC     108      HOAC     DO1      DRUD    -2.356500        0.4000           0   0.00000   0.00000
     14262 HOAC     108      HOAC     O2       OD31F    2.776500       15.5990           0   -1.28000   1.12400
     14263 HOAC     108      HOAC     DO2      DRUD    -2.776500        0.4000           0   0.00000   0.00000
     14264 HOAC     108      HOAC     H        HDP1A    0.374000        1.0080           0   0.00000   0.00000
     14265 HOAC     108      HOAC     LPO11    LPD     -0.319000        0.0000           -1   0.00000   0.00000
     14266 HOAC     108      HOAC     LPO12    LPD     -0.319000        0.0000           -1   0.00000   0.00000
     14267 HOAC     108      HOAC     LPO21    LPD     -0.285000        0.0000           -1   0.00000   0.00000
     14268 HOAC     108      HOAC     LPO22    LPD     -0.285000        0.0000           -1   0.00000   0.00000
     14269 HOAC     109      HOAC     C1       CD2O3A   3.554200       11.6110           0   -1.20700   0.708000
     14270 HOAC     109      HOAC     DC1      DRUD    -2.696200        0.4000           0   0.00000   0.00000
     14271 HOAC     109      HOAC     C2       CD33C    3.268200       11.6110           0   -2.11400   0.750000
     14272 HOAC     109      HOAC     DC2      DRUD    -3.568200        0.4000           0   0.00000   0.00000
     14273 HOAC     109      HOAC     H1       HDA3A    0.092000        1.0080           0   0.00000   0.00000
     14274 HOAC     109      HOAC     H2       HDA3A    0.092000        1.0080           0   0.00000   0.00000
     14275 HOAC     109      HOAC     H3       HDA3A    0.092000        1.0080           0   0.00000   0.00000
     14276 HOAC     109      HOAC     O1       OD2C3A   2.356500       15.5994           0   -0.922000   1.53900
     14277 HOAC     109      HOAC     DO1      DRUD    -2.356500        0.4000           0   0.00000   0.00000
     14278 HOAC     109      HOAC     O2       OD31F    2.776500       15.5990           0   -1.28000   1.12400
     14279 HOAC     109      HOAC     DO2      DRUD    -2.776500        0.4000           0   0.00000   0.00000
     14280 HOAC     109      HOAC     H        HDP1A    0.374000        1.0080           0   0.00000   0.00000
     14281 HOAC     109      HOAC     LPO11    LPD     -0.319000        0.0000           -1   0.00000   0.00000
     14282 HOAC     109      HOAC     LPO12    LPD     -0.319000        0.0000           -1   0.00000   0.00000
     14283 HOAC     109      HOAC     LPO21    LPD     -0.285000        0.0000           -1   0.00000   0.00000
     14284 HOAC     109      HOAC     LPO22    LPD     -0.285000        0.0000           -1   0.00000   0.00000
     14285 HOAC     110      HOAC     C1       CD2O3A   3.554200       11.6110           0   -1.20700   0.708000
     14286 HOAC     110      HOAC     DC1      DRUD    -2.696200        0.4000           0   0.00000   0.00000
     14287 HOAC     110      HOAC     C2       CD33C    3.268200       11.6110           0   -2.11400   0.750000
     14288 HOAC     110      HOAC     DC2      DRUD    -3.568200        0.4000           0   0.00000   0.00000
     14289 HOAC     110      HOAC     H1       HDA3A    0.092000        1.0080           0   0.00000   0.00000
     14290 HOAC     110      HOAC     H2       HDA3A    0.092000        1.0080           0   0.00000   0.00000
     14291 HOAC     110      HOAC     H3       HDA3A    0.092000        1.0080           0   0.00000   0.00000
     14292 HOAC     110      HOAC     O1       OD2C3A   2.356500       15.5994           0   -0.922000   1.53900
     14293 HOAC     110      HOAC     DO1      DRUD    -2.356500        0.4000           0   0.00000   0.00000
     14294 HOAC     110      HOAC     O2       OD31F    2.776500       15.5990           0   -1.28000   1.12400
     14295 HOAC     110      HOAC     DO2      DRUD    -2.776500        0.4000           0   0.00000   0.00000
     14296 HOAC     110      HOAC     H        HDP1A    0.374000        1.0080           0   0.00000   0.00000
     14297 HOAC     110      HOAC     LPO11    LPD     -0.319000        0.0000           -1   0.00000   0.00000
     14298 HOAC     110      HOAC     LPO12    LPD     -0.319000        0.0000           -1   0.00000   0.00000
     14299 HOAC     110      HOAC     LPO21    LPD     -0.285000        0.0000           -1   0.00000   0.00000
     14300 HOAC     110      HOAC     LPO22    LPD     -0.285000        0.0000           -1   0.00000   0.00000
     14301 HOAC     111      HOAC     C1       CD2O3A   3.554200       11.6110           0   -1.20700   0.708000
     14302 HOAC     111      HOAC     DC1      DRUD    -2.696200        0.4000           0   0.00000   0.00000
     14303 HOAC     111      HOAC     C2       CD33C    3.268200       11.6110           0   -2.11400   0.750000
     14304 HOAC     111      HOAC     DC2      DRUD    -3.568200        0.4000           0   0.00000   0.00000
     14305 HOAC     111      HOAC     H1       HDA3A    0.092000        1.0080           0   0.00000   0.00000
     14306 HOAC     111      HOAC     H2       HDA3A    0.092000        1.0080           0   0.00000   0.00000
     14307 HOAC     111      HOAC     H3       HDA3A    0.092000        1.0080           0   0.00000   0.00000
     14308 HOAC     111      HOAC     O1       OD2C3A   2.356500       15.5994           0   -0.922000   1.53900
     14309 HOAC     111      HOAC     DO1      DRUD    -2.356500        0.4000           0   0.00000   0.00000
     14310 HOAC     111      HOAC     O2       OD31F    2.776500       15.5990           0   -1.28000   1.12400
     14311 HOAC     111      HOAC     DO2      DRUD    -2.776500        0.4000           0   0.00000   0.00000
     14312 HOAC     111      HOAC     H        HDP1A    0.374000        1.0080           0   0.00000   0.00000
     14313 HOAC     111      HOAC     LPO11    LPD     -0.319000        0.0000           -1   0.00000   0.00000
     14314 HOAC     111      HOAC     LPO12    LPD     -0.319000        0.0000           -1   0.00000   0.00000
     14315 HOAC     111      HOAC     LPO21    LPD     -0.285000        0.0000           -1   0.00000   0.00000
     14316 HOAC     111      HOAC     LPO22    LPD     -0.285000        0.0000           -1   0.00000   0.00000
     14317 HOAC     112      HOAC     C1       CD2O3A   3.554200       11.6110           0   -1.20700   0.708000
     14318 HOAC     112      HOAC     DC1      DRUD    -2.696200        0.4000           0   0.00000   0.00000
     14319 HOAC     112      HOAC     C2       CD33C    3.268200       11.6110           0   -2.11400   0.750000
     14320 HOAC     112      HOAC     DC2      DRUD    -3.568200        0.4000           0   0.00000   0.00000
     14321 HOAC     112      HOAC     H1       HDA3A    0.092000        1.0080           0   0.00000   0.00000
     14322 HOAC     112      HOAC     H2       HDA3A    0.092000        1.0080           0   0.00000   0.00000
     14323 HOAC     112      HOAC     H3       HDA3A    0.092000        1.0080           0   0.00000   0.00000
     14324 HOAC     112      HOAC     O1       OD2C3A   2.356500       15.5994           0   -0.922000   1.53900
     14325 HOAC     112      HOAC     DO1      DRUD    -2.356500        0.4000           0   0.00000   0.00000
     14326 HOAC     112      HOAC     O2       OD31F    2.776500       15.5990           0   -1.28000   1.12400
     14327 HOAC     112      HOAC     DO2      DRUD    -2.776500        0.4000           0   0.00000   0.00000
     14328 HOAC     112      HOAC     H        HDP1A    0.374000        1.0080           0   0.00000   0.00000
     14329 HOAC     112      HOAC     LPO11    LPD     -0.319000        0.0000           -1   0.00000   0.00000
     14330 HOAC     112      HOAC     LPO12    LPD     -0.319000        0.0000           -1   0.00000   0.00000
     14331 HOAC     112      HOAC     LPO21    LPD     -0.285000        0.0000           -1   0.00000   0.00000
     14332 HOAC     112      HOAC     LPO22    LPD     -0.285000        0.0000           -1   0.00000   0.00000
     14333 HOAC     113      HOAC     C1       CD2O3A   3.554200       11.6110           0   -1.20700   0.708000
     14334 HOAC     113      HOAC     DC1      DRUD    -2.696200        0.4000           0   0.00000   0.00000
     14335 HOAC     113      HOAC     C2       CD33C    3.268200       11.6110           0   -2.11400   0.750000
     14336 HOAC     113      HOAC     DC2      DRUD    -3.568200        0.4000           0   0.00000   0.00000
     14337 HOAC     113      HOAC     H1       HDA3A    0.092000        1.0080           0   0.00000   0.00000
     14338 HOAC     113      HOAC     H2       HDA3A    0.092000        1.0080           0   0.00000   0.00000
     14339 HOAC     113      HOAC     H3       HDA3A    0.092000        1.0080           0   0.00000   0.00000
     14340 HOAC     113      HOAC     O1       OD2C3A   2.356500       15.5994           0   -0.922000   1.53900
     14341 HOAC     113      HOAC     DO1      DRUD    -2.356500        0.4000           0   0.00000   0.00000
     14342 HOAC     113      HOAC     O2       OD31F    2.776500       15.5990           0   -1.28000   1.12400
     14343 HOAC     113      HOAC     DO2      DRUD    -2.776500        0.4000           0   0.00000   0.00000
     14344 HOAC     113      HOAC     H        HDP1A    0.374000        1.0080           0   0.00000   0.00000
     14345 HOAC     113      HOAC     LPO11    LPD     -0.319000        0.0000           -1   0.00000   0.00000
     14346 HOAC     113      HOAC     LPO12    LPD     -0.319000        0.0000           -1   0.00000   0.00000
     14347 HOAC     113      HOAC     LPO21    LPD     -0.285000        0.0000           -1   0.00000   0.00000
     14348 HOAC     113      HOAC     LPO22    LPD     -0.285000        0.0000           -1   0.00000   0.00000
     14349 HOAC     114      HOAC     C1       CD2O3A   3.554200       11.6110           0   -1.20700   0.708000
     14350 HOAC     114      HOAC     DC1      DRUD    -2.696200        0.4000           0   0.00000   0.00000
     14351 HOAC     114      HOAC     C2       CD33C    3.268200       11.6110           0   -2.11400   0.750000
     14352 HOAC     114      HOAC     DC2      DRUD    -3.568200        0.4000           0   0.00000   0.00000
     14353 HOAC     114      HOAC     H1       HDA3A    0.092000        1.0080           0   0.00000   0.00000
     14354 HOAC     114      HOAC     H2       HDA3A    0.092000        1.0080           0   0.00000   0.00000
     14355 HOAC     114      HOAC     H3       HDA3A    0.092000        1.0080           0   0.00000   0.00000
     14356 HOAC     114      HOAC     O1       OD2C3A   2.356500       15.5994           0   -0.922000   1.53900
     14357 HOAC     114      HOAC     DO1      DRUD    -2.356500        0.4000           0   0.00000   0.00000
     14358 HOAC     114      HOAC     O2       OD31F    2.776500       15.5990           0   -1.28000   1.12400
     14359 HOAC     114      HOAC     DO2      DRUD    -2.776500        0.4000           0   0.00000   0.00000
     14360 HOAC     114      HOAC     H        HDP1A    0.374000        1.0080           0   0.00000   0.00000
     14361 HOAC     114      HOAC     LPO11    LPD     -0.319000        0.0000           -1   0.00000   0.00000
     14362 HOAC     114      HOAC     LPO12    LPD     -0.319000        0.0000           -1   0.00000   0.00000
     14363 HOAC     114      HOAC     LPO21    LPD     -0.285000        0.0000           -1   0.00000   0.00000
     14364 HOAC     114      HOAC     LPO22    LPD     -0.285000        0.0000           -1   0.00000   0.00000
     14365 HOAC     115      HOAC     C1       CD2O3A   3.554200       11.6110           0   -1.20700   0.708000
     14366 HOAC     115      HOAC     DC1      DRUD    -2.696200        0.4000           0   0.00000   0.00000
     14367 HOAC     115      HOAC     C2       CD33C    3.268200       11.6110           0   -2.11400   0.750000
     14368 HOAC     115      HOAC     DC2      DRUD    -3.568200        0.4000           0   0.00000   0.00000
     14369 HOAC     115      HOAC     H1       HDA3A    0.092000        1.0080           0   0.00000   0.00000
     14370 HOAC     115      HOAC     H2       HDA3A    0.092000        1.0080           0   0.00000   0.00000
     14371 HOAC     115      HOAC     H3       HDA3A    0.092000        1.0080           0   0.00000   0.00000
     14372 HOAC     115      HOAC     O1       OD2C3A   2.356500       15.5994           0   -0.922000   1.53900
     14373 HOAC     115      HOAC     DO1      DRUD    -2.356500        0.4000           0   0.00000   0.00000
     14374 HOAC     115      HOAC     O2       OD31F    2.776500       15.5990           0   -1.28000   1.12400
     14375 HOAC     115      HOAC     DO2      DRUD    -2.776500        0.4000           0   0.00000   0.00000
     14376 HOAC     115      HOAC     H        HDP1A    0.374000        1.0080           0   0.00000   0.00000
     14377 HOAC     115      HOAC     LPO11    LPD     -0.319000        0.0000           -1   0.00000   0.00000
     14378 HOAC     115      HOAC     LPO12    LPD     -0.319000        0.0000           -1   0.00000   0.00000
     14379 HOAC     115      HOAC     LPO21    LPD     -0.285000        0.0000           -1   0.00000   0.00000
     14380 HOAC     115      HOAC     LPO22    LPD     -0.285000        0.0000           -1   0.00000   0.00000
     14381 HOAC     116      HOAC     C1       CD2O3A   3.554200       11.6110           0   -1.20700   0.708000
     14382 HOAC     116      HOAC     DC1      DRUD    -2.696200        0.4000           0   0.00000   0.00000
     14383 HOAC     116      HOAC     C2       CD33C    3.268200       11.6110           0   -2.11400   0.750000
     14384 HOAC     116      HOAC     DC2      DRUD    -3.568200        0.4000           0   0.00000   0.00000
     14385 HOAC     116      HOAC     H1       HDA3A    0.092000        1.0080           0   0.00000   0.00000
     14386 HOAC     116      HOAC     H2       HDA3A    0.092000        1.0080           0   0.00000   0.00000
     14387 HOAC     116      HOAC     H3       HDA3A    0.092000        1.0080           0   0.00000   0.00000
     14388 HOAC     116      HOAC     O1       OD2C3A   2.356500       15.5994           0   -0.922000   1.53900
     14389 HOAC     116      HOAC     DO1      DRUD    -2.356500        0.4000           0   0.00000   0.00000
     14390 HOAC     116      HOAC     O2       OD31F    2.776500       15.5990           0   -1.28000   1.12400
     14391 HOAC     116      HOAC     DO2      DRUD    -2.776500        0.4000           0   0.00000   0.00000
     14392 HOAC     116      HOAC     H        HDP1A    0.374000        1.0080           0   0.00000   0.00000
     14393 HOAC     116      HOAC     LPO11    LPD     -0.319000        0.0000           -1   0.00000   0.00000
     14394 HOAC     116      HOAC     LPO12    LPD     -0.319000        0.0000           -1   0.00000   0.00000
     14395 HOAC     116      HOAC     LPO21    LPD     -0.285000        0.0000           -1   0.00000   0.00000
     14396 HOAC     116      HOAC     LPO22    LPD     -0.285000        0.0000           -1   0.00000   0.00000
     14397 OAC      117      OAC      C1       CD2O2A   3.181700       11.6110           0   -1.01600   0.899000
     14398 OAC      117      OAC      DC1      DRUD    -2.473700        0.4000           0   0.00000   0.00000
     14399 OAC      117      OAC      C2       CD33A    2.987900       11.6110           0   -1.68100   1.41400
     14400 OAC      117      OAC      DC2      DRUD    -3.181900        0.4000           0   0.00000   0.00000
     14401 OAC      117      OAC      H1       HDA3A    0.004000        1.0080           0   0.00000   0.00000
     14402 OAC      117      OAC      H2       HDA3A    0.004000        1.0080           0   0.00000   0.00000
     14403 OAC      117      OAC      H3       HDA3A    0.004000        1.0080           0   0.00000   0.00000
     14404 OAC      117      OAC      O1       OD2C2A   2.054800       15.5994           0   -0.699000   2.39900
     14405 OAC      117      OAC      DO1      DRUD    -2.051800        0.4000           0   0.00000   0.00000
     14406 OAC      117      OAC      O2       OD2C2A   2.054800       15.5990           0   -0.699000   2.39900
     14407 OAC      117      OAC      DO2      DRUD    -2.051800        0.4000           0   0.00000   0.00000
     14408 OAC      117      OAC      H        HDP1A    0.000000        1.0080           0   0.00000   0.00000
     14409 OAC      117      OAC      LPO11    LPD     -0.383000        0.0000           -1   0.00000   0.00000
     14410 OAC      117      OAC      LPO12    LPD     -0.383000        0.0000           -1   0.00000   0.00000
     14411 OAC      117      OAC      LPO21    LPD     -0.383000        0.0000           -1   0.00000   0.00000
     14412 OAC      117      OAC      LPO22    LPD     -0.383000        0.0000           -1   0.00000   0.00000
     14413 HOAC     118      HOAC     C1       CD2O3A   3.554200       11.6110           0   -1.20700   0.708000
     14414 HOAC     118      HOAC     DC1      DRUD    -2.696200        0.4000           0   0.00000   0.00000
     14415 HOAC     118      HOAC     C2       CD33C    3.268200       11.6110           0   -2.11400   0.750000
     14416 HOAC     118      HOAC     DC2      DRUD    -3.568200        0.4000           0   0.00000   0.00000
     14417 HOAC     118      HOAC     H1       HDA3A    0.092000        1.0080           0   0.00000   0.00000
     14418 HOAC     118      HOAC     H2       HDA3A    0.092000        1.0080           0   0.00000   0.00000
     14419 HOAC     118      HOAC     H3       HDA3A    0.092000        1.0080           0   0.00000   0.00000
     14420 HOAC     118      HOAC     O1       OD2C3A   2.356500       15.5994           0   -0.922000   1.53900
     14421 HOAC     118      HOAC     DO1      DRUD    -2.356500        0.4000           0   0.00000   0.00000
     14422 HOAC     118      HOAC     O2       OD31F    2.776500       15.5990           0   -1.28000   1.12400
     14423 HOAC     118      HOAC     DO2      DRUD    -2.776500        0.4000           0   0.00000   0.00000
     14424 HOAC     118      HOAC     H        HDP1A    0.374000        1.0080           0   0.00000   0.00000
     14425 HOAC     118      HOAC     LPO11    LPD     -0.319000        0.0000           -1   0.00000   0.00000
     14426 HOAC     118      HOAC     LPO12    LPD     -0.319000        0.0000           -1   0.00000   0.00000
     14427 HOAC     118      HOAC     LPO21    LPD     -0.285000        0.0000           -1   0.00000   0.00000
     14428 HOAC     118      HOAC     LPO22    LPD     -0.285000        0.0000           -1   0.00000   0.00000
     14429 HOAC     119      HOAC     C1       CD2O3A   3.554200       11.6110           0   -1.20700   0.708000
     14430 HOAC     119      HOAC     DC1      DRUD    -2.696200        0.4000           0   0.00000   0.00000
     14431 HOAC     119      HOAC     C2       CD33C    3.268200       11.6110           0   -2.11400   0.750000
     14432 HOAC     119      HOAC     DC2      DRUD    -3.568200        0.4000           0   0.00000   0.00000
     14433 HOAC     119      HOAC     H1       HDA3A    0.092000        1.0080           0   0.00000   0.00000
     14434 HOAC     119      HOAC     H2       HDA3A    0.092000        1.0080           0   0.00000   0.00000
     14435 HOAC     119      HOAC     H3       HDA3A    0.092000        1.0080           0   0.00000   0.00000
     14436 HOAC     119      HOAC     O1       OD2C3A   2.356500       15.5994           0   -0.922000   1.53900
     14437 HOAC     119      HOAC     DO1      DRUD    -2.356500        0.4000           0   0.00000   0.00000
     14438 HOAC     119      HOAC     O2       OD31F    2.776500       15.5990           0   -1.28000   1.12400
     14439 HOAC     119      HOAC     DO2      DRUD    -2.776500        0.4000           0   0.00000   0.00000
     14440 HOAC     119      HOAC     H        HDP1A    0.374000        1.0080           0   0.00000   0.00000
     14441 HOAC     119      HOAC     LPO11    LPD     -0.319000        0.0000           -1   0.00000   0.00000
     14442 HOAC     119      HOAC     LPO12    LPD     -0.319000        0.0000           -1   0.00000   0.00000
     14443 HOAC     119      HOAC     LPO21    LPD     -0.285000        0.0000           -1   0.00000   0.00000
     14444 HOAC     119      HOAC     LPO22    LPD     -0.285000        0.0000           -1   0.00000   0.00000
     14445 HOAC     120      HOAC     C1       CD2O3A   3.554200       11.6110           0   -1.20700   0.708000
     14446 HOAC     120      HOAC     DC1      DRUD    -2.696200        0.4000           0   0.00000   0.00000
     14447 HOAC     120      HOAC     C2       CD33C    3.268200       11.6110           0   -2.11400   0.750000
     14448 HOAC     120      HOAC     DC2      DRUD    -3.568200        0.4000           0   0.00000   0.00000
     14449 HOAC     120      HOAC     H1       HDA3A    0.092000        1.0080           0   0.00000   0.00000
     14450 HOAC     120      HOAC     H2       HDA3A    0.092000        1.0080           0   0.00000   0.00000
     14451 HOAC     120      HOAC     H3       HDA3A    0.092000        1.0080           0   0.00000   0.00000
     14452 HOAC     120      HOAC     O1       OD2C3A   2.356500       15.5994           0   -0.922000   1.53900
     14453 HOAC     120      HOAC     DO1      DRUD    -2.356500        0.4000           0   0.00000   0.00000
     14454 HOAC     120      HOAC     O2       OD31F    2.776500       15.5990           0   -1.28000   1.12400
     14455 HOAC     120      HOAC     DO2      DRUD    -2.776500        0.4000           0   0.00000   0.00000
     14456 HOAC     120      HOAC     H        HDP1A    0.374000        1.0080           0   0.00000   0.00000
     14457 HOAC     120      HOAC     LPO11    LPD     -0.319000        0.0000           -1   0.00000   0.00000
     14458 HOAC     120      HOAC     LPO12    LPD     -0.319000        0.0000           -1   0.00000   0.00000
     14459 HOAC     120      HOAC     LPO21    LPD     -0.285000        0.0000           -1   0.00000   0.00000
     14460 HOAC     120      HOAC     LPO22    LPD     -0.285000        0.0000           -1   0.00000   0.00000
     14461 HOAC     121      HOAC     C1       CD2O3A   3.554200       11.6110           0   -1.20700   0.708000
     14462 HOAC     121      HOAC     DC1      DRUD    -2.696200        0.4000           0   0.00000   0.00000
     14463 HOAC     121      HOAC     C2       CD33C    3.268200       11.6110           0   -2.11400   0.750000
     14464 HOAC     121      HOAC     DC2      DRUD    -3.568200        0.4000           0   0.00000   0.00000
     14465 HOAC     121      HOAC     H1       HDA3A    0.092000        1.0080           0   0.00000   0.00000
     14466 HOAC     121      HOAC     H2       HDA3A    0.092000        1.0080           0   0.00000   0.00000
     14467 HOAC     121      HOAC     H3       HDA3A    0.092000        1.0080           0   0.00000   0.00000
     14468 HOAC     121      HOAC     O1       OD2C3A   2.356500       15.5994           0   -0.922000   1.53900
     14469 HOAC     121      HOAC     DO1      DRUD    -2.356500        0.4000           0   0.00000   0.00000
     14470 HOAC     121      HOAC     O2       OD31F    2.776500       15.5990           0   -1.28000   1.12400
     14471 HOAC     121      HOAC     DO2      DRUD    -2.776500        0.4000           0   0.00000   0.00000
     14472 HOAC     121      HOAC     H        HDP1A    0.374000        1.0080           0   0.00000   0.00000
     14473 HOAC     121      HOAC     LPO11    LPD     -0.319000        0.0000           -1   0.00000   0.00000
     14474 HOAC     121      HOAC     LPO12    LPD     -0.319000        0.0000           -1   0.00000   0.00000
     14475 HOAC     121      HOAC     LPO21    LPD     -0.285000        0.0000           -1   0.00000   0.00000
     14476 HOAC     121      HOAC     LPO22    LPD     -0.285000        0.0000           -1   0.00000   0.00000
     14477 HOAC     122      HOAC     C1       CD2O3A   3.554200       11.6110           0   -1.20700   0.708000
     14478 HOAC     122      HOAC     DC1      DRUD    -2.696200        0.4000           0   0.00000   0.00000
     14479 HOAC     122      HOAC     C2       CD33C    3.268200       11.6110           0   -2.11400   0.750000
     14480 HOAC     122      HOAC     DC2      DRUD    -3.568200        0.4000           0   0.00000   0.00000
     14481 HOAC     122      HOAC     H1       HDA3A    0.092000        1.0080           0   0.00000   0.00000
     14482 HOAC     122      HOAC     H2       HDA3A    0.092000        1.0080           0   0.00000   0.00000
     14483 HOAC     122      HOAC     H3       HDA3A    0.092000        1.0080           0   0.00000   0.00000
     14484 HOAC     122      HOAC     O1       OD2C3A   2.356500       15.5994           0   -0.922000   1.53900
     14485 HOAC     122      HOAC     DO1      DRUD    -2.356500        0.4000           0   0.00000   0.00000
     14486 HOAC     122      HOAC     O2       OD31F    2.776500       15.5990           0   -1.28000   1.12400
     14487 HOAC     122      HOAC     DO2      DRUD    -2.776500        0.4000           0   0.00000   0.00000
     14488 HOAC     122      HOAC     H        HDP1A    0.374000        1.0080           0   0.00000   0.00000
     14489 HOAC     122      HOAC     LPO11    LPD     -0.319000        0.0000           -1   0.00000   0.00000
     14490 HOAC     122      HOAC     LPO12    LPD     -0.319000        0.0000           -1   0.00000   0.00000
     14491 HOAC     122      HOAC     LPO21    LPD     -0.285000        0.0000           -1   0.00000   0.00000
     14492 HOAC     122      HOAC     LPO22    LPD     -0.285000        0.0000           -1   0.00000   0.00000
     14493 HOAC     123      HOAC     C1       CD2O3A   3.554200       11.6110           0   -1.20700   0.708000
     14494 HOAC     123      HOAC     DC1      DRUD    -2.696200        0.4000           0   0.00000   0.00000
     14495 HOAC     123      HOAC     C2       CD33C    3.268200       11.6110           0   -2.11400   0.750000
     14496 HOAC     123      HOAC     DC2      DRUD    -3.568200        0.4000           0   0.00000   0.00000
     14497 HOAC     123      HOAC     H1       HDA3A    0.092000        1.0080           0   0.00000   0.00000
     14498 HOAC     123      HOAC     H2       HDA3A    0.092000        1.0080           0   0.00000   0.00000
     14499 HOAC     123      HOAC     H3       HDA3A    0.092000        1.0080           0   0.00000   0.00000
     14500 HOAC     123      HOAC     O1       OD2C3A   2.356500       15.5994           0   -0.922000   1.53900
     14501 HOAC     123      HOAC     DO1      DRUD    -2.356500        0.4000           0   0.00000   0.00000
     14502 HOAC     123      HOAC     O2       OD31F    2.776500       15.5990           0   -1.28000   1.12400
     14503 HOAC     123      HOAC     DO2      DRUD    -2.776500        0.4000           0   0.00000   0.00000
     14504 HOAC     123      HOAC     H        HDP1A    0.374000        1.0080           0   0.00000   0.00000
     14505 HOAC     123      HOAC     LPO11    LPD     -0.319000        0.0000           -1   0.00000   0.00000
     14506 HOAC     123      HOAC     LPO12    LPD     -0.319000        0.0000           -1   0.00000   0.00000
     14507 HOAC     123      HOAC     LPO21    LPD     -0.285000        0.0000           -1   0.00000   0.00000
     14508 HOAC     123      HOAC     LPO22    LPD     -0.285000        0.0000           -1   0.00000   0.00000
     14509 HOAC     124      HOAC     C1       CD2O3A   3.554200       11.6110           0   -1.20700   0.708000
     14510 HOAC     124      HOAC     DC1      DRUD    -2.696200        0.4000           0   0.00000   0.00000
     14511 HOAC     124      HOAC     C2       CD33C    3.268200       11.6110           0   -2.11400   0.750000
     14512 HOAC     124      HOAC     DC2      DRUD    -3.568200        0.4000           0   0.00000   0.00000
     14513 HOAC     124      HOAC     H1       HDA3A    0.092000        1.0080           0   0.00000   0.00000
     14514 HOAC     124      HOAC     H2       HDA3A    0.092000        1.0080           0   0.00000   0.00000
     14515 HOAC     124      HOAC     H3       HDA3A    0.092000        1.0080           0   0.00000   0.00000
     14516 HOAC     124      HOAC     O1       OD2C3A   2.356500       15.5994           0   -0.922000   1.53900
     14517 HOAC     124      HOAC     DO1      DRUD    -2.356500        0.4000           0   0.00000   0.00000
     14518 HOAC     124      HOAC     O2       OD31F    2.776500       15.5990           0   -1.28000   1.12400
     14519 HOAC     124      HOAC     DO2      DRUD    -2.776500        0.4000           0   0.00000   0.00000
     14520 HOAC     124      HOAC     H        HDP1A    0.374000        1.0080           0   0.00000   0.00000
     14521 HOAC     124      HOAC     LPO11    LPD     -0.319000        0.0000           -1   0.00000   0.00000
     14522 HOAC     124      HOAC     LPO12    LPD     -0.319000        0.0000           -1   0.00000   0.00000
     14523 HOAC     124      HOAC     LPO21    LPD     -0.285000        0.0000           -1   0.00000   0.00000
     14524 HOAC     124      HOAC     LPO22    LPD     -0.285000        0.0000           -1   0.00000   0.00000
     14525 HOAC     125      HOAC     C1       CD2O3A   3.554200       11.6110           0   -1.20700   0.708000
     14526 HOAC     125      HOAC     DC1      DRUD    -2.696200        0.4000           0   0.00000   0.00000
     14527 HOAC     125      HOAC     C2       CD33C    3.268200       11.6110           0   -2.11400   0.750000
     14528 HOAC     125      HOAC     DC2      DRUD    -3.568200        0.4000           0   0.00000   0.00000
     14529 HOAC     125      HOAC     H1       HDA3A    0.092000        1.0080           0   0.00000   0.00000
     14530 HOAC     125      HOAC     H2       HDA3A    0.092000        1.0080           0   0.00000   0.00000
     14531 HOAC     125      HOAC     H3       HDA3A    0.092000        1.0080           0   0.00000   0.00000
     14532 HOAC     125      HOAC     O1       OD2C3A   2.356500       15.5994           0   -0.922000   1.53900
     14533 HOAC     125      HOAC     DO1      DRUD    -2.356500        0.4000           0   0.00000   0.00000
     14534 HOAC     125      HOAC     O2       OD31F    2.776500       15.5990           0   -1.28000   1.12400
     14535 HOAC     125      HOAC     DO2      DRUD    -2.776500        0.4000           0   0.00000   0.00000
     14536 HOAC     125      HOAC     H        HDP1A    0.374000        1.0080           0   0.00000   0.00000
     14537 HOAC     125      HOAC     LPO11    LPD     -0.319000        0.0000           -1   0.00000   0.00000
     14538 HOAC     125      HOAC     LPO12    LPD     -0.319000        0.0000           -1   0.00000   0.00000
     14539 HOAC     125      HOAC     LPO21    LPD     -0.285000        0.0000           -1   0.00000   0.00000
     14540 HOAC     125      HOAC     LPO22    LPD     -0.285000        0.0000           -1   0.00000   0.00000
     14541 HOAC     126      HOAC     C1       CD2O3A   3.554200       11.6110           0   -1.20700   0.708000
     14542 HOAC     126      HOAC     DC1      DRUD    -2.696200        0.4000           0   0.00000   0.00000
     14543 HOAC     126      HOAC     C2       CD33C    3.268200       11.6110           0   -2.11400   0.750000
     14544 HOAC     126      HOAC     DC2      DRUD    -3.568200        0.4000           0   0.00000   0.00000
     14545 HOAC     126      HOAC     H1       HDA3A    0.092000        1.0080           0   0.00000   0.00000
     14546 HOAC     126      HOAC     H2       HDA3A    0.092000        1.0080           0   0.00000   0.00000
     14547 HOAC     126      HOAC     H3       HDA3A    0.092000        1.0080           0   0.00000   0.00000
     14548 HOAC     126      HOAC     O1       OD2C3A   2.356500       15.5994           0   -0.922000   1.53900
     14549 HOAC     126      HOAC     DO1      DRUD    -2.356500        0.4000           0   0.00000   0.00000
     14550 HOAC     126      HOAC     O2       OD31F    2.776500       15.5990           0   -1.28000   1.12400
     14551 HOAC     126      HOAC     DO2      DRUD    -2.776500        0.4000           0   0.00000   0.00000
     14552 HOAC     126      HOAC     H        HDP1A    0.374000        1.0080           0   0.00000   0.00000
     14553 HOAC     126      HOAC     LPO11    LPD     -0.319000        0.0000           -1   0.00000   0.00000
     14554 HOAC     126      HOAC     LPO12    LPD     -0.319000        0.0000           -1   0.00000   0.00000
     14555 HOAC     126      HOAC     LPO21    LPD     -0.285000        0.0000           -1   0.00000   0.00000
     14556 HOAC     126      HOAC     LPO22    LPD     -0.285000        0.0000           -1   0.00000   0.00000
     14557 HOAC     127      HOAC     C1       CD2O3A   3.554200       11.6110           0   -1.20700   0.708000
     14558 HOAC     127      HOAC     DC1      DRUD    -2.696200        0.4000           0   0.00000   0.00000
     14559 HOAC     127      HOAC     C2       CD33C    3.268200       11.6110           0   -2.11400   0.750000
     14560 HOAC     127      HOAC     DC2      DRUD    -3.568200        0.4000           0   0.00000   0.00000
     14561 HOAC     127      HOAC     H1       HDA3A    0.092000        1.0080           0   0.00000   0.00000
     14562 HOAC     127      HOAC     H2       HDA3A    0.092000        1.0080           0   0.00000   0.00000
     14563 HOAC     127      HOAC     H3       HDA3A    0.092000        1.0080           0   0.00000   0.00000
     14564 HOAC     127      HOAC     O1       OD2C3A   2.356500       15.5994           0   -0.922000   1.53900
     14565 HOAC     127      HOAC     DO1      DRUD    -2.356500        0.4000           0   0.00000   0.00000
     14566 HOAC     127      HOAC     O2       OD31F    2.776500       15.5990           0   -1.28000   1.12400
     14567 HOAC     127      HOAC     DO2      DRUD    -2.776500        0.4000           0   0.00000   0.00000
     14568 HOAC     127      HOAC     H        HDP1A    0.374000        1.0080           0   0.00000   0.00000
     14569 HOAC     127      HOAC     LPO11    LPD     -0.319000        0.0000           -1   0.00000   0.00000
     14570 HOAC     127      HOAC     LPO12    LPD     -0.319000        0.0000           -1   0.00000   0.00000
     14571 HOAC     127      HOAC     LPO21    LPD     -0.285000        0.0000           -1   0.00000   0.00000
     14572 HOAC     127      HOAC     LPO22    LPD     -0.285000        0.0000           -1   0.00000   0.00000
     14573 HOAC     128      HOAC     C1       CD2O3A   3.554200       11.6110           0   -1.20700   0.708000
     14574 HOAC     128      HOAC     DC1      DRUD    -2.696200        0.4000           0   0.00000   0.00000
     14575 HOAC     128      HOAC     C2       CD33C    3.268200       11.6110           0   -2.11400   0.750000
     14576 HOAC     128      HOAC     DC2      DRUD    -3.568200        0.4000           0   0.00000   0.00000
     14577 HOAC     128      HOAC     H1       HDA3A    0.092000        1.0080           0   0.00000   0.00000
     14578 HOAC     128      HOAC     H2       HDA3A    0.092000        1.0080           0   0.00000   0.00000
     14579 HOAC     128      HOAC     H3       HDA3A    0.092000        1.0080           0   0.00000   0.00000
     14580 HOAC     128      HOAC     O1       OD2C3A   2.356500       15.5994           0   -0.922000   1.53900
     14581 HOAC     128      HOAC     DO1      DRUD    -2.356500        0.4000           0   0.00000   0.00000
     14582 HOAC     128      HOAC     O2       OD31F    2.776500       15.5990           0   -1.28000   1.12400
     14583 HOAC     128      HOAC     DO2      DRUD    -2.776500        0.4000           0   0.00000   0.00000
     14584 HOAC     128      HOAC     H        HDP1A    0.374000        1.0080           0   0.00000   0.00000
     14585 HOAC     128      HOAC     LPO11    LPD     -0.319000        0.0000           -1   0.00000   0.00000
     14586 HOAC     128      HOAC     LPO12    LPD     -0.319000        0.0000           -1   0.00000   0.00000
     14587 HOAC     128      HOAC     LPO21    LPD     -0.285000        0.0000           -1   0.00000   0.00000
     14588 HOAC     128      HOAC     LPO22    LPD     -0.285000        0.0000           -1   0.00000   0.00000
     14589 HOAC     129      HOAC     C1       CD2O3A   3.554200       11.6110           0   -1.20700   0.708000
     14590 HOAC     129      HOAC     DC1      DRUD    -2.696200        0.4000           0   0.00000   0.00000
     14591 HOAC     129      HOAC     C2       CD33C    3.268200       11.6110           0   -2.11400   0.750000
     14592 HOAC     129      HOAC     DC2      DRUD    -3.568200        0.4000           0   0.00000   0.00000
     14593 HOAC     129      HOAC     H1       HDA3A    0.092000        1.0080           0   0.00000   0.00000
     14594 HOAC     129      HOAC     H2       HDA3A    0.092000        1.0080           0   0.00000   0.00000
     14595 HOAC     129      HOAC     H3       HDA3A    0.092000        1.0080           0   0.00000   0.00000
     14596 HOAC     129      HOAC     O1       OD2C3A   2.356500       15.5994           0   -0.922000   1.53900
     14597 HOAC     129      HOAC     DO1      DRUD    -2.356500        0.4000           0   0.00000   0.00000
     14598 HOAC     129      HOAC     O2       OD31F    2.776500       15.5990           0   -1.28000   1.12400
     14599 HOAC     129      HOAC     DO2      DRUD    -2.776500        0.4000           0   0.00000   0.00000
     14600 HOAC     129      HOAC     H        HDP1A    0.374000        1.0080           0   0.00000   0.00000
     14601 HOAC     129      HOAC     LPO11    LPD     -0.319000        0.0000           -1   0.00000   0.00000
     14602 HOAC     129      HOAC     LPO12    LPD     -0.319000        0.0000           -1   0.00000   0.00000
     14603 HOAC     129      HOAC     LPO21    LPD     -0.285000        0.0000           -1   0.00000   0.00000
     14604 HOAC     129      HOAC     LPO22    LPD     -0.285000        0.0000           -1   0.00000   0.00000
     14605 HOAC     130      HOAC     C1       CD2O3A   3.554200       11.6110           0   -1.20700   0.708000
     14606 HOAC     130      HOAC     DC1      DRUD    -2.696200        0.4000           0   0.00000   0.00000
     14607 HOAC     130      HOAC     C2       CD33C    3.268200       11.6110           0   -2.11400   0.750000
     14608 HOAC     130      HOAC     DC2      DRUD    -3.568200        0.4000           0   0.00000   0.00000
     14609 HOAC     130      HOAC     H1       HDA3A    0.092000        1.0080           0   0.00000   0.00000
     14610 HOAC     130      HOAC     H2       HDA3A    0.092000        1.0080           0   0.00000   0.00000
     14611 HOAC     130      HOAC     H3       HDA3A    0.092000        1.0080           0   0.00000   0.00000
     14612 HOAC     130      HOAC     O1       OD2C3A   2.356500       15.5994           0   -0.922000   1.53900
     14613 HOAC     130      HOAC     DO1      DRUD    -2.356500        0.4000           0   0.00000   0.00000
     14614 HOAC     130      HOAC     O2       OD31F    2.776500       15.5990           0   -1.28000   1.12400
     14615 HOAC     130      HOAC     DO2      DRUD    -2.776500        0.4000           0   0.00000   0.00000
     14616 HOAC     130      HOAC     H        HDP1A    0.374000        1.0080           0   0.00000   0.00000
     14617 HOAC     130      HOAC     LPO11    LPD     -0.319000        0.0000           -1   0.00000   0.00000
     14618 HOAC     130      HOAC     LPO12    LPD     -0.319000        0.0000           -1   0.00000   0.00000
     14619 HOAC     130      HOAC     LPO21    LPD     -0.285000        0.0000           -1   0.00000   0.00000
     14620 HOAC     130      HOAC     LPO22    LPD     -0.285000        0.0000           -1   0.00000   0.00000
     14621 HOAC     131      HOAC     C1       CD2O3A   3.554200       11.6110           0   -1.20700   0.708000
     14622 HOAC     131      HOAC     DC1      DRUD    -2.696200        0.4000           0   0.00000   0.00000
     14623 HOAC     131      HOAC     C2       CD33C    3.268200       11.6110           0   -2.11400   0.750000
     14624 HOAC     131      HOAC     DC2      DRUD    -3.568200        0.4000           0   0.00000   0.00000
     14625 HOAC     131      HOAC     H1       HDA3A    0.092000        1.0080           0   0.00000   0.00000
     14626 HOAC     131      HOAC     H2       HDA3A    0.092000        1.0080           0   0.00000   0.00000
     14627 HOAC     131      HOAC     H3       HDA3A    0.092000        1.0080           0   0.00000   0.00000
     14628 HOAC     131      HOAC     O1       OD2C3A   2.356500       15.5994           0   -0.922000   1.53900
     14629 HOAC     131      HOAC     DO1      DRUD    -2.356500        0.4000           0   0.00000   0.00000
     14630 HOAC     131      HOAC     O2       OD31F    2.776500       15.5990           0   -1.28000   1.12400
     14631 HOAC     131      HOAC     DO2      DRUD    -2.776500        0.4000           0   0.00000   0.00000
     14632 HOAC     131      HOAC     H        HDP1A    0.374000        1.0080           0   0.00000   0.00000
     14633 HOAC     131      HOAC     LPO11    LPD     -0.319000        0.0000           -1   0.00000   0.00000
     14634 HOAC     131      HOAC     LPO12    LPD     -0.319000        0.0000           -1   0.00000   0.00000
     14635 HOAC     131      HOAC     LPO21    LPD     -0.285000        0.0000           -1   0.00000   0.00000
     14636 HOAC     131      HOAC     LPO22    LPD     -0.285000        0.0000           -1   0.00000   0.00000
     14637 HOAC     132      HOAC     C1       CD2O3A   3.554200       11.6110           0   -1.20700   0.708000
     14638 HOAC     132      HOAC     DC1      DRUD    -2.696200        0.4000           0   0.00000   0.00000
     14639 HOAC     132      HOAC     C2       CD33C    3.268200       11.6110           0   -2.11400   0.750000
     14640 HOAC     132      HOAC     DC2      DRUD    -3.568200        0.4000           0   0.00000   0.00000
     14641 HOAC     132      HOAC     H1       HDA3A    0.092000        1.0080           0   0.00000   0.00000
     14642 HOAC     132      HOAC     H2       HDA3A    0.092000        1.0080           0   0.00000   0.00000
     14643 HOAC     132      HOAC     H3       HDA3A    0.092000        1.0080           0   0.00000   0.00000
     14644 HOAC     132      HOAC     O1       OD2C3A   2.356500       15.5994           0   -0.922000   1.53900
     14645 HOAC     132      HOAC     DO1      DRUD    -2.356500        0.4000           0   0.00000   0.00000
     14646 HOAC     132      HOAC     O2       OD31F    2.776500       15.5990           0   -1.28000   1.12400
     14647 HOAC     132      HOAC     DO2      DRUD    -2.776500        0.4000           0   0.00000   0.00000
     14648 HOAC     132      HOAC     H        HDP1A    0.374000        1.0080           0   0.00000   0.00000
     14649 HOAC     132      HOAC     LPO11    LPD     -0.319000        0.0000           -1   0.00000   0.00000
     14650 HOAC     132      HOAC     LPO12    LPD     -0.319000        0.0000           -1   0.00000   0.00000
     14651 HOAC     132      HOAC     LPO21    LPD     -0.285000        0.0000           -1   0.00000   0.00000
     14652 HOAC     132      HOAC     LPO22    LPD     -0.285000        0.0000           -1   0.00000   0.00000
     14653 HOAC     133      HOAC     C1       CD2O3A   3.554200       11.6110           0   -1.20700   0.708000
     14654 HOAC     133      HOAC     DC1      DRUD    -2.696200        0.4000           0   0.00000   0.00000
     14655 HOAC     133      HOAC     C2       CD33C    3.268200       11.6110           0   -2.11400   0.750000
     14656 HOAC     133      HOAC     DC2      DRUD    -3.568200        0.4000           0   0.00000   0.00000
     14657 HOAC     133      HOAC     H1       HDA3A    0.092000        1.0080           0   0.00000   0.00000
     14658 HOAC     133      HOAC     H2       HDA3A    0.092000        1.0080           0   0.00000   0.00000
     14659 HOAC     133      HOAC     H3       HDA3A    0.092000        1.0080           0   0.00000   0.00000
     14660 HOAC     133      HOAC     O1       OD2C3A   2.356500       15.5994           0   -0.922000   1.53900
     14661 HOAC     133      HOAC     DO1      DRUD    -2.356500        0.4000           0   0.00000   0.00000
     14662 HOAC     133      HOAC     O2       OD31F    2.776500       15.5990           0   -1.28000   1.12400
     14663 HOAC     133      HOAC     DO2      DRUD    -2.776500        0.4000           0   0.00000   0.00000
     14664 HOAC     133      HOAC     H        HDP1A    0.374000        1.0080           0   0.00000   0.00000
     14665 HOAC     133      HOAC     LPO11    LPD     -0.319000        0.0000           -1   0.00000   0.00000
     14666 HOAC     133      HOAC     LPO12    LPD     -0.319000        0.0000           -1   0.00000   0.00000
     14667 HOAC     133      HOAC     LPO21    LPD     -0.285000        0.0000           -1   0.00000   0.00000
     14668 HOAC     133      HOAC     LPO22    LPD     -0.285000        0.0000           -1   0.00000   0.00000
     14669 HOAC     134      HOAC     C1       CD2O3A   3.554200       11.6110           0   -1.20700   0.708000
     14670 HOAC     134      HOAC     DC1      DRUD    -2.696200        0.4000           0   0.00000   0.00000
     14671 HOAC     134      HOAC     C2       CD33C    3.268200       11.6110           0   -2.11400   0.750000
     14672 HOAC     134      HOAC     DC2      DRUD    -3.568200        0.4000           0   0.00000   0.00000
     14673 HOAC     134      HOAC     H1       HDA3A    0.092000        1.0080           0   0.00000   0.00000
     14674 HOAC     134      HOAC     H2       HDA3A    0.092000        1.0080           0   0.00000   0.00000
     14675 HOAC     134      HOAC     H3       HDA3A    0.092000        1.0080           0   0.00000   0.00000
     14676 HOAC     134      HOAC     O1       OD2C3A   2.356500       15.5994           0   -0.922000   1.53900
     14677 HOAC     134      HOAC     DO1      DRUD    -2.356500        0.4000           0   0.00000   0.00000
     14678 HOAC     134      HOAC     O2       OD31F    2.776500       15.5990           0   -1.28000   1.12400
     14679 HOAC     134      HOAC     DO2      DRUD    -2.776500        0.4000           0   0.00000   0.00000
     14680 HOAC     134      HOAC     H        HDP1A    0.374000        1.0080           0   0.00000   0.00000
     14681 HOAC     134      HOAC     LPO11    LPD     -0.319000        0.0000           -1   0.00000   0.00000
     14682 HOAC     134      HOAC     LPO12    LPD     -0.319000        0.0000           -1   0.00000   0.00000
     14683 HOAC     134      HOAC     LPO21    LPD     -0.285000        0.0000           -1   0.00000   0.00000
     14684 HOAC     134      HOAC     LPO22    LPD     -0.285000        0.0000           -1   0.00000   0.00000
     14685 HOAC     135      HOAC     C1       CD2O3A   3.554200       11.6110           0   -1.20700   0.708000
     14686 HOAC     135      HOAC     DC1      DRUD    -2.696200        0.4000           0   0.00000   0.00000
     14687 HOAC     135      HOAC     C2       CD33C    3.268200       11.6110           0   -2.11400   0.750000
     14688 HOAC     135      HOAC     DC2      DRUD    -3.568200        0.4000           0   0.00000   0.00000
     14689 HOAC     135      HOAC     H1       HDA3A    0.092000        1.0080           0   0.00000   0.00000
     14690 HOAC     135      HOAC     H2       HDA3A    0.092000        1.0080           0   0.00000   0.00000
     14691 HOAC     135      HOAC     H3       HDA3A    0.092000        1.0080           0   0.00000   0.00000
     14692 HOAC     135      HOAC     O1       OD2C3A   2.356500       15.5994           0   -0.922000   1.53900
     14693 HOAC     135      HOAC     DO1      DRUD    -2.356500        0.4000           0   0.00000   0.00000
     14694 HOAC     135      HOAC     O2       OD31F    2.776500       15.5990           0   -1.28000   1.12400
     14695 HOAC     135      HOAC     DO2      DRUD    -2.776500        0.4000           0   0.00000   0.00000
     14696 HOAC     135      HOAC     H        HDP1A    0.374000        1.0080           0   0.00000   0.00000
     14697 HOAC     135      HOAC     LPO11    LPD     -0.319000        0.0000           -1   0.00000   0.00000
     14698 HOAC     135      HOAC     LPO12    LPD     -0.319000        0.0000           -1   0.00000   0.00000
     14699 HOAC     135      HOAC     LPO21    LPD     -0.285000        0.0000           -1   0.00000   0.00000
     14700 HOAC     135      HOAC     LPO22    LPD     -0.285000        0.0000           -1   0.00000   0.00000
     14701 HOAC     136      HOAC     C1       CD2O3A   3.554200       11.6110           0   -1.20700   0.708000
     14702 HOAC     136      HOAC     DC1      DRUD    -2.696200        0.4000           0   0.00000   0.00000
     14703 HOAC     136      HOAC     C2       CD33C    3.268200       11.6110           0   -2.11400   0.750000
     14704 HOAC     136      HOAC     DC2      DRUD    -3.568200        0.4000           0   0.00000   0.00000
     14705 HOAC     136      HOAC     H1       HDA3A    0.092000        1.0080           0   0.00000   0.00000
     14706 HOAC     136      HOAC     H2       HDA3A    0.092000        1.0080           0   0.00000   0.00000
     14707 HOAC     136      HOAC     H3       HDA3A    0.092000        1.0080           0   0.00000   0.00000
     14708 HOAC     136      HOAC     O1       OD2C3A   2.356500       15.5994           0   -0.922000   1.53900
     14709 HOAC     136      HOAC     DO1      DRUD    -2.356500        0.4000           0   0.00000   0.00000
     14710 HOAC     136      HOAC     O2       OD31F    2.776500       15.5990           0   -1.28000   1.12400
     14711 HOAC     136      HOAC     DO2      DRUD    -2.776500        0.4000           0   0.00000   0.00000
     14712 HOAC     136      HOAC     H        HDP1A    0.374000        1.0080           0   0.00000   0.00000
     14713 HOAC     136      HOAC     LPO11    LPD     -0.319000        0.0000           -1   0.00000   0.00000
     14714 HOAC     136      HOAC     LPO12    LPD     -0.319000        0.0000           -1   0.00000   0.00000
     14715 HOAC     136      HOAC     LPO21    LPD     -0.285000        0.0000           -1   0.00000   0.00000
     14716 HOAC     136      HOAC     LPO22    LPD     -0.285000        0.0000           -1   0.00000   0.00000
     14717 HOAC     137      HOAC     C1       CD2O3A   3.554200       11.6110           0   -1.20700   0.708000
     14718 HOAC     137      HOAC     DC1      DRUD    -2.696200        0.4000           0   0.00000   0.00000
     14719 HOAC     137      HOAC     C2       CD33C    3.268200       11.6110           0   -2.11400   0.750000
     14720 HOAC     137      HOAC     DC2      DRUD    -3.568200        0.4000           0   0.00000   0.00000
     14721 HOAC     137      HOAC     H1       HDA3A    0.092000        1.0080           0   0.00000   0.00000
     14722 HOAC     137      HOAC     H2       HDA3A    0.092000        1.0080           0   0.00000   0.00000
     14723 HOAC     137      HOAC     H3       HDA3A    0.092000        1.0080           0   0.00000   0.00000
     14724 HOAC     137      HOAC     O1       OD2C3A   2.356500       15.5994           0   -0.922000   1.53900
     14725 HOAC     137      HOAC     DO1      DRUD    -2.356500        0.4000           0   0.00000   0.00000
     14726 HOAC     137      HOAC     O2       OD31F    2.776500       15.5990           0   -1.28000   1.12400
     14727 HOAC     137      HOAC     DO2      DRUD    -2.776500        0.4000           0   0.00000   0.00000
     14728 HOAC     137      HOAC     H        HDP1A    0.374000        1.0080           0   0.00000   0.00000
     14729 HOAC     137      HOAC     LPO11    LPD     -0.319000        0.0000           -1   0.00000   0.00000
     14730 HOAC     137      HOAC     LPO12    LPD     -0.319000        0.0000           -1   0.00000   0.00000
     14731 HOAC     137      HOAC     LPO21    LPD     -0.285000        0.0000           -1   0.00000   0.00000
     14732 HOAC     137      HOAC     LPO22    LPD     -0.285000        0.0000           -1   0.00000   0.00000
     14733 HOAC     138      HOAC     C1       CD2O3A   3.554200       11.6110           0   -1.20700   0.708000
     14734 HOAC     138      HOAC     DC1      DRUD    -2.696200        0.4000           0   0.00000   0.00000
     14735 HOAC     138      HOAC     C2       CD33C    3.268200       11.6110           0   -2.11400   0.750000
     14736 HOAC     138      HOAC     DC2      DRUD    -3.568200        0.4000           0   0.00000   0.00000
     14737 HOAC     138      HOAC     H1       HDA3A    0.092000        1.0080           0   0.00000   0.00000
     14738 HOAC     138      HOAC     H2       HDA3A    0.092000        1.0080           0   0.00000   0.00000
     14739 HOAC     138      HOAC     H3       HDA3A    0.092000        1.0080           0   0.00000   0.00000
     14740 HOAC     138      HOAC     O1       OD2C3A   2.356500       15.5994           0   -0.922000   1.53900
     14741 HOAC     138      HOAC     DO1      DRUD    -2.356500        0.4000           0   0.00000   0.00000
     14742 HOAC     138      HOAC     O2       OD31F    2.776500       15.5990           0   -1.28000   1.12400
     14743 HOAC     138      HOAC     DO2      DRUD    -2.776500        0.4000           0   0.00000   0.00000
     14744 HOAC     138      HOAC     H        HDP1A    0.374000        1.0080           0   0.00000   0.00000
     14745 HOAC     138      HOAC     LPO11    LPD     -0.319000        0.0000           -1   0.00000   0.00000
     14746 HOAC     138      HOAC     LPO12    LPD     -0.319000        0.0000           -1   0.00000   0.00000
     14747 HOAC     138      HOAC     LPO21    LPD     -0.285000        0.0000           -1   0.00000   0.00000
     14748 HOAC     138      HOAC     LPO22    LPD     -0.285000        0.0000           -1   0.00000   0.00000
     14749 HOAC     139      HOAC     C1       CD2O3A   3.554200       11.6110           0   -1.20700   0.708000
     14750 HOAC     139      HOAC     DC1      DRUD    -2.696200        0.4000           0   0.00000   0.00000
     14751 HOAC     139      HOAC     C2       CD33C    3.268200       11.6110           0   -2.11400   0.750000
     14752 HOAC     139      HOAC     DC2      DRUD    -3.568200        0.4000           0   0.00000   0.00000
     14753 HOAC     139      HOAC     H1       HDA3A    0.092000        1.0080           0   0.00000   0.00000
     14754 HOAC     139      HOAC     H2       HDA3A    0.092000        1.0080           0   0.00000   0.00000
     14755 HOAC     139      HOAC     H3       HDA3A    0.092000        1.0080           0   0.00000   0.00000
     14756 HOAC     139      HOAC     O1       OD2C3A   2.356500       15.5994           0   -0.922000   1.53900
     14757 HOAC     139      HOAC     DO1      DRUD    -2.356500        0.4000           0   0.00000   0.00000
     14758 HOAC     139      HOAC     O2       OD31F    2.776500       15.5990           0   -1.28000   1.12400
     14759 HOAC     139      HOAC     DO2      DRUD    -2.776500        0.4000           0   0.00000   0.00000
     14760 HOAC     139      HOAC     H        HDP1A    0.374000        1.0080           0   0.00000   0.00000
     14761 HOAC     139      HOAC     LPO11    LPD     -0.319000        0.0000           -1   0.00000   0.00000
     14762 HOAC     139      HOAC     LPO12    LPD     -0.319000        0.0000           -1   0.00000   0.00000
     14763 HOAC     139      HOAC     LPO21    LPD     -0.285000        0.0000           -1   0.00000   0.00000
     14764 HOAC     139      HOAC     LPO22    LPD     -0.285000        0.0000           -1   0.00000   0.00000
     14765 HOAC     140      HOAC     C1       CD2O3A   3.554200       11.6110           0   -1.20700   0.708000
     14766 HOAC     140      HOAC     DC1      DRUD    -2.696200        0.4000           0   0.00000   0.00000
     14767 HOAC     140      HOAC     C2       CD33C    3.268200       11.6110           0   -2.11400   0.750000
     14768 HOAC     140      HOAC     DC2      DRUD    -3.568200        0.4000           0   0.00000   0.00000
     14769 HOAC     140      HOAC     H1       HDA3A    0.092000        1.0080           0   0.00000   0.00000
     14770 HOAC     140      HOAC     H2       HDA3A    0.092000        1.0080           0   0.00000   0.00000
     14771 HOAC     140      HOAC     H3       HDA3A    0.092000        1.0080           0   0.00000   0.00000
     14772 HOAC     140      HOAC     O1       OD2C3A   2.356500       15.5994           0   -0.922000   1.53900
     14773 HOAC     140      HOAC     DO1      DRUD    -2.356500        0.4000           0   0.00000   0.00000
     14774 HOAC     140      HOAC     O2       OD31F    2.776500       15.5990           0   -1.28000   1.12400
     14775 HOAC     140      HOAC     DO2      DRUD    -2.776500        0.4000           0   0.00000   0.00000
     14776 HOAC     140      HOAC     H        HDP1A    0.374000        1.0080           0   0.00000   0.00000
     14777 HOAC     140      HOAC     LPO11    LPD     -0.319000        0.0000           -1   0.00000   0.00000
     14778 HOAC     140      HOAC     LPO12    LPD     -0.319000        0.0000           -1   0.00000   0.00000
     14779 HOAC     140      HOAC     LPO21    LPD     -0.285000        0.0000           -1   0.00000   0.00000
     14780 HOAC     140      HOAC     LPO22    LPD     -0.285000        0.0000           -1   0.00000   0.00000
     14781 HOAC     141      HOAC     C1       CD2O3A   3.554200       11.6110           0   -1.20700   0.708000
     14782 HOAC     141      HOAC     DC1      DRUD    -2.696200        0.4000           0   0.00000   0.00000
     14783 HOAC     141      HOAC     C2       CD33C    3.268200       11.6110           0   -2.11400   0.750000
     14784 HOAC     141      HOAC     DC2      DRUD    -3.568200        0.4000           0   0.00000   0.00000
     14785 HOAC     141      HOAC     H1       HDA3A    0.092000        1.0080           0   0.00000   0.00000
     14786 HOAC     141      HOAC     H2       HDA3A    0.092000        1.0080           0   0.00000   0.00000
     14787 HOAC     141      HOAC     H3       HDA3A    0.092000        1.0080           0   0.00000   0.00000
     14788 HOAC     141      HOAC     O1       OD2C3A   2.356500       15.5994           0   -0.922000   1.53900
     14789 HOAC     141      HOAC     DO1      DRUD    -2.356500        0.4000           0   0.00000   0.00000
     14790 HOAC     141      HOAC     O2       OD31F    2.776500       15.5990           0   -1.28000   1.12400
     14791 HOAC     141      HOAC     DO2      DRUD    -2.776500        0.4000           0   0.00000   0.00000
     14792 HOAC     141      HOAC     H        HDP1A    0.374000        1.0080           0   0.00000   0.00000
     14793 HOAC     141      HOAC     LPO11    LPD     -0.319000        0.0000           -1   0.00000   0.00000
     14794 HOAC     141      HOAC     LPO12    LPD     -0.319000        0.0000           -1   0.00000   0.00000
     14795 HOAC     141      HOAC     LPO21    LPD     -0.285000        0.0000           -1   0.00000   0.00000
     14796 HOAC     141      HOAC     LPO22    LPD     -0.285000        0.0000           -1   0.00000   0.00000
     14797 HOAC     142      HOAC     C1       CD2O3A   3.554200       11.6110           0   -1.20700   0.708000
     14798 HOAC     142      HOAC     DC1      DRUD    -2.696200        0.4000           0   0.00000   0.00000
     14799 HOAC     142      HOAC     C2       CD33C    3.268200       11.6110           0   -2.11400   0.750000
     14800 HOAC     142      HOAC     DC2      DRUD    -3.568200        0.4000           0   0.00000   0.00000
     14801 HOAC     142      HOAC     H1       HDA3A    0.092000        1.0080           0   0.00000   0.00000
     14802 HOAC     142      HOAC     H2       HDA3A    0.092000        1.0080           0   0.00000   0.00000
     14803 HOAC     142      HOAC     H3       HDA3A    0.092000        1.0080           0   0.00000   0.00000
     14804 HOAC     142      HOAC     O1       OD2C3A   2.356500       15.5994           0   -0.922000   1.53900
     14805 HOAC     142      HOAC     DO1      DRUD    -2.356500        0.4000           0   0.00000   0.00000
     14806 HOAC     142      HOAC     O2       OD31F    2.776500       15.5990           0   -1.28000   1.12400
     14807 HOAC     142      HOAC     DO2      DRUD    -2.776500        0.4000           0   0.00000   0.00000
     14808 HOAC     142      HOAC     H        HDP1A    0.374000        1.0080           0   0.00000   0.00000
     14809 HOAC     142      HOAC     LPO11    LPD     -0.319000        0.0000           -1   0.00000   0.00000
     14810 HOAC     142      HOAC     LPO12    LPD     -0.319000        0.0000           -1   0.00000   0.00000
     14811 HOAC     142      HOAC     LPO21    LPD     -0.285000        0.0000           -1   0.00000   0.00000
     14812 HOAC     142      HOAC     LPO22    LPD     -0.285000        0.0000           -1   0.00000   0.00000
     14813 HOAC     143      HOAC     C1       CD2O3A   3.554200       11.6110           0   -1.20700   0.708000
     14814 HOAC     143      HOAC     DC1      DRUD    -2.696200        0.4000           0   0.00000   0.00000
     14815 HOAC     143      HOAC     C2       CD33C    3.268200       11.6110           0   -2.11400   0.750000
     14816 HOAC     143      HOAC     DC2      DRUD    -3.568200        0.4000           0   0.00000   0.00000
     14817 HOAC     143      HOAC     H1       HDA3A    0.092000        1.0080           0   0.00000   0.00000
     14818 HOAC     143      HOAC     H2       HDA3A    0.092000        1.0080           0   0.00000   0.00000
     14819 HOAC     143      HOAC     H3       HDA3A    0.092000        1.0080           0   0.00000   0.00000
     14820 HOAC     143      HOAC     O1       OD2C3A   2.356500       15.5994           0   -0.922000   1.53900
     14821 HOAC     143      HOAC     DO1      DRUD    -2.356500        0.4000           0   0.00000   0.00000
     14822 HOAC     143      HOAC     O2       OD31F    2.776500       15.5990           0   -1.28000   1.12400
     14823 HOAC     143      HOAC     DO2      DRUD    -2.776500        0.4000           0   0.00000   0.00000
     14824 HOAC     143      HOAC     H        HDP1A    0.374000        1.0080           0   0.00000   0.00000
     14825 HOAC     143      HOAC     LPO11    LPD     -0.319000        0.0000           -1   0.00000   0.00000
     14826 HOAC     143      HOAC     LPO12    LPD     -0.319000        0.0000           -1   0.00000   0.00000
     14827 HOAC     143      HOAC     LPO21    LPD     -0.285000        0.0000           -1   0.00000   0.00000
     14828 HOAC     143      HOAC     LPO22    LPD     -0.285000        0.0000           -1   0.00000   0.00000
     14829 HOAC     144      HOAC     C1       CD2O3A   3.554200       11.6110           0   -1.20700   0.708000
     14830 HOAC     144      HOAC     DC1      DRUD    -2.696200        0.4000           0   0.00000   0.00000
     14831 HOAC     144      HOAC     C2       CD33C    3.268200       11.6110           0   -2.11400   0.750000
     14832 HOAC     144      HOAC     DC2      DRUD    -3.568200        0.4000           0   0.00000   0.00000
     14833 HOAC     144      HOAC     H1       HDA3A    0.092000        1.0080           0   0.00000   0.00000
     14834 HOAC     144      HOAC     H2       HDA3A    0.092000        1.0080           0   0.00000   0.00000
     14835 HOAC     144      HOAC     H3       HDA3A    0.092000        1.0080           0   0.00000   0.00000
     14836 HOAC     144      HOAC     O1       OD2C3A   2.356500       15.5994           0   -0.922000   1.53900
     14837 HOAC     144      HOAC     DO1      DRUD    -2.356500        0.4000           0   0.00000   0.00000
     14838 HOAC     144      HOAC     O2       OD31F    2.776500       15.5990           0   -1.28000   1.12400
     14839 HOAC     144      HOAC     DO2      DRUD    -2.776500        0.4000           0   0.00000   0.00000
     14840 HOAC     144      HOAC     H        HDP1A    0.374000        1.0080           0   0.00000   0.00000
     14841 HOAC     144      HOAC     LPO11    LPD     -0.319000        0.0000           -1   0.00000   0.00000
     14842 HOAC     144      HOAC     LPO12    LPD     -0.319000        0.0000           -1   0.00000   0.00000
     14843 HOAC     144      HOAC     LPO21    LPD     -0.285000        0.0000           -1   0.00000   0.00000
     14844 HOAC     144      HOAC     LPO22    LPD     -0.285000        0.0000           -1   0.00000   0.00000
     14845 HOAC     145      HOAC     C1       CD2O3A   3.554200       11.6110           0   -1.20700   0.708000
     14846 HOAC     145      HOAC     DC1      DRUD    -2.696200        0.4000           0   0.00000   0.00000
     14847 HOAC     145      HOAC     C2       CD33C    3.268200       11.6110           0   -2.11400   0.750000
     14848 HOAC     145      HOAC     DC2      DRUD    -3.568200        0.4000           0   0.00000   0.00000
     14849 HOAC     145      HOAC     H1       HDA3A    0.092000        1.0080           0   0.00000   0.00000
     14850 HOAC     145      HOAC     H2       HDA3A    0.092000        1.0080           0   0.00000   0.00000
     14851 HOAC     145      HOAC     H3       HDA3A    0.092000        1.0080           0   0.00000   0.00000
     14852 HOAC     145      HOAC     O1       OD2C3A   2.356500       15.5994           0   -0.922000   1.53900
     14853 HOAC     145      HOAC     DO1      DRUD    -2.356500        0.4000           0   0.00000   0.00000
     14854 HOAC     145      HOAC     O2       OD31F    2.776500       15.5990           0   -1.28000   1.12400
     14855 HOAC     145      HOAC     DO2      DRUD    -2.776500        0.4000           0   0.00000   0.00000
     14856 HOAC     145      HOAC     H        HDP1A    0.374000        1.0080           0   0.00000   0.00000
     14857 HOAC     145      HOAC     LPO11    LPD     -0.319000        0.0000           -1   0.00000   0.00000
     14858 HOAC     145      HOAC     LPO12    LPD     -0.319000        0.0000           -1   0.00000   0.00000
     14859 HOAC     145      HOAC     LPO21    LPD     -0.285000        0.0000           -1   0.00000   0.00000
     14860 HOAC     145      HOAC     LPO22    LPD     -0.285000        0.0000           -1   0.00000   0.00000
     14861 HOAC     146      HOAC     C1       CD2O3A   3.554200       11.6110           0   -1.20700   0.708000
     14862 HOAC     146      HOAC     DC1      DRUD    -2.696200        0.4000           0   0.00000   0.00000
     14863 HOAC     146      HOAC     C2       CD33C    3.268200       11.6110           0   -2.11400   0.750000
     14864 HOAC     146      HOAC     DC2      DRUD    -3.568200        0.4000           0   0.00000   0.00000
     14865 HOAC     146      HOAC     H1       HDA3A    0.092000        1.0080           0   0.00000   0.00000
     14866 HOAC     146      HOAC     H2       HDA3A    0.092000        1.0080           0   0.00000   0.00000
     14867 HOAC     146      HOAC     H3       HDA3A    0.092000        1.0080           0   0.00000   0.00000
     14868 HOAC     146      HOAC     O1       OD2C3A   2.356500       15.5994           0   -0.922000   1.53900
     14869 HOAC     146      HOAC     DO1      DRUD    -2.356500        0.4000           0   0.00000   0.00000
     14870 HOAC     146      HOAC     O2       OD31F    2.776500       15.5990           0   -1.28000   1.12400
     14871 HOAC     146      HOAC     DO2      DRUD    -2.776500        0.4000           0   0.00000   0.00000
     14872 HOAC     146      HOAC     H        HDP1A    0.374000        1.0080           0   0.00000   0.00000
     14873 HOAC     146      HOAC     LPO11    LPD     -0.319000        0.0000           -1   0.00000   0.00000
     14874 HOAC     146      HOAC     LPO12    LPD     -0.319000        0.0000           -1   0.00000   0.00000
     14875 HOAC     146      HOAC     LPO21    LPD     -0.285000        0.0000           -1   0.00000   0.00000
     14876 HOAC     146      HOAC     LPO22    LPD     -0.285000        0.0000           -1   0.00000   0.00000
     14877 HOAC     147      HOAC     C1       CD2O3A   3.554200       11.6110           0   -1.20700   0.708000
     14878 HOAC     147      HOAC     DC1      DRUD    -2.696200        0.4000           0   0.00000   0.00000
     14879 HOAC     147      HOAC     C2       CD33C    3.268200       11.6110           0   -2.11400   0.750000
     14880 HOAC     147      HOAC     DC2      DRUD    -3.568200        0.4000           0   0.00000   0.00000
     14881 HOAC     147      HOAC     H1       HDA3A    0.092000        1.0080           0   0.00000   0.00000
     14882 HOAC     147      HOAC     H2       HDA3A    0.092000        1.0080           0   0.00000   0.00000
     14883 HOAC     147      HOAC     H3       HDA3A    0.092000        1.0080           0   0.00000   0.00000
     14884 HOAC     147      HOAC     O1       OD2C3A   2.356500       15.5994           0   -0.922000   1.53900
     14885 HOAC     147      HOAC     DO1      DRUD    -2.356500        0.4000           0   0.00000   0.00000
     14886 HOAC     147      HOAC     O2       OD31F    2.776500       15.5990           0   -1.28000   1.12400
     14887 HOAC     147      HOAC     DO2      DRUD    -2.776500        0.4000           0   0.00000   0.00000
     14888 HOAC     147      HOAC     H        HDP1A    0.374000        1.0080           0   0.00000   0.00000
     14889 HOAC     147      HOAC     LPO11    LPD     -0.319000        0.0000           -1   0.00000   0.00000
     14890 HOAC     147      HOAC     LPO12    LPD     -0.319000        0.0000           -1   0.00000   0.00000
     14891 HOAC     147      HOAC     LPO21    LPD     -0.285000        0.0000           -1   0.00000   0.00000
     14892 HOAC     147      HOAC     LPO22    LPD     -0.285000        0.0000           -1   0.00000   0.00000
     14893 HOAC     148      HOAC     C1       CD2O3A   3.554200       11.6110           0   -1.20700   0.708000
     14894 HOAC     148      HOAC     DC1      DRUD    -2.696200        0.4000           0   0.00000   0.00000
     14895 HOAC     148      HOAC     C2       CD33C    3.268200       11.6110           0   -2.11400   0.750000
     14896 HOAC     148      HOAC     DC2      DRUD    -3.568200        0.4000           0   0.00000   0.00000
     14897 HOAC     148      HOAC     H1       HDA3A    0.092000        1.0080           0   0.00000   0.00000
     14898 HOAC     148      HOAC     H2       HDA3A    0.092000        1.0080           0   0.00000   0.00000
     14899 HOAC     148      HOAC     H3       HDA3A    0.092000        1.0080           0   0.00000   0.00000
     14900 HOAC     148      HOAC     O1       OD2C3A   2.356500       15.5994           0   -0.922000   1.53900
     14901 HOAC     148      HOAC     DO1      DRUD    -2.356500        0.4000           0   0.00000   0.00000
     14902 HOAC     148      HOAC     O2       OD31F    2.776500       15.5990           0   -1.28000   1.12400
     14903 HOAC     148      HOAC     DO2      DRUD    -2.776500        0.4000           0   0.00000   0.00000
     14904 HOAC     148      HOAC     H        HDP1A    0.374000        1.0080           0   0.00000   0.00000
     14905 HOAC     148      HOAC     LPO11    LPD     -0.319000        0.0000           -1   0.00000   0.00000
     14906 HOAC     148      HOAC     LPO12    LPD     -0.319000        0.0000           -1   0.00000   0.00000
     14907 HOAC     148      HOAC     LPO21    LPD     -0.285000        0.0000           -1   0.00000   0.00000
     14908 HOAC     148      HOAC     LPO22    LPD     -0.285000        0.0000           -1   0.00000   0.00000
     14909 HOAC     149      HOAC     C1       CD2O3A   3.554200       11.6110           0   -1.20700   0.708000
     14910 HOAC     149      HOAC     DC1      DRUD    -2.696200        0.4000           0   0.00000   0.00000
     14911 HOAC     149      HOAC     C2       CD33C    3.268200       11.6110           0   -2.11400   0.750000
     14912 HOAC     149      HOAC     DC2      DRUD    -3.568200        0.4000           0   0.00000   0.00000
     14913 HOAC     149      HOAC     H1       HDA3A    0.092000        1.0080           0   0.00000   0.00000
     14914 HOAC     149      HOAC     H2       HDA3A    0.092000        1.0080           0   0.00000   0.00000
     14915 HOAC     149      HOAC     H3       HDA3A    0.092000        1.0080           0   0.00000   0.00000
     14916 HOAC     149      HOAC     O1       OD2C3A   2.356500       15.5994           0   -0.922000   1.53900
     14917 HOAC     149      HOAC     DO1      DRUD    -2.356500        0.4000           0   0.00000   0.00000
     14918 HOAC     149      HOAC     O2       OD31F    2.776500       15.5990           0   -1.28000   1.12400
     14919 HOAC     149      HOAC     DO2      DRUD    -2.776500        0.4000           0   0.00000   0.00000
     14920 HOAC     149      HOAC     H        HDP1A    0.374000        1.0080           0   0.00000   0.00000
     14921 HOAC     149      HOAC     LPO11    LPD     -0.319000        0.0000           -1   0.00000   0.00000
     14922 HOAC     149      HOAC     LPO12    LPD     -0.319000        0.0000           -1   0.00000   0.00000
     14923 HOAC     149      HOAC     LPO21    LPD     -0.285000        0.0000           -1   0.00000   0.00000
     14924 HOAC     149      HOAC     LPO22    LPD     -0.285000        0.0000           -1   0.00000   0.00000
     14925 HOAC     150      HOAC     C1       CD2O3A   3.554200       11.6110           0   -1.20700   0.708000
     14926 HOAC     150      HOAC     DC1      DRUD    -2.696200        0.4000           0   0.00000   0.00000
     14927 HOAC     150      HOAC     C2       CD33C    3.268200       11.6110           0   -2.11400   0.750000
     14928 HOAC     150      HOAC     DC2      DRUD    -3.568200        0.4000           0   0.00000   0.00000
     14929 HOAC     150      HOAC     H1       HDA3A    0.092000        1.0080           0   0.00000   0.00000
     14930 HOAC     150      HOAC     H2       HDA3A    0.092000        1.0080           0   0.00000   0.00000
     14931 HOAC     150      HOAC     H3       HDA3A    0.092000        1.0080           0   0.00000   0.00000
     14932 HOAC     150      HOAC     O1       OD2C3A   2.356500       15.5994           0   -0.922000   1.53900
     14933 HOAC     150      HOAC     DO1      DRUD    -2.356500        0.4000           0   0.00000   0.00000
     14934 HOAC     150      HOAC     O2       OD31F    2.776500       15.5990           0   -1.28000   1.12400
     14935 HOAC     150      HOAC     DO2      DRUD    -2.776500        0.4000           0   0.00000   0.00000
     14936 HOAC     150      HOAC     H        HDP1A    0.374000        1.0080           0   0.00000   0.00000
     14937 HOAC     150      HOAC     LPO11    LPD     -0.319000        0.0000           -1   0.00000   0.00000
     14938 HOAC     150      HOAC     LPO12    LPD     -0.319000        0.0000           -1   0.00000   0.00000
     14939 HOAC     150      HOAC     LPO21    LPD     -0.285000        0.0000           -1   0.00000   0.00000
     14940 HOAC     150      HOAC     LPO22    LPD     -0.285000        0.0000           -1   0.00000   0.00000
     14941 HOAC     151      HOAC     C1       CD2O3A   3.554200       11.6110           0   -1.20700   0.708000
     14942 HOAC     151      HOAC     DC1      DRUD    -2.696200        0.4000           0   0.00000   0.00000
     14943 HOAC     151      HOAC     C2       CD33C    3.268200       11.6110           0   -2.11400   0.750000
     14944 HOAC     151      HOAC     DC2      DRUD    -3.568200        0.4000           0   0.00000   0.00000
     14945 HOAC     151      HOAC     H1       HDA3A    0.092000        1.0080           0   0.00000   0.00000
     14946 HOAC     151      HOAC     H2       HDA3A    0.092000        1.0080           0   0.00000   0.00000
     14947 HOAC     151      HOAC     H3       HDA3A    0.092000        1.0080           0   0.00000   0.00000
     14948 HOAC     151      HOAC     O1       OD2C3A   2.356500       15.5994           0   -0.922000   1.53900
     14949 HOAC     151      HOAC     DO1      DRUD    -2.356500        0.4000           0   0.00000   0.00000
     14950 HOAC     151      HOAC     O2       OD31F    2.776500       15.5990           0   -1.28000   1.12400
     14951 HOAC     151      HOAC     DO2      DRUD    -2.776500        0.4000           0   0.00000   0.00000
     14952 HOAC     151      HOAC     H        HDP1A    0.374000        1.0080           0   0.00000   0.00000
     14953 HOAC     151      HOAC     LPO11    LPD     -0.319000        0.0000           -1   0.00000   0.00000
     14954 HOAC     151      HOAC     LPO12    LPD     -0.319000        0.0000           -1   0.00000   0.00000
     14955 HOAC     151      HOAC     LPO21    LPD     -0.285000        0.0000           -1   0.00000   0.00000
     14956 HOAC     151      HOAC     LPO22    LPD     -0.285000        0.0000           -1   0.00000   0.00000
     14957 HOAC     152      HOAC     C1       CD2O3A   3.554200       11.6110           0   -1.20700   0.708000
     14958 HOAC     152      HOAC     DC1      DRUD    -2.696200        0.4000           0   0.00000   0.00000
     14959 HOAC     152      HOAC     C2       CD33C    3.268200       11.6110           0   -2.11400   0.750000
     14960 HOAC     152      HOAC     DC2      DRUD    -3.568200        0.4000           0   0.00000   0.00000
     14961 HOAC     152      HOAC     H1       HDA3A    0.092000        1.0080           0   0.00000   0.00000
     14962 HOAC     152      HOAC     H2       HDA3A    0.092000        1.0080           0   0.00000   0.00000
     14963 HOAC     152      HOAC     H3       HDA3A    0.092000        1.0080           0   0.00000   0.00000
     14964 HOAC     152      HOAC     O1       OD2C3A   2.356500       15.5994           0   -0.922000   1.53900
     14965 HOAC     152      HOAC     DO1      DRUD    -2.356500        0.4000           0   0.00000   0.00000
     14966 HOAC     152      HOAC     O2       OD31F    2.776500       15.5990           0   -1.28000   1.12400
     14967 HOAC     152      HOAC     DO2      DRUD    -2.776500        0.4000           0   0.00000   0.00000
     14968 HOAC     152      HOAC     H        HDP1A    0.374000        1.0080           0   0.00000   0.00000
     14969 HOAC     152      HOAC     LPO11    LPD     -0.319000        0.0000           -1   0.00000   0.00000
     14970 HOAC     152      HOAC     LPO12    LPD     -0.319000        0.0000           -1   0.00000   0.00000
     14971 HOAC     152      HOAC     LPO21    LPD     -0.285000        0.0000           -1   0.00000   0.00000
     14972 HOAC     152      HOAC     LPO22    LPD     -0.285000        0.0000           -1   0.00000   0.00000
     14973 HOAC     153      HOAC     C1       CD2O3A   3.554200       11.6110           0   -1.20700   0.708000
     14974 HOAC     153      HOAC     DC1      DRUD    -2.696200        0.4000           0   0.00000   0.00000
     14975 HOAC     153      HOAC     C2       CD33C    3.268200       11.6110           0   -2.11400   0.750000
     14976 HOAC     153      HOAC     DC2      DRUD    -3.568200        0.4000           0   0.00000   0.00000
     14977 HOAC     153      HOAC     H1       HDA3A    0.092000        1.0080           0   0.00000   0.00000
     14978 HOAC     153      HOAC     H2       HDA3A    0.092000        1.0080           0   0.00000   0.00000
     14979 HOAC     153      HOAC     H3       HDA3A    0.092000        1.0080           0   0.00000   0.00000
     14980 HOAC     153      HOAC     O1       OD2C3A   2.356500       15.5994           0   -0.922000   1.53900
     14981 HOAC     153      HOAC     DO1      DRUD    -2.356500        0.4000           0   0.00000   0.00000
     14982 HOAC     153      HOAC     O2       OD31F    2.776500       15.5990           0   -1.28000   1.12400
     14983 HOAC     153      HOAC     DO2      DRUD    -2.776500        0.4000           0   0.00000   0.00000
     14984 HOAC     153      HOAC     H        HDP1A    0.374000        1.0080           0   0.00000   0.00000
     14985 HOAC     153      HOAC     LPO11    LPD     -0.319000        0.0000           -1   0.00000   0.00000
     14986 HOAC     153      HOAC     LPO12    LPD     -0.319000        0.0000           -1   0.00000   0.00000
     14987 HOAC     153      HOAC     LPO21    LPD     -0.285000        0.0000           -1   0.00000   0.00000
     14988 HOAC     153      HOAC     LPO22    LPD     -0.285000        0.0000           -1   0.00000   0.00000
     14989 HOAC     154      HOAC     C1       CD2O3A   3.554200       11.6110           0   -1.20700   0.708000
     14990 HOAC     154      HOAC     DC1      DRUD    -2.696200        0.4000           0   0.00000   0.00000
     14991 HOAC     154      HOAC     C2       CD33C    3.268200       11.6110           0   -2.11400   0.750000
     14992 HOAC     154      HOAC     DC2      DRUD    -3.568200        0.4000           0   0.00000   0.00000
     14993 HOAC     154      HOAC     H1       HDA3A    0.092000        1.0080           0   0.00000   0.00000
     14994 HOAC     154      HOAC     H2       HDA3A    0.092000        1.0080           0   0.00000   0.00000
     14995 HOAC     154      HOAC     H3       HDA3A    0.092000        1.0080           0   0.00000   0.00000
     14996 HOAC     154      HOAC     O1       OD2C3A   2.356500       15.5994           0   -0.922000   1.53900
     14997 HOAC     154      HOAC     DO1      DRUD    -2.356500        0.4000           0   0.00000   0.00000
     14998 HOAC     154      HOAC     O2       OD31F    2.776500       15.5990           0   -1.28000   1.12400
     14999 HOAC     154      HOAC     DO2      DRUD    -2.776500        0.4000           0   0.00000   0.00000
     15000 HOAC     154      HOAC     H        HDP1A    0.374000        1.0080           0   0.00000   0.00000
     15001 HOAC     154      HOAC     LPO11    LPD     -0.319000        0.0000           -1   0.00000   0.00000
     15002 HOAC     154      HOAC     LPO12    LPD     -0.319000        0.0000           -1   0.00000   0.00000
     15003 HOAC     154      HOAC     LPO21    LPD     -0.285000        0.0000           -1   0.00000   0.00000
     15004 HOAC     154      HOAC     LPO22    LPD     -0.285000        0.0000           -1   0.00000   0.00000
     15005 HOAC     155      HOAC     C1       CD2O3A   3.554200       11.6110           0   -1.20700   0.708000
     15006 HOAC     155      HOAC     DC1      DRUD    -2.696200        0.4000           0   0.00000   0.00000
     15007 HOAC     155      HOAC     C2       CD33C    3.268200       11.6110           0   -2.11400   0.750000
     15008 HOAC     155      HOAC     DC2      DRUD    -3.568200        0.4000           0   0.00000   0.00000
     15009 HOAC     155      HOAC     H1       HDA3A    0.092000        1.0080           0   0.00000   0.00000
     15010 HOAC     155      HOAC     H2       HDA3A    0.092000        1.0080           0   0.00000   0.00000
     15011 HOAC     155      HOAC     H3       HDA3A    0.092000        1.0080           0   0.00000   0.00000
     15012 HOAC     155      HOAC     O1       OD2C3A   2.356500       15.5994           0   -0.922000   1.53900
     15013 HOAC     155      HOAC     DO1      DRUD    -2.356500        0.4000           0   0.00000   0.00000
     15014 HOAC     155      HOAC     O2       OD31F    2.776500       15.5990           0   -1.28000   1.12400
     15015 HOAC     155      HOAC     DO2      DRUD    -2.776500        0.4000           0   0.00000   0.00000
     15016 HOAC     155      HOAC     H        HDP1A    0.374000        1.0080           0   0.00000   0.00000
     15017 HOAC     155      HOAC     LPO11    LPD     -0.319000        0.0000           -1   0.00000   0.00000
     15018 HOAC     155      HOAC     LPO12    LPD     -0.319000        0.0000           -1   0.00000   0.00000
     15019 HOAC     155      HOAC     LPO21    LPD     -0.285000        0.0000           -1   0.00000   0.00000
     15020 HOAC     155      HOAC     LPO22    LPD     -0.285000        0.0000           -1   0.00000   0.00000
     15021 HOAC     156      HOAC     C1       CD2O3A   3.554200       11.6110           0   -1.20700   0.708000
     15022 HOAC     156      HOAC     DC1      DRUD    -2.696200        0.4000           0   0.00000   0.00000
     15023 HOAC     156      HOAC     C2       CD33C    3.268200       11.6110           0   -2.11400   0.750000
     15024 HOAC     156      HOAC     DC2      DRUD    -3.568200        0.4000           0   0.00000   0.00000
     15025 HOAC     156      HOAC     H1       HDA3A    0.092000        1.0080           0   0.00000   0.00000
     15026 HOAC     156      HOAC     H2       HDA3A    0.092000        1.0080           0   0.00000   0.00000
     15027 HOAC     156      HOAC     H3       HDA3A    0.092000        1.0080           0   0.00000   0.00000
     15028 HOAC     156      HOAC     O1       OD2C3A   2.356500       15.5994           0   -0.922000   1.53900
     15029 HOAC     156      HOAC     DO1      DRUD    -2.356500        0.4000           0   0.00000   0.00000
     15030 HOAC     156      HOAC     O2       OD31F    2.776500       15.5990           0   -1.28000   1.12400
     15031 HOAC     156      HOAC     DO2      DRUD    -2.776500        0.4000           0   0.00000   0.00000
     15032 HOAC     156      HOAC     H        HDP1A    0.374000        1.0080           0   0.00000   0.00000
     15033 HOAC     156      HOAC     LPO11    LPD     -0.319000        0.0000           -1   0.00000   0.00000
     15034 HOAC     156      HOAC     LPO12    LPD     -0.319000        0.0000           -1   0.00000   0.00000
     15035 HOAC     156      HOAC     LPO21    LPD     -0.285000        0.0000           -1   0.00000   0.00000
     15036 HOAC     156      HOAC     LPO22    LPD     -0.285000        0.0000           -1   0.00000   0.00000
     15037 HOAC     157      HOAC     C1       CD2O3A   3.554200       11.6110           0   -1.20700   0.708000
     15038 HOAC     157      HOAC     DC1      DRUD    -2.696200        0.4000           0   0.00000   0.00000
     15039 HOAC     157      HOAC     C2       CD33C    3.268200       11.6110           0   -2.11400   0.750000
     15040 HOAC     157      HOAC     DC2      DRUD    -3.568200        0.4000           0   0.00000   0.00000
     15041 HOAC     157      HOAC     H1       HDA3A    0.092000        1.0080           0   0.00000   0.00000
     15042 HOAC     157      HOAC     H2       HDA3A    0.092000        1.0080           0   0.00000   0.00000
     15043 HOAC     157      HOAC     H3       HDA3A    0.092000        1.0080           0   0.00000   0.00000
     15044 HOAC     157      HOAC     O1       OD2C3A   2.356500       15.5994           0   -0.922000   1.53900
     15045 HOAC     157      HOAC     DO1      DRUD    -2.356500        0.4000           0   0.00000   0.00000
     15046 HOAC     157      HOAC     O2       OD31F    2.776500       15.5990           0   -1.28000   1.12400
     15047 HOAC     157      HOAC     DO2      DRUD    -2.776500        0.4000           0   0.00000   0.00000
     15048 HOAC     157      HOAC     H        HDP1A    0.374000        1.0080           0   0.00000   0.00000
     15049 HOAC     157      HOAC     LPO11    LPD     -0.319000        0.0000           -1   0.00000   0.00000
     15050 HOAC     157      HOAC     LPO12    LPD     -0.319000        0.0000           -1   0.00000   0.00000
     15051 HOAC     157      HOAC     LPO21    LPD     -0.285000        0.0000           -1   0.00000   0.00000
     15052 HOAC     157      HOAC     LPO22    LPD     -0.285000        0.0000           -1   0.00000   0.00000
     15053 HOAC     158      HOAC     C1       CD2O3A   3.554200       11.6110           0   -1.20700   0.708000
     15054 HOAC     158      HOAC     DC1      DRUD    -2.696200        0.4000           0   0.00000   0.00000
     15055 HOAC     158      HOAC     C2       CD33C    3.268200       11.6110           0   -2.11400   0.750000
     15056 HOAC     158      HOAC     DC2      DRUD    -3.568200        0.4000           0   0.00000   0.00000
     15057 HOAC     158      HOAC     H1       HDA3A    0.092000        1.0080           0   0.00000   0.00000
     15058 HOAC     158      HOAC     H2       HDA3A    0.092000        1.0080           0   0.00000   0.00000
     15059 HOAC     158      HOAC     H3       HDA3A    0.092000        1.0080           0   0.00000   0.00000
     15060 HOAC     158      HOAC     O1       OD2C3A   2.356500       15.5994           0   -0.922000   1.53900
     15061 HOAC     158      HOAC     DO1      DRUD    -2.356500        0.4000           0   0.00000   0.00000
     15062 HOAC     158      HOAC     O2       OD31F    2.776500       15.5990           0   -1.28000   1.12400
     15063 HOAC     158      HOAC     DO2      DRUD    -2.776500        0.4000           0   0.00000   0.00000
     15064 HOAC     158      HOAC     H        HDP1A    0.374000        1.0080           0   0.00000   0.00000
     15065 HOAC     158      HOAC     LPO11    LPD     -0.319000        0.0000           -1   0.00000   0.00000
     15066 HOAC     158      HOAC     LPO12    LPD     -0.319000        0.0000           -1   0.00000   0.00000
     15067 HOAC     158      HOAC     LPO21    LPD     -0.285000        0.0000           -1   0.00000   0.00000
     15068 HOAC     158      HOAC     LPO22    LPD     -0.285000        0.0000           -1   0.00000   0.00000
     15069 HOAC     159      HOAC     C1       CD2O3A   3.554200       11.6110           0   -1.20700   0.708000
     15070 HOAC     159      HOAC     DC1      DRUD    -2.696200        0.4000           0   0.00000   0.00000
     15071 HOAC     159      HOAC     C2       CD33C    3.268200       11.6110           0   -2.11400   0.750000
     15072 HOAC     159      HOAC     DC2      DRUD    -3.568200        0.4000           0   0.00000   0.00000
     15073 HOAC     159      HOAC     H1       HDA3A    0.092000        1.0080           0   0.00000   0.00000
     15074 HOAC     159      HOAC     H2       HDA3A    0.092000        1.0080           0   0.00000   0.00000
     15075 HOAC     159      HOAC     H3       HDA3A    0.092000        1.0080           0   0.00000   0.00000
     15076 HOAC     159      HOAC     O1       OD2C3A   2.356500       15.5994           0   -0.922000   1.53900
     15077 HOAC     159      HOAC     DO1      DRUD    -2.356500        0.4000           0   0.00000   0.00000
     15078 HOAC     159      HOAC     O2       OD31F    2.776500       15.5990           0   -1.28000   1.12400
     15079 HOAC     159      HOAC     DO2      DRUD    -2.776500        0.4000           0   0.00000   0.00000
     15080 HOAC     159      HOAC     H        HDP1A    0.374000        1.0080           0   0.00000   0.00000
     15081 HOAC     159      HOAC     LPO11    LPD     -0.319000        0.0000           -1   0.00000   0.00000
     15082 HOAC     159      HOAC     LPO12    LPD     -0.319000        0.0000           -1   0.00000   0.00000
     15083 HOAC     159      HOAC     LPO21    LPD     -0.285000        0.0000           -1   0.00000   0.00000
     15084 HOAC     159      HOAC     LPO22    LPD     -0.285000        0.0000           -1   0.00000   0.00000
     15085 HOAC     160      HOAC     C1       CD2O3A   3.554200       11.6110           0   -1.20700   0.708000
     15086 HOAC     160      HOAC     DC1      DRUD    -2.696200        0.4000           0   0.00000   0.00000
     15087 HOAC     160      HOAC     C2       CD33C    3.268200       11.6110           0   -2.11400   0.750000
     15088 HOAC     160      HOAC     DC2      DRUD    -3.568200        0.4000           0   0.00000   0.00000
     15089 HOAC     160      HOAC     H1       HDA3A    0.092000        1.0080           0   0.00000   0.00000
     15090 HOAC     160      HOAC     H2       HDA3A    0.092000        1.0080           0   0.00000   0.00000
     15091 HOAC     160      HOAC     H3       HDA3A    0.092000        1.0080           0   0.00000   0.00000
     15092 HOAC     160      HOAC     O1       OD2C3A   2.356500       15.5994           0   -0.922000   1.53900
     15093 HOAC     160      HOAC     DO1      DRUD    -2.356500        0.4000           0   0.00000   0.00000
     15094 HOAC     160      HOAC     O2       OD31F    2.776500       15.5990           0   -1.28000   1.12400
     15095 HOAC     160      HOAC     DO2      DRUD    -2.776500        0.4000           0   0.00000   0.00000
     15096 HOAC     160      HOAC     H        HDP1A    0.374000        1.0080           0   0.00000   0.00000
     15097 HOAC     160      HOAC     LPO11    LPD     -0.319000        0.0000           -1   0.00000   0.00000
     15098 HOAC     160      HOAC     LPO12    LPD     -0.319000        0.0000           -1   0.00000   0.00000
     15099 HOAC     160      HOAC     LPO21    LPD     -0.285000        0.0000           -1   0.00000   0.00000
     15100 HOAC     160      HOAC     LPO22    LPD     -0.285000        0.0000           -1   0.00000   0.00000
     15101 HOAC     161      HOAC     C1       CD2O3A   3.554200       11.6110           0   -1.20700   0.708000
     15102 HOAC     161      HOAC     DC1      DRUD    -2.696200        0.4000           0   0.00000   0.00000
     15103 HOAC     161      HOAC     C2       CD33C    3.268200       11.6110           0   -2.11400   0.750000
     15104 HOAC     161      HOAC     DC2      DRUD    -3.568200        0.4000           0   0.00000   0.00000
     15105 HOAC     161      HOAC     H1       HDA3A    0.092000        1.0080           0   0.00000   0.00000
     15106 HOAC     161      HOAC     H2       HDA3A    0.092000        1.0080           0   0.00000   0.00000
     15107 HOAC     161      HOAC     H3       HDA3A    0.092000        1.0080           0   0.00000   0.00000
     15108 HOAC     161      HOAC     O1       OD2C3A   2.356500       15.5994           0   -0.922000   1.53900
     15109 HOAC     161      HOAC     DO1      DRUD    -2.356500        0.4000           0   0.00000   0.00000
     15110 HOAC     161      HOAC     O2       OD31F    2.776500       15.5990           0   -1.28000   1.12400
     15111 HOAC     161      HOAC     DO2      DRUD    -2.776500        0.4000           0   0.00000   0.00000
     15112 HOAC     161      HOAC     H        HDP1A    0.374000        1.0080           0   0.00000   0.00000
     15113 HOAC     161      HOAC     LPO11    LPD     -0.319000        0.0000           -1   0.00000   0.00000
     15114 HOAC     161      HOAC     LPO12    LPD     -0.319000        0.0000           -1   0.00000   0.00000
     15115 HOAC     161      HOAC     LPO21    LPD     -0.285000        0.0000           -1   0.00000   0.00000
     15116 HOAC     161      HOAC     LPO22    LPD     -0.285000        0.0000           -1   0.00000   0.00000
     15117 HOAC     162      HOAC     C1       CD2O3A   3.554200       11.6110           0   -1.20700   0.708000
     15118 HOAC     162      HOAC     DC1      DRUD    -2.696200        0.4000           0   0.00000   0.00000
     15119 HOAC     162      HOAC     C2       CD33C    3.268200       11.6110           0   -2.11400   0.750000
     15120 HOAC     162      HOAC     DC2      DRUD    -3.568200        0.4000           0   0.00000   0.00000
     15121 HOAC     162      HOAC     H1       HDA3A    0.092000        1.0080           0   0.00000   0.00000
     15122 HOAC     162      HOAC     H2       HDA3A    0.092000        1.0080           0   0.00000   0.00000
     15123 HOAC     162      HOAC     H3       HDA3A    0.092000        1.0080           0   0.00000   0.00000
     15124 HOAC     162      HOAC     O1       OD2C3A   2.356500       15.5994           0   -0.922000   1.53900
     15125 HOAC     162      HOAC     DO1      DRUD    -2.356500        0.4000           0   0.00000   0.00000
     15126 HOAC     162      HOAC     O2       OD31F    2.776500       15.5990           0   -1.28000   1.12400
     15127 HOAC     162      HOAC     DO2      DRUD    -2.776500        0.4000           0   0.00000   0.00000
     15128 HOAC     162      HOAC     H        HDP1A    0.374000        1.0080           0   0.00000   0.00000
     15129 HOAC     162      HOAC     LPO11    LPD     -0.319000        0.0000           -1   0.00000   0.00000
     15130 HOAC     162      HOAC     LPO12    LPD     -0.319000        0.0000           -1   0.00000   0.00000
     15131 HOAC     162      HOAC     LPO21    LPD     -0.285000        0.0000           -1   0.00000   0.00000
     15132 HOAC     162      HOAC     LPO22    LPD     -0.285000        0.0000           -1   0.00000   0.00000
     15133 HOAC     163      HOAC     C1       CD2O3A   3.554200       11.6110           0   -1.20700   0.708000
     15134 HOAC     163      HOAC     DC1      DRUD    -2.696200        0.4000           0   0.00000   0.00000
     15135 HOAC     163      HOAC     C2       CD33C    3.268200       11.6110           0   -2.11400   0.750000
     15136 HOAC     163      HOAC     DC2      DRUD    -3.568200        0.4000           0   0.00000   0.00000
     15137 HOAC     163      HOAC     H1       HDA3A    0.092000        1.0080           0   0.00000   0.00000
     15138 HOAC     163      HOAC     H2       HDA3A    0.092000        1.0080           0   0.00000   0.00000
     15139 HOAC     163      HOAC     H3       HDA3A    0.092000        1.0080           0   0.00000   0.00000
     15140 HOAC     163      HOAC     O1       OD2C3A   2.356500       15.5994           0   -0.922000   1.53900
     15141 HOAC     163      HOAC     DO1      DRUD    -2.356500        0.4000           0   0.00000   0.00000
     15142 HOAC     163      HOAC     O2       OD31F    2.776500       15.5990           0   -1.28000   1.12400
     15143 HOAC     163      HOAC     DO2      DRUD    -2.776500        0.4000           0   0.00000   0.00000
     15144 HOAC     163      HOAC     H        HDP1A    0.374000        1.0080           0   0.00000   0.00000
     15145 HOAC     163      HOAC     LPO11    LPD     -0.319000        0.0000           -1   0.00000   0.00000
     15146 HOAC     163      HOAC     LPO12    LPD     -0.319000        0.0000           -1   0.00000   0.00000
     15147 HOAC     163      HOAC     LPO21    LPD     -0.285000        0.0000           -1   0.00000   0.00000
     15148 HOAC     163      HOAC     LPO22    LPD     -0.285000        0.0000           -1   0.00000   0.00000
     15149 HOAC     164      HOAC     C1       CD2O3A   3.554200       11.6110           0   -1.20700   0.708000
     15150 HOAC     164      HOAC     DC1      DRUD    -2.696200        0.4000           0   0.00000   0.00000
     15151 HOAC     164      HOAC     C2       CD33C    3.268200       11.6110           0   -2.11400   0.750000
     15152 HOAC     164      HOAC     DC2      DRUD    -3.568200        0.4000           0   0.00000   0.00000
     15153 HOAC     164      HOAC     H1       HDA3A    0.092000        1.0080           0   0.00000   0.00000
     15154 HOAC     164      HOAC     H2       HDA3A    0.092000        1.0080           0   0.00000   0.00000
     15155 HOAC     164      HOAC     H3       HDA3A    0.092000        1.0080           0   0.00000   0.00000
     15156 HOAC     164      HOAC     O1       OD2C3A   2.356500       15.5994           0   -0.922000   1.53900
     15157 HOAC     164      HOAC     DO1      DRUD    -2.356500        0.4000           0   0.00000   0.00000
     15158 HOAC     164      HOAC     O2       OD31F    2.776500       15.5990           0   -1.28000   1.12400
     15159 HOAC     164      HOAC     DO2      DRUD    -2.776500        0.4000           0   0.00000   0.00000
     15160 HOAC     164      HOAC     H        HDP1A    0.374000        1.0080           0   0.00000   0.00000
     15161 HOAC     164      HOAC     LPO11    LPD     -0.319000        0.0000           -1   0.00000   0.00000
     15162 HOAC     164      HOAC     LPO12    LPD     -0.319000        0.0000           -1   0.00000   0.00000
     15163 HOAC     164      HOAC     LPO21    LPD     -0.285000        0.0000           -1   0.00000   0.00000
     15164 HOAC     164      HOAC     LPO22    LPD     -0.285000        0.0000           -1   0.00000   0.00000
     15165 HOAC     165      HOAC     C1       CD2O3A   3.554200       11.6110           0   -1.20700   0.708000
     15166 HOAC     165      HOAC     DC1      DRUD    -2.696200        0.4000           0   0.00000   0.00000
     15167 HOAC     165      HOAC     C2       CD33C    3.268200       11.6110           0   -2.11400   0.750000
     15168 HOAC     165      HOAC     DC2      DRUD    -3.568200        0.4000           0   0.00000   0.00000
     15169 HOAC     165      HOAC     H1       HDA3A    0.092000        1.0080           0   0.00000   0.00000
     15170 HOAC     165      HOAC     H2       HDA3A    0.092000        1.0080           0   0.00000   0.00000
     15171 HOAC     165      HOAC     H3       HDA3A    0.092000        1.0080           0   0.00000   0.00000
     15172 HOAC     165      HOAC     O1       OD2C3A   2.356500       15.5994           0   -0.922000   1.53900
     15173 HOAC     165      HOAC     DO1      DRUD    -2.356500        0.4000           0   0.00000   0.00000
     15174 HOAC     165      HOAC     O2       OD31F    2.776500       15.5990           0   -1.28000   1.12400
     15175 HOAC     165      HOAC     DO2      DRUD    -2.776500        0.4000           0   0.00000   0.00000
     15176 HOAC     165      HOAC     H        HDP1A    0.374000        1.0080           0   0.00000   0.00000
     15177 HOAC     165      HOAC     LPO11    LPD     -0.319000        0.0000           -1   0.00000   0.00000
     15178 HOAC     165      HOAC     LPO12    LPD     -0.319000        0.0000           -1   0.00000   0.00000
     15179 HOAC     165      HOAC     LPO21    LPD     -0.285000        0.0000           -1   0.00000   0.00000
     15180 HOAC     165      HOAC     LPO22    LPD     -0.285000        0.0000           -1   0.00000   0.00000
     15181 HOAC     166      HOAC     C1       CD2O3A   3.554200       11.6110           0   -1.20700   0.708000
     15182 HOAC     166      HOAC     DC1      DRUD    -2.696200        0.4000           0   0.00000   0.00000
     15183 HOAC     166      HOAC     C2       CD33C    3.268200       11.6110           0   -2.11400   0.750000
     15184 HOAC     166      HOAC     DC2      DRUD    -3.568200        0.4000           0   0.00000   0.00000
     15185 HOAC     166      HOAC     H1       HDA3A    0.092000        1.0080           0   0.00000   0.00000
     15186 HOAC     166      HOAC     H2       HDA3A    0.092000        1.0080           0   0.00000   0.00000
     15187 HOAC     166      HOAC     H3       HDA3A    0.092000        1.0080           0   0.00000   0.00000
     15188 HOAC     166      HOAC     O1       OD2C3A   2.356500       15.5994           0   -0.922000   1.53900
     15189 HOAC     166      HOAC     DO1      DRUD    -2.356500        0.4000           0   0.00000   0.00000
     15190 HOAC     166      HOAC     O2       OD31F    2.776500       15.5990           0   -1.28000   1.12400
     15191 HOAC     166      HOAC     DO2      DRUD    -2.776500        0.4000           0   0.00000   0.00000
     15192 HOAC     166      HOAC     H        HDP1A    0.374000        1.0080           0   0.00000   0.00000
     15193 HOAC     166      HOAC     LPO11    LPD     -0.319000        0.0000           -1   0.00000   0.00000
     15194 HOAC     166      HOAC     LPO12    LPD     -0.319000        0.0000           -1   0.00000   0.00000
     15195 HOAC     166      HOAC     LPO21    LPD     -0.285000        0.0000           -1   0.00000   0.00000
     15196 HOAC     166      HOAC     LPO22    LPD     -0.285000        0.0000           -1   0.00000   0.00000
     15197 HOAC     167      HOAC     C1       CD2O3A   3.554200       11.6110           0   -1.20700   0.708000
     15198 HOAC     167      HOAC     DC1      DRUD    -2.696200        0.4000           0   0.00000   0.00000
     15199 HOAC     167      HOAC     C2       CD33C    3.268200       11.6110           0   -2.11400   0.750000
     15200 HOAC     167      HOAC     DC2      DRUD    -3.568200        0.4000           0   0.00000   0.00000
     15201 HOAC     167      HOAC     H1       HDA3A    0.092000        1.0080           0   0.00000   0.00000
     15202 HOAC     167      HOAC     H2       HDA3A    0.092000        1.0080           0   0.00000   0.00000
     15203 HOAC     167      HOAC     H3       HDA3A    0.092000        1.0080           0   0.00000   0.00000
     15204 HOAC     167      HOAC     O1       OD2C3A   2.356500       15.5994           0   -0.922000   1.53900
     15205 HOAC     167      HOAC     DO1      DRUD    -2.356500        0.4000           0   0.00000   0.00000
     15206 HOAC     167      HOAC     O2       OD31F    2.776500       15.5990           0   -1.28000   1.12400
     15207 HOAC     167      HOAC     DO2      DRUD    -2.776500        0.4000           0   0.00000   0.00000
     15208 HOAC     167      HOAC     H        HDP1A    0.374000        1.0080           0   0.00000   0.00000
     15209 HOAC     167      HOAC     LPO11    LPD     -0.319000        0.0000           -1   0.00000   0.00000
     15210 HOAC     167      HOAC     LPO12    LPD     -0.319000        0.0000           -1   0.00000   0.00000
     15211 HOAC     167      HOAC     LPO21    LPD     -0.285000        0.0000           -1   0.00000   0.00000
     15212 HOAC     167      HOAC     LPO22    LPD     -0.285000        0.0000           -1   0.00000   0.00000
     15213 HOAC     168      HOAC     C1       CD2O3A   3.554200       11.6110           0   -1.20700   0.708000
     15214 HOAC     168      HOAC     DC1      DRUD    -2.696200        0.4000           0   0.00000   0.00000
     15215 HOAC     168      HOAC     C2       CD33C    3.268200       11.6110           0   -2.11400   0.750000
     15216 HOAC     168      HOAC     DC2      DRUD    -3.568200        0.4000           0   0.00000   0.00000
     15217 HOAC     168      HOAC     H1       HDA3A    0.092000        1.0080           0   0.00000   0.00000
     15218 HOAC     168      HOAC     H2       HDA3A    0.092000        1.0080           0   0.00000   0.00000
     15219 HOAC     168      HOAC     H3       HDA3A    0.092000        1.0080           0   0.00000   0.00000
     15220 HOAC     168      HOAC     O1       OD2C3A   2.356500       15.5994           0   -0.922000   1.53900
     15221 HOAC     168      HOAC     DO1      DRUD    -2.356500        0.4000           0   0.00000   0.00000
     15222 HOAC     168      HOAC     O2       OD31F    2.776500       15.5990           0   -1.28000   1.12400
     15223 HOAC     168      HOAC     DO2      DRUD    -2.776500        0.4000           0   0.00000   0.00000
     15224 HOAC     168      HOAC     H        HDP1A    0.374000        1.0080           0   0.00000   0.00000
     15225 HOAC     168      HOAC     LPO11    LPD     -0.319000        0.0000           -1   0.00000   0.00000
     15226 HOAC     168      HOAC     LPO12    LPD     -0.319000        0.0000           -1   0.00000   0.00000
     15227 HOAC     168      HOAC     LPO21    LPD     -0.285000        0.0000           -1   0.00000   0.00000
     15228 HOAC     168      HOAC     LPO22    LPD     -0.285000        0.0000           -1   0.00000   0.00000
     15229 HOAC     169      HOAC     C1       CD2O3A   3.554200       11.6110           0   -1.20700   0.708000
     15230 HOAC     169      HOAC     DC1      DRUD    -2.696200        0.4000           0   0.00000   0.00000
     15231 HOAC     169      HOAC     C2       CD33C    3.268200       11.6110           0   -2.11400   0.750000
     15232 HOAC     169      HOAC     DC2      DRUD    -3.568200        0.4000           0   0.00000   0.00000
     15233 HOAC     169      HOAC     H1       HDA3A    0.092000        1.0080           0   0.00000   0.00000
     15234 HOAC     169      HOAC     H2       HDA3A    0.092000        1.0080           0   0.00000   0.00000
     15235 HOAC     169      HOAC     H3       HDA3A    0.092000        1.0080           0   0.00000   0.00000
     15236 HOAC     169      HOAC     O1       OD2C3A   2.356500       15.5994           0   -0.922000   1.53900
     15237 HOAC     169      HOAC     DO1      DRUD    -2.356500        0.4000           0   0.00000   0.00000
     15238 HOAC     169      HOAC     O2       OD31F    2.776500       15.5990           0   -1.28000   1.12400
     15239 HOAC     169      HOAC     DO2      DRUD    -2.776500        0.4000           0   0.00000   0.00000
     15240 HOAC     169      HOAC     H        HDP1A    0.374000        1.0080           0   0.00000   0.00000
     15241 HOAC     169      HOAC     LPO11    LPD     -0.319000        0.0000           -1   0.00000   0.00000
     15242 HOAC     169      HOAC     LPO12    LPD     -0.319000        0.0000           -1   0.00000   0.00000
     15243 HOAC     169      HOAC     LPO21    LPD     -0.285000        0.0000           -1   0.00000   0.00000
     15244 HOAC     169      HOAC     LPO22    LPD     -0.285000        0.0000           -1   0.00000   0.00000
     15245 HOAC     170      HOAC     C1       CD2O3A   3.554200       11.6110           0   -1.20700   0.708000
     15246 HOAC     170      HOAC     DC1      DRUD    -2.696200        0.4000           0   0.00000   0.00000
     15247 HOAC     170      HOAC     C2       CD33C    3.268200       11.6110           0   -2.11400   0.750000
     15248 HOAC     170      HOAC     DC2      DRUD    -3.568200        0.4000           0   0.00000   0.00000
     15249 HOAC     170      HOAC     H1       HDA3A    0.092000        1.0080           0   0.00000   0.00000
     15250 HOAC     170      HOAC     H2       HDA3A    0.092000        1.0080           0   0.00000   0.00000
     15251 HOAC     170      HOAC     H3       HDA3A    0.092000        1.0080           0   0.00000   0.00000
     15252 HOAC     170      HOAC     O1       OD2C3A   2.356500       15.5994           0   -0.922000   1.53900
     15253 HOAC     170      HOAC     DO1      DRUD    -2.356500        0.4000           0   0.00000   0.00000
     15254 HOAC     170      HOAC     O2       OD31F    2.776500       15.5990           0   -1.28000   1.12400
     15255 HOAC     170      HOAC     DO2      DRUD    -2.776500        0.4000           0   0.00000   0.00000
     15256 HOAC     170      HOAC     H        HDP1A    0.374000        1.0080           0   0.00000   0.00000
     15257 HOAC     170      HOAC     LPO11    LPD     -0.319000        0.0000           -1   0.00000   0.00000
     15258 HOAC     170      HOAC     LPO12    LPD     -0.319000        0.0000           -1   0.00000   0.00000
     15259 HOAC     170      HOAC     LPO21    LPD     -0.285000        0.0000           -1   0.00000   0.00000
     15260 HOAC     170      HOAC     LPO22    LPD     -0.285000        0.0000           -1   0.00000   0.00000
     15261 HOAC     171      HOAC     C1       CD2O3A   3.554200       11.6110           0   -1.20700   0.708000
     15262 HOAC     171      HOAC     DC1      DRUD    -2.696200        0.4000           0   0.00000   0.00000
     15263 HOAC     171      HOAC     C2       CD33C    3.268200       11.6110           0   -2.11400   0.750000
     15264 HOAC     171      HOAC     DC2      DRUD    -3.568200        0.4000           0   0.00000   0.00000
     15265 HOAC     171      HOAC     H1       HDA3A    0.092000        1.0080           0   0.00000   0.00000
     15266 HOAC     171      HOAC     H2       HDA3A    0.092000        1.0080           0   0.00000   0.00000
     15267 HOAC     171      HOAC     H3       HDA3A    0.092000        1.0080           0   0.00000   0.00000
     15268 HOAC     171      HOAC     O1       OD2C3A   2.356500       15.5994           0   -0.922000   1.53900
     15269 HOAC     171      HOAC     DO1      DRUD    -2.356500        0.4000           0   0.00000   0.00000
     15270 HOAC     171      HOAC     O2       OD31F    2.776500       15.5990           0   -1.28000   1.12400
     15271 HOAC     171      HOAC     DO2      DRUD    -2.776500        0.4000           0   0.00000   0.00000
     15272 HOAC     171      HOAC     H        HDP1A    0.374000        1.0080           0   0.00000   0.00000
     15273 HOAC     171      HOAC     LPO11    LPD     -0.319000        0.0000           -1   0.00000   0.00000
     15274 HOAC     171      HOAC     LPO12    LPD     -0.319000        0.0000           -1   0.00000   0.00000
     15275 HOAC     171      HOAC     LPO21    LPD     -0.285000        0.0000           -1   0.00000   0.00000
     15276 HOAC     171      HOAC     LPO22    LPD     -0.285000        0.0000           -1   0.00000   0.00000
     15277 HOAC     172      HOAC     C1       CD2O3A   3.554200       11.6110           0   -1.20700   0.708000
     15278 HOAC     172      HOAC     DC1      DRUD    -2.696200        0.4000           0   0.00000   0.00000
     15279 HOAC     172      HOAC     C2       CD33C    3.268200       11.6110           0   -2.11400   0.750000
     15280 HOAC     172      HOAC     DC2      DRUD    -3.568200        0.4000           0   0.00000   0.00000
     15281 HOAC     172      HOAC     H1       HDA3A    0.092000        1.0080           0   0.00000   0.00000
     15282 HOAC     172      HOAC     H2       HDA3A    0.092000        1.0080           0   0.00000   0.00000
     15283 HOAC     172      HOAC     H3       HDA3A    0.092000        1.0080           0   0.00000   0.00000
     15284 HOAC     172      HOAC     O1       OD2C3A   2.356500       15.5994           0   -0.922000   1.53900
     15285 HOAC     172      HOAC     DO1      DRUD    -2.356500        0.4000           0   0.00000   0.00000
     15286 HOAC     172      HOAC     O2       OD31F    2.776500       15.5990           0   -1.28000   1.12400
     15287 HOAC     172      HOAC     DO2      DRUD    -2.776500        0.4000           0   0.00000   0.00000
     15288 HOAC     172      HOAC     H        HDP1A    0.374000        1.0080           0   0.00000   0.00000
     15289 HOAC     172      HOAC     LPO11    LPD     -0.319000        0.0000           -1   0.00000   0.00000
     15290 HOAC     172      HOAC     LPO12    LPD     -0.319000        0.0000           -1   0.00000   0.00000
     15291 HOAC     172      HOAC     LPO21    LPD     -0.285000        0.0000           -1   0.00000   0.00000
     15292 HOAC     172      HOAC     LPO22    LPD     -0.285000        0.0000           -1   0.00000   0.00000
     15293 HOAC     173      HOAC     C1       CD2O3A   3.554200       11.6110           0   -1.20700   0.708000
     15294 HOAC     173      HOAC     DC1      DRUD    -2.696200        0.4000           0   0.00000   0.00000
     15295 HOAC     173      HOAC     C2       CD33C    3.268200       11.6110           0   -2.11400   0.750000
     15296 HOAC     173      HOAC     DC2      DRUD    -3.568200        0.4000           0   0.00000   0.00000
     15297 HOAC     173      HOAC     H1       HDA3A    0.092000        1.0080           0   0.00000   0.00000
     15298 HOAC     173      HOAC     H2       HDA3A    0.092000        1.0080           0   0.00000   0.00000
     15299 HOAC     173      HOAC     H3       HDA3A    0.092000        1.0080           0   0.00000   0.00000
     15300 HOAC     173      HOAC     O1       OD2C3A   2.356500       15.5994           0   -0.922000   1.53900
     15301 HOAC     173      HOAC     DO1      DRUD    -2.356500        0.4000           0   0.00000   0.00000
     15302 HOAC     173      HOAC     O2       OD31F    2.776500       15.5990           0   -1.28000   1.12400
     15303 HOAC     173      HOAC     DO2      DRUD    -2.776500        0.4000           0   0.00000   0.00000
     15304 HOAC     173      HOAC     H        HDP1A    0.374000        1.0080           0   0.00000   0.00000
     15305 HOAC     173      HOAC     LPO11    LPD     -0.319000        0.0000           -1   0.00000   0.00000
     15306 HOAC     173      HOAC     LPO12    LPD     -0.319000        0.0000           -1   0.00000   0.00000
     15307 HOAC     173      HOAC     LPO21    LPD     -0.285000        0.0000           -1   0.00000   0.00000
     15308 HOAC     173      HOAC     LPO22    LPD     -0.285000        0.0000           -1   0.00000   0.00000
     15309 HOAC     174      HOAC     C1       CD2O3A   3.554200       11.6110           0   -1.20700   0.708000
     15310 HOAC     174      HOAC     DC1      DRUD    -2.696200        0.4000           0   0.00000   0.00000
     15311 HOAC     174      HOAC     C2       CD33C    3.268200       11.6110           0   -2.11400   0.750000
     15312 HOAC     174      HOAC     DC2      DRUD    -3.568200        0.4000           0   0.00000   0.00000
     15313 HOAC     174      HOAC     H1       HDA3A    0.092000        1.0080           0   0.00000   0.00000
     15314 HOAC     174      HOAC     H2       HDA3A    0.092000        1.0080           0   0.00000   0.00000
     15315 HOAC     174      HOAC     H3       HDA3A    0.092000        1.0080           0   0.00000   0.00000
     15316 HOAC     174      HOAC     O1       OD2C3A   2.356500       15.5994           0   -0.922000   1.53900
     15317 HOAC     174      HOAC     DO1      DRUD    -2.356500        0.4000           0   0.00000   0.00000
     15318 HOAC     174      HOAC     O2       OD31F    2.776500       15.5990           0   -1.28000   1.12400
     15319 HOAC     174      HOAC     DO2      DRUD    -2.776500        0.4000           0   0.00000   0.00000
     15320 HOAC     174      HOAC     H        HDP1A    0.374000        1.0080           0   0.00000   0.00000
     15321 HOAC     174      HOAC     LPO11    LPD     -0.319000        0.0000           -1   0.00000   0.00000
     15322 HOAC     174      HOAC     LPO12    LPD     -0.319000        0.0000           -1   0.00000   0.00000
     15323 HOAC     174      HOAC     LPO21    LPD     -0.285000        0.0000           -1   0.00000   0.00000
     15324 HOAC     174      HOAC     LPO22    LPD     -0.285000        0.0000           -1   0.00000   0.00000
     15325 HOAC     175      HOAC     C1       CD2O3A   3.554200       11.6110           0   -1.20700   0.708000
     15326 HOAC     175      HOAC     DC1      DRUD    -2.696200        0.4000           0   0.00000   0.00000
     15327 HOAC     175      HOAC     C2       CD33C    3.268200       11.6110           0   -2.11400   0.750000
     15328 HOAC     175      HOAC     DC2      DRUD    -3.568200        0.4000           0   0.00000   0.00000
     15329 HOAC     175      HOAC     H1       HDA3A    0.092000        1.0080           0   0.00000   0.00000
     15330 HOAC     175      HOAC     H2       HDA3A    0.092000        1.0080           0   0.00000   0.00000
     15331 HOAC     175      HOAC     H3       HDA3A    0.092000        1.0080           0   0.00000   0.00000
     15332 HOAC     175      HOAC     O1       OD2C3A   2.356500       15.5994           0   -0.922000   1.53900
     15333 HOAC     175      HOAC     DO1      DRUD    -2.356500        0.4000           0   0.00000   0.00000
     15334 HOAC     175      HOAC     O2       OD31F    2.776500       15.5990           0   -1.28000   1.12400
     15335 HOAC     175      HOAC     DO2      DRUD    -2.776500        0.4000           0   0.00000   0.00000
     15336 HOAC     175      HOAC     H        HDP1A    0.374000        1.0080           0   0.00000   0.00000
     15337 HOAC     175      HOAC     LPO11    LPD     -0.319000        0.0000           -1   0.00000   0.00000
     15338 HOAC     175      HOAC     LPO12    LPD     -0.319000        0.0000           -1   0.00000   0.00000
     15339 HOAC     175      HOAC     LPO21    LPD     -0.285000        0.0000           -1   0.00000   0.00000
     15340 HOAC     175      HOAC     LPO22    LPD     -0.285000        0.0000           -1   0.00000   0.00000
     15341 HOAC     176      HOAC     C1       CD2O3A   3.554200       11.6110           0   -1.20700   0.708000
     15342 HOAC     176      HOAC     DC1      DRUD    -2.696200        0.4000           0   0.00000   0.00000
     15343 HOAC     176      HOAC     C2       CD33C    3.268200       11.6110           0   -2.11400   0.750000
     15344 HOAC     176      HOAC     DC2      DRUD    -3.568200        0.4000           0   0.00000   0.00000
     15345 HOAC     176      HOAC     H1       HDA3A    0.092000        1.0080           0   0.00000   0.00000
     15346 HOAC     176      HOAC     H2       HDA3A    0.092000        1.0080           0   0.00000   0.00000
     15347 HOAC     176      HOAC     H3       HDA3A    0.092000        1.0080           0   0.00000   0.00000
     15348 HOAC     176      HOAC     O1       OD2C3A   2.356500       15.5994           0   -0.922000   1.53900
     15349 HOAC     176      HOAC     DO1      DRUD    -2.356500        0.4000           0   0.00000   0.00000
     15350 HOAC     176      HOAC     O2       OD31F    2.776500       15.5990           0   -1.28000   1.12400
     15351 HOAC     176      HOAC     DO2      DRUD    -2.776500        0.4000           0   0.00000   0.00000
     15352 HOAC     176      HOAC     H        HDP1A    0.374000        1.0080           0   0.00000   0.00000
     15353 HOAC     176      HOAC     LPO11    LPD     -0.319000        0.0000           -1   0.00000   0.00000
     15354 HOAC     176      HOAC     LPO12    LPD     -0.319000        0.0000           -1   0.00000   0.00000
     15355 HOAC     176      HOAC     LPO21    LPD     -0.285000        0.0000           -1   0.00000   0.00000
     15356 HOAC     176      HOAC     LPO22    LPD     -0.285000        0.0000           -1   0.00000   0.00000
     15357 HOAC     177      HOAC     C1       CD2O3A   3.554200       11.6110           0   -1.20700   0.708000
     15358 HOAC     177      HOAC     DC1      DRUD    -2.696200        0.4000           0   0.00000   0.00000
     15359 HOAC     177      HOAC     C2       CD33C    3.268200       11.6110           0   -2.11400   0.750000
     15360 HOAC     177      HOAC     DC2      DRUD    -3.568200        0.4000           0   0.00000   0.00000
     15361 HOAC     177      HOAC     H1       HDA3A    0.092000        1.0080           0   0.00000   0.00000
     15362 HOAC     177      HOAC     H2       HDA3A    0.092000        1.0080           0   0.00000   0.00000
     15363 HOAC     177      HOAC     H3       HDA3A    0.092000        1.0080           0   0.00000   0.00000
     15364 HOAC     177      HOAC     O1       OD2C3A   2.356500       15.5994           0   -0.922000   1.53900
     15365 HOAC     177      HOAC     DO1      DRUD    -2.356500        0.4000           0   0.00000   0.00000
     15366 HOAC     177      HOAC     O2       OD31F    2.776500       15.5990           0   -1.28000   1.12400
     15367 HOAC     177      HOAC     DO2      DRUD    -2.776500        0.4000           0   0.00000   0.00000
     15368 HOAC     177      HOAC     H        HDP1A    0.374000        1.0080           0   0.00000   0.00000
     15369 HOAC     177      HOAC     LPO11    LPD     -0.319000        0.0000           -1   0.00000   0.00000
     15370 HOAC     177      HOAC     LPO12    LPD     -0.319000        0.0000           -1   0.00000   0.00000
     15371 HOAC     177      HOAC     LPO21    LPD     -0.285000        0.0000           -1   0.00000   0.00000
     15372 HOAC     177      HOAC     LPO22    LPD     -0.285000        0.0000           -1   0.00000   0.00000
     15373 HOAC     178      HOAC     C1       CD2O3A   3.554200       11.6110           0   -1.20700   0.708000
     15374 HOAC     178      HOAC     DC1      DRUD    -2.696200        0.4000           0   0.00000   0.00000
     15375 HOAC     178      HOAC     C2       CD33C    3.268200       11.6110           0   -2.11400   0.750000
     15376 HOAC     178      HOAC     DC2      DRUD    -3.568200        0.4000           0   0.00000   0.00000
     15377 HOAC     178      HOAC     H1       HDA3A    0.092000        1.0080           0   0.00000   0.00000
     15378 HOAC     178      HOAC     H2       HDA3A    0.092000        1.0080           0   0.00000   0.00000
     15379 HOAC     178      HOAC     H3       HDA3A    0.092000        1.0080           0   0.00000   0.00000
     15380 HOAC     178      HOAC     O1       OD2C3A   2.356500       15.5994           0   -0.922000   1.53900
     15381 HOAC     178      HOAC     DO1      DRUD    -2.356500        0.4000           0   0.00000   0.00000
     15382 HOAC     178      HOAC     O2       OD31F    2.776500       15.5990           0   -1.28000   1.12400
     15383 HOAC     178      HOAC     DO2      DRUD    -2.776500        0.4000           0   0.00000   0.00000
     15384 HOAC     178      HOAC     H        HDP1A    0.374000        1.0080           0   0.00000   0.00000
     15385 HOAC     178      HOAC     LPO11    LPD     -0.319000        0.0000           -1   0.00000   0.00000
     15386 HOAC     178      HOAC     LPO12    LPD     -0.319000        0.0000           -1   0.00000   0.00000
     15387 HOAC     178      HOAC     LPO21    LPD     -0.285000        0.0000           -1   0.00000   0.00000
     15388 HOAC     178      HOAC     LPO22    LPD     -0.285000        0.0000           -1   0.00000   0.00000
     15389 HOAC     179      HOAC     C1       CD2O3A   3.554200       11.6110           0   -1.20700   0.708000
     15390 HOAC     179      HOAC     DC1      DRUD    -2.696200        0.4000           0   0.00000   0.00000
     15391 HOAC     179      HOAC     C2       CD33C    3.268200       11.6110           0   -2.11400   0.750000
     15392 HOAC     179      HOAC     DC2      DRUD    -3.568200        0.4000           0   0.00000   0.00000
     15393 HOAC     179      HOAC     H1       HDA3A    0.092000        1.0080           0   0.00000   0.00000
     15394 HOAC     179      HOAC     H2       HDA3A    0.092000        1.0080           0   0.00000   0.00000
     15395 HOAC     179      HOAC     H3       HDA3A    0.092000        1.0080           0   0.00000   0.00000
     15396 HOAC     179      HOAC     O1       OD2C3A   2.356500       15.5994           0   -0.922000   1.53900
     15397 HOAC     179      HOAC     DO1      DRUD    -2.356500        0.4000           0   0.00000   0.00000
     15398 HOAC     179      HOAC     O2       OD31F    2.776500       15.5990           0   -1.28000   1.12400
     15399 HOAC     179      HOAC     DO2      DRUD    -2.776500        0.4000           0   0.00000   0.00000
     15400 HOAC     179      HOAC     H        HDP1A    0.374000        1.0080           0   0.00000   0.00000
     15401 HOAC     179      HOAC     LPO11    LPD     -0.319000        0.0000           -1   0.00000   0.00000
     15402 HOAC     179      HOAC     LPO12    LPD     -0.319000        0.0000           -1   0.00000   0.00000
     15403 HOAC     179      HOAC     LPO21    LPD     -0.285000        0.0000           -1   0.00000   0.00000
     15404 HOAC     179      HOAC     LPO22    LPD     -0.285000        0.0000           -1   0.00000   0.00000
     15405 HOAC     180      HOAC     C1       CD2O3A   3.554200       11.6110           0   -1.20700   0.708000
     15406 HOAC     180      HOAC     DC1      DRUD    -2.696200        0.4000           0   0.00000   0.00000
     15407 HOAC     180      HOAC     C2       CD33C    3.268200       11.6110           0   -2.11400   0.750000
     15408 HOAC     180      HOAC     DC2      DRUD    -3.568200        0.4000           0   0.00000   0.00000
     15409 HOAC     180      HOAC     H1       HDA3A    0.092000        1.0080           0   0.00000   0.00000
     15410 HOAC     180      HOAC     H2       HDA3A    0.092000        1.0080           0   0.00000   0.00000
     15411 HOAC     180      HOAC     H3       HDA3A    0.092000        1.0080           0   0.00000   0.00000
     15412 HOAC     180      HOAC     O1       OD2C3A   2.356500       15.5994           0   -0.922000   1.53900
     15413 HOAC     180      HOAC     DO1      DRUD    -2.356500        0.4000           0   0.00000   0.00000
     15414 HOAC     180      HOAC     O2       OD31F    2.776500       15.5990           0   -1.28000   1.12400
     15415 HOAC     180      HOAC     DO2      DRUD    -2.776500        0.4000           0   0.00000   0.00000
     15416 HOAC     180      HOAC     H        HDP1A    0.374000        1.0080           0   0.00000   0.00000
     15417 HOAC     180      HOAC     LPO11    LPD     -0.319000        0.0000           -1   0.00000   0.00000
     15418 HOAC     180      HOAC     LPO12    LPD     -0.319000        0.0000           -1   0.00000   0.00000
     15419 HOAC     180      HOAC     LPO21    LPD     -0.285000        0.0000           -1   0.00000   0.00000
     15420 HOAC     180      HOAC     LPO22    LPD     -0.285000        0.0000           -1   0.00000   0.00000
     15421 HOAC     181      HOAC     C1       CD2O3A   3.554200       11.6110           0   -1.20700   0.708000
     15422 HOAC     181      HOAC     DC1      DRUD    -2.696200        0.4000           0   0.00000   0.00000
     15423 HOAC     181      HOAC     C2       CD33C    3.268200       11.6110           0   -2.11400   0.750000
     15424 HOAC     181      HOAC     DC2      DRUD    -3.568200        0.4000           0   0.00000   0.00000
     15425 HOAC     181      HOAC     H1       HDA3A    0.092000        1.0080           0   0.00000   0.00000
     15426 HOAC     181      HOAC     H2       HDA3A    0.092000        1.0080           0   0.00000   0.00000
     15427 HOAC     181      HOAC     H3       HDA3A    0.092000        1.0080           0   0.00000   0.00000
     15428 HOAC     181      HOAC     O1       OD2C3A   2.356500       15.5994           0   -0.922000   1.53900
     15429 HOAC     181      HOAC     DO1      DRUD    -2.356500        0.4000           0   0.00000   0.00000
     15430 HOAC     181      HOAC     O2       OD31F    2.776500       15.5990           0   -1.28000   1.12400
     15431 HOAC     181      HOAC     DO2      DRUD    -2.776500        0.4000           0   0.00000   0.00000
     15432 HOAC     181      HOAC     H        HDP1A    0.374000        1.0080           0   0.00000   0.00000
     15433 HOAC     181      HOAC     LPO11    LPD     -0.319000        0.0000           -1   0.00000   0.00000
     15434 HOAC     181      HOAC     LPO12    LPD     -0.319000        0.0000           -1   0.00000   0.00000
     15435 HOAC     181      HOAC     LPO21    LPD     -0.285000        0.0000           -1   0.00000   0.00000
     15436 HOAC     181      HOAC     LPO22    LPD     -0.285000        0.0000           -1   0.00000   0.00000
     15437 HOAC     182      HOAC     C1       CD2O3A   3.554200       11.6110           0   -1.20700   0.708000
     15438 HOAC     182      HOAC     DC1      DRUD    -2.696200        0.4000           0   0.00000   0.00000
     15439 HOAC     182      HOAC     C2       CD33C    3.268200       11.6110           0   -2.11400   0.750000
     15440 HOAC     182      HOAC     DC2      DRUD    -3.568200        0.4000           0   0.00000   0.00000
     15441 HOAC     182      HOAC     H1       HDA3A    0.092000        1.0080           0   0.00000   0.00000
     15442 HOAC     182      HOAC     H2       HDA3A    0.092000        1.0080           0   0.00000   0.00000
     15443 HOAC     182      HOAC     H3       HDA3A    0.092000        1.0080           0   0.00000   0.00000
     15444 HOAC     182      HOAC     O1       OD2C3A   2.356500       15.5994           0   -0.922000   1.53900
     15445 HOAC     182      HOAC     DO1      DRUD    -2.356500        0.4000           0   0.00000   0.00000
     15446 HOAC     182      HOAC     O2       OD31F    2.776500       15.5990           0   -1.28000   1.12400
     15447 HOAC     182      HOAC     DO2      DRUD    -2.776500        0.4000           0   0.00000   0.00000
     15448 HOAC     182      HOAC     H        HDP1A    0.374000        1.0080           0   0.00000   0.00000
     15449 HOAC     182      HOAC     LPO11    LPD     -0.319000        0.0000           -1   0.00000   0.00000
     15450 HOAC     182      HOAC     LPO12    LPD     -0.319000        0.0000           -1   0.00000   0.00000
     15451 HOAC     182      HOAC     LPO21    LPD     -0.285000        0.0000           -1   0.00000   0.00000
     15452 HOAC     182      HOAC     LPO22    LPD     -0.285000        0.0000           -1   0.00000   0.00000
     15453 HOAC     183      HOAC     C1       CD2O3A   3.554200       11.6110           0   -1.20700   0.708000
     15454 HOAC     183      HOAC     DC1      DRUD    -2.696200        0.4000           0   0.00000   0.00000
     15455 HOAC     183      HOAC     C2       CD33C    3.268200       11.6110           0   -2.11400   0.750000
     15456 HOAC     183      HOAC     DC2      DRUD    -3.568200        0.4000           0   0.00000   0.00000
     15457 HOAC     183      HOAC     H1       HDA3A    0.092000        1.0080           0   0.00000   0.00000
     15458 HOAC     183      HOAC     H2       HDA3A    0.092000        1.0080           0   0.00000   0.00000
     15459 HOAC     183      HOAC     H3       HDA3A    0.092000        1.0080           0   0.00000   0.00000
     15460 HOAC     183      HOAC     O1       OD2C3A   2.356500       15.5994           0   -0.922000   1.53900
     15461 HOAC     183      HOAC     DO1      DRUD    -2.356500        0.4000           0   0.00000   0.00000
     15462 HOAC     183      HOAC     O2       OD31F    2.776500       15.5990           0   -1.28000   1.12400
     15463 HOAC     183      HOAC     DO2      DRUD    -2.776500        0.4000           0   0.00000   0.00000
     15464 HOAC     183      HOAC     H        HDP1A    0.374000        1.0080           0   0.00000   0.00000
     15465 HOAC     183      HOAC     LPO11    LPD     -0.319000        0.0000           -1   0.00000   0.00000
     15466 HOAC     183      HOAC     LPO12    LPD     -0.319000        0.0000           -1   0.00000   0.00000
     15467 HOAC     183      HOAC     LPO21    LPD     -0.285000        0.0000           -1   0.00000   0.00000
     15468 HOAC     183      HOAC     LPO22    LPD     -0.285000        0.0000           -1   0.00000   0.00000
     15469 HOAC     184      HOAC     C1       CD2O3A   3.554200       11.6110           0   -1.20700   0.708000
     15470 HOAC     184      HOAC     DC1      DRUD    -2.696200        0.4000           0   0.00000   0.00000
     15471 HOAC     184      HOAC     C2       CD33C    3.268200       11.6110           0   -2.11400   0.750000
     15472 HOAC     184      HOAC     DC2      DRUD    -3.568200        0.4000           0   0.00000   0.00000
     15473 HOAC     184      HOAC     H1       HDA3A    0.092000        1.0080           0   0.00000   0.00000
     15474 HOAC     184      HOAC     H2       HDA3A    0.092000        1.0080           0   0.00000   0.00000
     15475 HOAC     184      HOAC     H3       HDA3A    0.092000        1.0080           0   0.00000   0.00000
     15476 HOAC     184      HOAC     O1       OD2C3A   2.356500       15.5994           0   -0.922000   1.53900
     15477 HOAC     184      HOAC     DO1      DRUD    -2.356500        0.4000           0   0.00000   0.00000
     15478 HOAC     184      HOAC     O2       OD31F    2.776500       15.5990           0   -1.28000   1.12400
     15479 HOAC     184      HOAC     DO2      DRUD    -2.776500        0.4000           0   0.00000   0.00000
     15480 HOAC     184      HOAC     H        HDP1A    0.374000        1.0080           0   0.00000   0.00000
     15481 HOAC     184      HOAC     LPO11    LPD     -0.319000        0.0000           -1   0.00000   0.00000
     15482 HOAC     184      HOAC     LPO12    LPD     -0.319000        0.0000           -1   0.00000   0.00000
     15483 HOAC     184      HOAC     LPO21    LPD     -0.285000        0.0000           -1   0.00000   0.00000
     15484 HOAC     184      HOAC     LPO22    LPD     -0.285000        0.0000           -1   0.00000   0.00000
     15485 HOAC     185      HOAC     C1       CD2O3A   3.554200       11.6110           0   -1.20700   0.708000
     15486 HOAC     185      HOAC     DC1      DRUD    -2.696200        0.4000           0   0.00000   0.00000
     15487 HOAC     185      HOAC     C2       CD33C    3.268200       11.6110           0   -2.11400   0.750000
     15488 HOAC     185      HOAC     DC2      DRUD    -3.568200        0.4000           0   0.00000   0.00000
     15489 HOAC     185      HOAC     H1       HDA3A    0.092000        1.0080           0   0.00000   0.00000
     15490 HOAC     185      HOAC     H2       HDA3A    0.092000        1.0080           0   0.00000   0.00000
     15491 HOAC     185      HOAC     H3       HDA3A    0.092000        1.0080           0   0.00000   0.00000
     15492 HOAC     185      HOAC     O1       OD2C3A   2.356500       15.5994           0   -0.922000   1.53900
     15493 HOAC     185      HOAC     DO1      DRUD    -2.356500        0.4000           0   0.00000   0.00000
     15494 HOAC     185      HOAC     O2       OD31F    2.776500       15.5990           0   -1.28000   1.12400
     15495 HOAC     185      HOAC     DO2      DRUD    -2.776500        0.4000           0   0.00000   0.00000
     15496 HOAC     185      HOAC     H        HDP1A    0.374000        1.0080           0   0.00000   0.00000
     15497 HOAC     185      HOAC     LPO11    LPD     -0.319000        0.0000           -1   0.00000   0.00000
     15498 HOAC     185      HOAC     LPO12    LPD     -0.319000        0.0000           -1   0.00000   0.00000
     15499 HOAC     185      HOAC     LPO21    LPD     -0.285000        0.0000           -1   0.00000   0.00000
     15500 HOAC     185      HOAC     LPO22    LPD     -0.285000        0.0000           -1   0.00000   0.00000
     15501 HOAC     186      HOAC     C1       CD2O3A   3.554200       11.6110           0   -1.20700   0.708000
     15502 HOAC     186      HOAC     DC1      DRUD    -2.696200        0.4000           0   0.00000   0.00000
     15503 HOAC     186      HOAC     C2       CD33C    3.268200       11.6110           0   -2.11400   0.750000
     15504 HOAC     186      HOAC     DC2      DRUD    -3.568200        0.4000           0   0.00000   0.00000
     15505 HOAC     186      HOAC     H1       HDA3A    0.092000        1.0080           0   0.00000   0.00000
     15506 HOAC     186      HOAC     H2       HDA3A    0.092000        1.0080           0   0.00000   0.00000
     15507 HOAC     186      HOAC     H3       HDA3A    0.092000        1.0080           0   0.00000   0.00000
     15508 HOAC     186      HOAC     O1       OD2C3A   2.356500       15.5994           0   -0.922000   1.53900
     15509 HOAC     186      HOAC     DO1      DRUD    -2.356500        0.4000           0   0.00000   0.00000
     15510 HOAC     186      HOAC     O2       OD31F    2.776500       15.5990           0   -1.28000   1.12400
     15511 HOAC     186      HOAC     DO2      DRUD    -2.776500        0.4000           0   0.00000   0.00000
     15512 HOAC     186      HOAC     H        HDP1A    0.374000        1.0080           0   0.00000   0.00000
     15513 HOAC     186      HOAC     LPO11    LPD     -0.319000        0.0000           -1   0.00000   0.00000
     15514 HOAC     186      HOAC     LPO12    LPD     -0.319000        0.0000           -1   0.00000   0.00000
     15515 HOAC     186      HOAC     LPO21    LPD     -0.285000        0.0000           -1   0.00000   0.00000
     15516 HOAC     186      HOAC     LPO22    LPD     -0.285000        0.0000           -1   0.00000   0.00000
     15517 HOAC     187      HOAC     C1       CD2O3A   3.554200       11.6110           0   -1.20700   0.708000
     15518 HOAC     187      HOAC     DC1      DRUD    -2.696200        0.4000           0   0.00000   0.00000
     15519 HOAC     187      HOAC     C2       CD33C    3.268200       11.6110           0   -2.11400   0.750000
     15520 HOAC     187      HOAC     DC2      DRUD    -3.568200        0.4000           0   0.00000   0.00000
     15521 HOAC     187      HOAC     H1       HDA3A    0.092000        1.0080           0   0.00000   0.00000
     15522 HOAC     187      HOAC     H2       HDA3A    0.092000        1.0080           0   0.00000   0.00000
     15523 HOAC     187      HOAC     H3       HDA3A    0.092000        1.0080           0   0.00000   0.00000
     15524 HOAC     187      HOAC     O1       OD2C3A   2.356500       15.5994           0   -0.922000   1.53900
     15525 HOAC     187      HOAC     DO1      DRUD    -2.356500        0.4000           0   0.00000   0.00000
     15526 HOAC     187      HOAC     O2       OD31F    2.776500       15.5990           0   -1.28000   1.12400
     15527 HOAC     187      HOAC     DO2      DRUD    -2.776500        0.4000           0   0.00000   0.00000
     15528 HOAC     187      HOAC     H        HDP1A    0.374000        1.0080           0   0.00000   0.00000
     15529 HOAC     187      HOAC     LPO11    LPD     -0.319000        0.0000           -1   0.00000   0.00000
     15530 HOAC     187      HOAC     LPO12    LPD     -0.319000        0.0000           -1   0.00000   0.00000
     15531 HOAC     187      HOAC     LPO21    LPD     -0.285000        0.0000           -1   0.00000   0.00000
     15532 HOAC     187      HOAC     LPO22    LPD     -0.285000        0.0000           -1   0.00000   0.00000
     15533 HOAC     188      HOAC     C1       CD2O3A   3.554200       11.6110           0   -1.20700   0.708000
     15534 HOAC     188      HOAC     DC1      DRUD    -2.696200        0.4000           0   0.00000   0.00000
     15535 HOAC     188      HOAC     C2       CD33C    3.268200       11.6110           0   -2.11400   0.750000
     15536 HOAC     188      HOAC     DC2      DRUD    -3.568200        0.4000           0   0.00000   0.00000
     15537 HOAC     188      HOAC     H1       HDA3A    0.092000        1.0080           0   0.00000   0.00000
     15538 HOAC     188      HOAC     H2       HDA3A    0.092000        1.0080           0   0.00000   0.00000
     15539 HOAC     188      HOAC     H3       HDA3A    0.092000        1.0080           0   0.00000   0.00000
     15540 HOAC     188      HOAC     O1       OD2C3A   2.356500       15.5994           0   -0.922000   1.53900
     15541 HOAC     188      HOAC     DO1      DRUD    -2.356500        0.4000           0   0.00000   0.00000
     15542 HOAC     188      HOAC     O2       OD31F    2.776500       15.5990           0   -1.28000   1.12400
     15543 HOAC     188      HOAC     DO2      DRUD    -2.776500        0.4000           0   0.00000   0.00000
     15544 HOAC     188      HOAC     H        HDP1A    0.374000        1.0080           0   0.00000   0.00000
     15545 HOAC     188      HOAC     LPO11    LPD     -0.319000        0.0000           -1   0.00000   0.00000
     15546 HOAC     188      HOAC     LPO12    LPD     -0.319000        0.0000           -1   0.00000   0.00000
     15547 HOAC     188      HOAC     LPO21    LPD     -0.285000        0.0000           -1   0.00000   0.00000
     15548 HOAC     188      HOAC     LPO22    LPD     -0.285000        0.0000           -1   0.00000   0.00000
     15549 HOAC     189      HOAC     C1       CD2O3A   3.554200       11.6110           0   -1.20700   0.708000
     15550 HOAC     189      HOAC     DC1      DRUD    -2.696200        0.4000           0   0.00000   0.00000
     15551 HOAC     189      HOAC     C2       CD33C    3.268200       11.6110           0   -2.11400   0.750000
     15552 HOAC     189      HOAC     DC2      DRUD    -3.568200        0.4000           0   0.00000   0.00000
     15553 HOAC     189      HOAC     H1       HDA3A    0.092000        1.0080           0   0.00000   0.00000
     15554 HOAC     189      HOAC     H2       HDA3A    0.092000        1.0080           0   0.00000   0.00000
     15555 HOAC     189      HOAC     H3       HDA3A    0.092000        1.0080           0   0.00000   0.00000
     15556 HOAC     189      HOAC     O1       OD2C3A   2.356500       15.5994           0   -0.922000   1.53900
     15557 HOAC     189      HOAC     DO1      DRUD    -2.356500        0.4000           0   0.00000   0.00000
     15558 HOAC     189      HOAC     O2       OD31F    2.776500       15.5990           0   -1.28000   1.12400
     15559 HOAC     189      HOAC     DO2      DRUD    -2.776500        0.4000           0   0.00000   0.00000
     15560 HOAC     189      HOAC     H        HDP1A    0.374000        1.0080           0   0.00000   0.00000
     15561 HOAC     189      HOAC     LPO11    LPD     -0.319000        0.0000           -1   0.00000   0.00000
     15562 HOAC     189      HOAC     LPO12    LPD     -0.319000        0.0000           -1   0.00000   0.00000
     15563 HOAC     189      HOAC     LPO21    LPD     -0.285000        0.0000           -1   0.00000   0.00000
     15564 HOAC     189      HOAC     LPO22    LPD     -0.285000        0.0000           -1   0.00000   0.00000
     15565 HOAC     190      HOAC     C1       CD2O3A   3.554200       11.6110           0   -1.20700   0.708000
     15566 HOAC     190      HOAC     DC1      DRUD    -2.696200        0.4000           0   0.00000   0.00000
     15567 HOAC     190      HOAC     C2       CD33C    3.268200       11.6110           0   -2.11400   0.750000
     15568 HOAC     190      HOAC     DC2      DRUD    -3.568200        0.4000           0   0.00000   0.00000
     15569 HOAC     190      HOAC     H1       HDA3A    0.092000        1.0080           0   0.00000   0.00000
     15570 HOAC     190      HOAC     H2       HDA3A    0.092000        1.0080           0   0.00000   0.00000
     15571 HOAC     190      HOAC     H3       HDA3A    0.092000        1.0080           0   0.00000   0.00000
     15572 HOAC     190      HOAC     O1       OD2C3A   2.356500       15.5994           0   -0.922000   1.53900
     15573 HOAC     190      HOAC     DO1      DRUD    -2.356500        0.4000           0   0.00000   0.00000
     15574 HOAC     190      HOAC     O2       OD31F    2.776500       15.5990           0   -1.28000   1.12400
     15575 HOAC     190      HOAC     DO2      DRUD    -2.776500        0.4000           0   0.00000   0.00000
     15576 HOAC     190      HOAC     H        HDP1A    0.374000        1.0080           0   0.00000   0.00000
     15577 HOAC     190      HOAC     LPO11    LPD     -0.319000        0.0000           -1   0.00000   0.00000
     15578 HOAC     190      HOAC     LPO12    LPD     -0.319000        0.0000           -1   0.00000   0.00000
     15579 HOAC     190      HOAC     LPO21    LPD     -0.285000        0.0000           -1   0.00000   0.00000
     15580 HOAC     190      HOAC     LPO22    LPD     -0.285000        0.0000           -1   0.00000   0.00000
     15581 HOAC     191      HOAC     C1       CD2O3A   3.554200       11.6110           0   -1.20700   0.708000
     15582 HOAC     191      HOAC     DC1      DRUD    -2.696200        0.4000           0   0.00000   0.00000
     15583 HOAC     191      HOAC     C2       CD33C    3.268200       11.6110           0   -2.11400   0.750000
     15584 HOAC     191      HOAC     DC2      DRUD    -3.568200        0.4000           0   0.00000   0.00000
     15585 HOAC     191      HOAC     H1       HDA3A    0.092000        1.0080           0   0.00000   0.00000
     15586 HOAC     191      HOAC     H2       HDA3A    0.092000        1.0080           0   0.00000   0.00000
     15587 HOAC     191      HOAC     H3       HDA3A    0.092000        1.0080           0   0.00000   0.00000
     15588 HOAC     191      HOAC     O1       OD2C3A   2.356500       15.5994           0   -0.922000   1.53900
     15589 HOAC     191      HOAC     DO1      DRUD    -2.356500        0.4000           0   0.00000   0.00000
     15590 HOAC     191      HOAC     O2       OD31F    2.776500       15.5990           0   -1.28000   1.12400
     15591 HOAC     191      HOAC     DO2      DRUD    -2.776500        0.4000           0   0.00000   0.00000
     15592 HOAC     191      HOAC     H        HDP1A    0.374000        1.0080           0   0.00000   0.00000
     15593 HOAC     191      HOAC     LPO11    LPD     -0.319000        0.0000           -1   0.00000   0.00000
     15594 HOAC     191      HOAC     LPO12    LPD     -0.319000        0.0000           -1   0.00000   0.00000
     15595 HOAC     191      HOAC     LPO21    LPD     -0.285000        0.0000           -1   0.00000   0.00000
     15596 HOAC     191      HOAC     LPO22    LPD     -0.285000        0.0000           -1   0.00000   0.00000
     15597 HOAC     192      HOAC     C1       CD2O3A   3.554200       11.6110           0   -1.20700   0.708000
     15598 HOAC     192      HOAC     DC1      DRUD    -2.696200        0.4000           0   0.00000   0.00000
     15599 HOAC     192      HOAC     C2       CD33C    3.268200       11.6110           0   -2.11400   0.750000
     15600 HOAC     192      HOAC     DC2      DRUD    -3.568200        0.4000           0   0.00000   0.00000
     15601 HOAC     192      HOAC     H1       HDA3A    0.092000        1.0080           0   0.00000   0.00000
     15602 HOAC     192      HOAC     H2       HDA3A    0.092000        1.0080           0   0.00000   0.00000
     15603 HOAC     192      HOAC     H3       HDA3A    0.092000        1.0080           0   0.00000   0.00000
     15604 HOAC     192      HOAC     O1       OD2C3A   2.356500       15.5994           0   -0.922000   1.53900
     15605 HOAC     192      HOAC     DO1      DRUD    -2.356500        0.4000           0   0.00000   0.00000
     15606 HOAC     192      HOAC     O2       OD31F    2.776500       15.5990           0   -1.28000   1.12400
     15607 HOAC     192      HOAC     DO2      DRUD    -2.776500        0.4000           0   0.00000   0.00000
     15608 HOAC     192      HOAC     H        HDP1A    0.374000        1.0080           0   0.00000   0.00000
     15609 HOAC     192      HOAC     LPO11    LPD     -0.319000        0.0000           -1   0.00000   0.00000
     15610 HOAC     192      HOAC     LPO12    LPD     -0.319000        0.0000           -1   0.00000   0.00000
     15611 HOAC     192      HOAC     LPO21    LPD     -0.285000        0.0000           -1   0.00000   0.00000
     15612 HOAC     192      HOAC     LPO22    LPD     -0.285000        0.0000           -1   0.00000   0.00000
     15613 HOAC     193      HOAC     C1       CD2O3A   3.554200       11.6110           0   -1.20700   0.708000
     15614 HOAC     193      HOAC     DC1      DRUD    -2.696200        0.4000           0   0.00000   0.00000
     15615 HOAC     193      HOAC     C2       CD33C    3.268200       11.6110           0   -2.11400   0.750000
     15616 HOAC     193      HOAC     DC2      DRUD    -3.568200        0.4000           0   0.00000   0.00000
     15617 HOAC     193      HOAC     H1       HDA3A    0.092000        1.0080           0   0.00000   0.00000
     15618 HOAC     193      HOAC     H2       HDA3A    0.092000        1.0080           0   0.00000   0.00000
     15619 HOAC     193      HOAC     H3       HDA3A    0.092000        1.0080           0   0.00000   0.00000
     15620 HOAC     193      HOAC     O1       OD2C3A   2.356500       15.5994           0   -0.922000   1.53900
     15621 HOAC     193      HOAC     DO1      DRUD    -2.356500        0.4000           0   0.00000   0.00000
     15622 HOAC     193      HOAC     O2       OD31F    2.776500       15.5990           0   -1.28000   1.12400
     15623 HOAC     193      HOAC     DO2      DRUD    -2.776500        0.4000           0   0.00000   0.00000
     15624 HOAC     193      HOAC     H        HDP1A    0.374000        1.0080           0   0.00000   0.00000
     15625 HOAC     193      HOAC     LPO11    LPD     -0.319000        0.0000           -1   0.00000   0.00000
     15626 HOAC     193      HOAC     LPO12    LPD     -0.319000        0.0000           -1   0.00000   0.00000
     15627 HOAC     193      HOAC     LPO21    LPD     -0.285000        0.0000           -1   0.00000   0.00000
     15628 HOAC     193      HOAC     LPO22    LPD     -0.285000        0.0000           -1   0.00000   0.00000
     15629 HOAC     194      HOAC     C1       CD2O3A   3.554200       11.6110           0   -1.20700   0.708000
     15630 HOAC     194      HOAC     DC1      DRUD    -2.696200        0.4000           0   0.00000   0.00000
     15631 HOAC     194      HOAC     C2       CD33C    3.268200       11.6110           0   -2.11400   0.750000
     15632 HOAC     194      HOAC     DC2      DRUD    -3.568200        0.4000           0   0.00000   0.00000
     15633 HOAC     194      HOAC     H1       HDA3A    0.092000        1.0080           0   0.00000   0.00000
     15634 HOAC     194      HOAC     H2       HDA3A    0.092000        1.0080           0   0.00000   0.00000
     15635 HOAC     194      HOAC     H3       HDA3A    0.092000        1.0080           0   0.00000   0.00000
     15636 HOAC     194      HOAC     O1       OD2C3A   2.356500       15.5994           0   -0.922000   1.53900
     15637 HOAC     194      HOAC     DO1      DRUD    -2.356500        0.4000           0   0.00000   0.00000
     15638 HOAC     194      HOAC     O2       OD31F    2.776500       15.5990           0   -1.28000   1.12400
     15639 HOAC     194      HOAC     DO2      DRUD    -2.776500        0.4000           0   0.00000   0.00000
     15640 HOAC     194      HOAC     H        HDP1A    0.374000        1.0080           0   0.00000   0.00000
     15641 HOAC     194      HOAC     LPO11    LPD     -0.319000        0.0000           -1   0.00000   0.00000
     15642 HOAC     194      HOAC     LPO12    LPD     -0.319000        0.0000           -1   0.00000   0.00000
     15643 HOAC     194      HOAC     LPO21    LPD     -0.285000        0.0000           -1   0.00000   0.00000
     15644 HOAC     194      HOAC     LPO22    LPD     -0.285000        0.0000           -1   0.00000   0.00000
     15645 HOAC     195      HOAC     C1       CD2O3A   3.554200       11.6110           0   -1.20700   0.708000
     15646 HOAC     195      HOAC     DC1      DRUD    -2.696200        0.4000           0   0.00000   0.00000
     15647 HOAC     195      HOAC     C2       CD33C    3.268200       11.6110           0   -2.11400   0.750000
     15648 HOAC     195      HOAC     DC2      DRUD    -3.568200        0.4000           0   0.00000   0.00000
     15649 HOAC     195      HOAC     H1       HDA3A    0.092000        1.0080           0   0.00000   0.00000
     15650 HOAC     195      HOAC     H2       HDA3A    0.092000        1.0080           0   0.00000   0.00000
     15651 HOAC     195      HOAC     H3       HDA3A    0.092000        1.0080           0   0.00000   0.00000
     15652 HOAC     195      HOAC     O1       OD2C3A   2.356500       15.5994           0   -0.922000   1.53900
     15653 HOAC     195      HOAC     DO1      DRUD    -2.356500        0.4000           0   0.00000   0.00000
     15654 HOAC     195      HOAC     O2       OD31F    2.776500       15.5990           0   -1.28000   1.12400
     15655 HOAC     195      HOAC     DO2      DRUD    -2.776500        0.4000           0   0.00000   0.00000
     15656 HOAC     195      HOAC     H        HDP1A    0.374000        1.0080           0   0.00000   0.00000
     15657 HOAC     195      HOAC     LPO11    LPD     -0.319000        0.0000           -1   0.00000   0.00000
     15658 HOAC     195      HOAC     LPO12    LPD     -0.319000        0.0000           -1   0.00000   0.00000
     15659 HOAC     195      HOAC     LPO21    LPD     -0.285000        0.0000           -1   0.00000   0.00000
     15660 HOAC     195      HOAC     LPO22    LPD     -0.285000        0.0000           -1   0.00000   0.00000
     15661 HOAC     196      HOAC     C1       CD2O3A   3.554200       11.6110           0   -1.20700   0.708000
     15662 HOAC     196      HOAC     DC1      DRUD    -2.696200        0.4000           0   0.00000   0.00000
     15663 HOAC     196      HOAC     C2       CD33C    3.268200       11.6110           0   -2.11400   0.750000
     15664 HOAC     196      HOAC     DC2      DRUD    -3.568200        0.4000           0   0.00000   0.00000
     15665 HOAC     196      HOAC     H1       HDA3A    0.092000        1.0080           0   0.00000   0.00000
     15666 HOAC     196      HOAC     H2       HDA3A    0.092000        1.0080           0   0.00000   0.00000
     15667 HOAC     196      HOAC     H3       HDA3A    0.092000        1.0080           0   0.00000   0.00000
     15668 HOAC     196      HOAC     O1       OD2C3A   2.356500       15.5994           0   -0.922000   1.53900
     15669 HOAC     196      HOAC     DO1      DRUD    -2.356500        0.4000           0   0.00000   0.00000
     15670 HOAC     196      HOAC     O2       OD31F    2.776500       15.5990           0   -1.28000   1.12400
     15671 HOAC     196      HOAC     DO2      DRUD    -2.776500        0.4000           0   0.00000   0.00000
     15672 HOAC     196      HOAC     H        HDP1A    0.374000        1.0080           0   0.00000   0.00000
     15673 HOAC     196      HOAC     LPO11    LPD     -0.319000        0.0000           -1   0.00000   0.00000
     15674 HOAC     196      HOAC     LPO12    LPD     -0.319000        0.0000           -1   0.00000   0.00000
     15675 HOAC     196      HOAC     LPO21    LPD     -0.285000        0.0000           -1   0.00000   0.00000
     15676 HOAC     196      HOAC     LPO22    LPD     -0.285000        0.0000           -1   0.00000   0.00000
     15677 HOAC     197      HOAC     C1       CD2O3A   3.554200       11.6110           0   -1.20700   0.708000
     15678 HOAC     197      HOAC     DC1      DRUD    -2.696200        0.4000           0   0.00000   0.00000
     15679 HOAC     197      HOAC     C2       CD33C    3.268200       11.6110           0   -2.11400   0.750000
     15680 HOAC     197      HOAC     DC2      DRUD    -3.568200        0.4000           0   0.00000   0.00000
     15681 HOAC     197      HOAC     H1       HDA3A    0.092000        1.0080           0   0.00000   0.00000
     15682 HOAC     197      HOAC     H2       HDA3A    0.092000        1.0080           0   0.00000   0.00000
     15683 HOAC     197      HOAC     H3       HDA3A    0.092000        1.0080           0   0.00000   0.00000
     15684 HOAC     197      HOAC     O1       OD2C3A   2.356500       15.5994           0   -0.922000   1.53900
     15685 HOAC     197      HOAC     DO1      DRUD    -2.356500        0.4000           0   0.00000   0.00000
     15686 HOAC     197      HOAC     O2       OD31F    2.776500       15.5990           0   -1.28000   1.12400
     15687 HOAC     197      HOAC     DO2      DRUD    -2.776500        0.4000           0   0.00000   0.00000
     15688 HOAC     197      HOAC     H        HDP1A    0.374000        1.0080           0   0.00000   0.00000
     15689 HOAC     197      HOAC     LPO11    LPD     -0.319000        0.0000           -1   0.00000   0.00000
     15690 HOAC     197      HOAC     LPO12    LPD     -0.319000        0.0000           -1   0.00000   0.00000
     15691 HOAC     197      HOAC     LPO21    LPD     -0.285000        0.0000           -1   0.00000   0.00000
     15692 HOAC     197      HOAC     LPO22    LPD     -0.285000        0.0000           -1   0.00000   0.00000
     15693 HOAC     198      HOAC     C1       CD2O3A   3.554200       11.6110           0   -1.20700   0.708000
     15694 HOAC     198      HOAC     DC1      DRUD    -2.696200        0.4000           0   0.00000   0.00000
     15695 HOAC     198      HOAC     C2       CD33C    3.268200       11.6110           0   -2.11400   0.750000
     15696 HOAC     198      HOAC     DC2      DRUD    -3.568200        0.4000           0   0.00000   0.00000
     15697 HOAC     198      HOAC     H1       HDA3A    0.092000        1.0080           0   0.00000   0.00000
     15698 HOAC     198      HOAC     H2       HDA3A    0.092000        1.0080           0   0.00000   0.00000
     15699 HOAC     198      HOAC     H3       HDA3A    0.092000        1.0080           0   0.00000   0.00000
     15700 HOAC     198      HOAC     O1       OD2C3A   2.356500       15.5994           0   -0.922000   1.53900
     15701 HOAC     198      HOAC     DO1      DRUD    -2.356500        0.4000           0   0.00000   0.00000
     15702 HOAC     198      HOAC     O2       OD31F    2.776500       15.5990           0   -1.28000   1.12400
     15703 HOAC     198      HOAC     DO2      DRUD    -2.776500        0.4000           0   0.00000   0.00000
     15704 HOAC     198      HOAC     H        HDP1A    0.374000        1.0080           0   0.00000   0.00000
     15705 HOAC     198      HOAC     LPO11    LPD     -0.319000        0.0000           -1   0.00000   0.00000
     15706 HOAC     198      HOAC     LPO12    LPD     -0.319000        0.0000           -1   0.00000   0.00000
     15707 HOAC     198      HOAC     LPO21    LPD     -0.285000        0.0000           -1   0.00000   0.00000
     15708 HOAC     198      HOAC     LPO22    LPD     -0.285000        0.0000           -1   0.00000   0.00000
     15709 HOAC     199      HOAC     C1       CD2O3A   3.554200       11.6110           0   -1.20700   0.708000
     15710 HOAC     199      HOAC     DC1      DRUD    -2.696200        0.4000           0   0.00000   0.00000
     15711 HOAC     199      HOAC     C2       CD33C    3.268200       11.6110           0   -2.11400   0.750000
     15712 HOAC     199      HOAC     DC2      DRUD    -3.568200        0.4000           0   0.00000   0.00000
     15713 HOAC     199      HOAC     H1       HDA3A    0.092000        1.0080           0   0.00000   0.00000
     15714 HOAC     199      HOAC     H2       HDA3A    0.092000        1.0080           0   0.00000   0.00000
     15715 HOAC     199      HOAC     H3       HDA3A    0.092000        1.0080           0   0.00000   0.00000
     15716 HOAC     199      HOAC     O1       OD2C3A   2.356500       15.5994           0   -0.922000   1.53900
     15717 HOAC     199      HOAC     DO1      DRUD    -2.356500        0.4000           0   0.00000   0.00000
     15718 HOAC     199      HOAC     O2       OD31F    2.776500       15.5990           0   -1.28000   1.12400
     15719 HOAC     199      HOAC     DO2      DRUD    -2.776500        0.4000           0   0.00000   0.00000
     15720 HOAC     199      HOAC     H        HDP1A    0.374000        1.0080           0   0.00000   0.00000
     15721 HOAC     199      HOAC     LPO11    LPD     -0.319000        0.0000           -1   0.00000   0.00000
     15722 HOAC     199      HOAC     LPO12    LPD     -0.319000        0.0000           -1   0.00000   0.00000
     15723 HOAC     199      HOAC     LPO21    LPD     -0.285000        0.0000           -1   0.00000   0.00000
     15724 HOAC     199      HOAC     LPO22    LPD     -0.285000        0.0000           -1   0.00000   0.00000
     15725 HOAC     200      HOAC     C1       CD2O3A   3.554200       11.6110           0   -1.20700   0.708000
     15726 HOAC     200      HOAC     DC1      DRUD    -2.696200        0.4000           0   0.00000   0.00000
     15727 HOAC     200      HOAC     C2       CD33C    3.268200       11.6110           0   -2.11400   0.750000
     15728 HOAC     200      HOAC     DC2      DRUD    -3.568200        0.4000           0   0.00000   0.00000
     15729 HOAC     200      HOAC     H1       HDA3A    0.092000        1.0080           0   0.00000   0.00000
     15730 HOAC     200      HOAC     H2       HDA3A    0.092000        1.0080           0   0.00000   0.00000
     15731 HOAC     200      HOAC     H3       HDA3A    0.092000        1.0080           0   0.00000   0.00000
     15732 HOAC     200      HOAC     O1       OD2C3A   2.356500       15.5994           0   -0.922000   1.53900
     15733 HOAC     200      HOAC     DO1      DRUD    -2.356500        0.4000           0   0.00000   0.00000
     15734 HOAC     200      HOAC     O2       OD31F    2.776500       15.5990           0   -1.28000   1.12400
     15735 HOAC     200      HOAC     DO2      DRUD    -2.776500        0.4000           0   0.00000   0.00000
     15736 HOAC     200      HOAC     H        HDP1A    0.374000        1.0080           0   0.00000   0.00000
     15737 HOAC     200      HOAC     LPO11    LPD     -0.319000        0.0000           -1   0.00000   0.00000
     15738 HOAC     200      HOAC     LPO12    LPD     -0.319000        0.0000           -1   0.00000   0.00000
     15739 HOAC     200      HOAC     LPO21    LPD     -0.285000        0.0000           -1   0.00000   0.00000
     15740 HOAC     200      HOAC     LPO22    LPD     -0.285000        0.0000           -1   0.00000   0.00000
     15741 HOAC     201      HOAC     C1       CD2O3A   3.554200       11.6110           0   -1.20700   0.708000
     15742 HOAC     201      HOAC     DC1      DRUD    -2.696200        0.4000           0   0.00000   0.00000
     15743 HOAC     201      HOAC     C2       CD33C    3.268200       11.6110           0   -2.11400   0.750000
     15744 HOAC     201      HOAC     DC2      DRUD    -3.568200        0.4000           0   0.00000   0.00000
     15745 HOAC     201      HOAC     H1       HDA3A    0.092000        1.0080           0   0.00000   0.00000
     15746 HOAC     201      HOAC     H2       HDA3A    0.092000        1.0080           0   0.00000   0.00000
     15747 HOAC     201      HOAC     H3       HDA3A    0.092000        1.0080           0   0.00000   0.00000
     15748 HOAC     201      HOAC     O1       OD2C3A   2.356500       15.5994           0   -0.922000   1.53900
     15749 HOAC     201      HOAC     DO1      DRUD    -2.356500        0.4000           0   0.00000   0.00000
     15750 HOAC     201      HOAC     O2       OD31F    2.776500       15.5990           0   -1.28000   1.12400
     15751 HOAC     201      HOAC     DO2      DRUD    -2.776500        0.4000           0   0.00000   0.00000
     15752 HOAC     201      HOAC     H        HDP1A    0.374000        1.0080           0   0.00000   0.00000
     15753 HOAC     201      HOAC     LPO11    LPD     -0.319000        0.0000           -1   0.00000   0.00000
     15754 HOAC     201      HOAC     LPO12    LPD     -0.319000        0.0000           -1   0.00000   0.00000
     15755 HOAC     201      HOAC     LPO21    LPD     -0.285000        0.0000           -1   0.00000   0.00000
     15756 HOAC     201      HOAC     LPO22    LPD     -0.285000        0.0000           -1   0.00000   0.00000
     15757 HOAC     202      HOAC     C1       CD2O3A   3.554200       11.6110           0   -1.20700   0.708000
     15758 HOAC     202      HOAC     DC1      DRUD    -2.696200        0.4000           0   0.00000   0.00000
     15759 HOAC     202      HOAC     C2       CD33C    3.268200       11.6110           0   -2.11400   0.750000
     15760 HOAC     202      HOAC     DC2      DRUD    -3.568200        0.4000           0   0.00000   0.00000
     15761 HOAC     202      HOAC     H1       HDA3A    0.092000        1.0080           0   0.00000   0.00000
     15762 HOAC     202      HOAC     H2       HDA3A    0.092000        1.0080           0   0.00000   0.00000
     15763 HOAC     202      HOAC     H3       HDA3A    0.092000        1.0080           0   0.00000   0.00000
     15764 HOAC     202      HOAC     O1       OD2C3A   2.356500       15.5994           0   -0.922000   1.53900
     15765 HOAC     202      HOAC     DO1      DRUD    -2.356500        0.4000           0   0.00000   0.00000
     15766 HOAC     202      HOAC     O2       OD31F    2.776500       15.5990           0   -1.28000   1.12400
     15767 HOAC     202      HOAC     DO2      DRUD    -2.776500        0.4000           0   0.00000   0.00000
     15768 HOAC     202      HOAC     H        HDP1A    0.374000        1.0080           0   0.00000   0.00000
     15769 HOAC     202      HOAC     LPO11    LPD     -0.319000        0.0000           -1   0.00000   0.00000
     15770 HOAC     202      HOAC     LPO12    LPD     -0.319000        0.0000           -1   0.00000   0.00000
     15771 HOAC     202      HOAC     LPO21    LPD     -0.285000        0.0000           -1   0.00000   0.00000
     15772 HOAC     202      HOAC     LPO22    LPD     -0.285000        0.0000           -1   0.00000   0.00000
     15773 HOAC     203      HOAC     C1       CD2O3A   3.554200       11.6110           0   -1.20700   0.708000
     15774 HOAC     203      HOAC     DC1      DRUD    -2.696200        0.4000           0   0.00000   0.00000
     15775 HOAC     203      HOAC     C2       CD33C    3.268200       11.6110           0   -2.11400   0.750000
     15776 HOAC     203      HOAC     DC2      DRUD    -3.568200        0.4000           0   0.00000   0.00000
     15777 HOAC     203      HOAC     H1       HDA3A    0.092000        1.0080           0   0.00000   0.00000
     15778 HOAC     203      HOAC     H2       HDA3A    0.092000        1.0080           0   0.00000   0.00000
     15779 HOAC     203      HOAC     H3       HDA3A    0.092000        1.0080           0   0.00000   0.00000
     15780 HOAC     203      HOAC     O1       OD2C3A   2.356500       15.5994           0   -0.922000   1.53900
     15781 HOAC     203      HOAC     DO1      DRUD    -2.356500        0.4000           0   0.00000   0.00000
     15782 HOAC     203      HOAC     O2       OD31F    2.776500       15.5990           0   -1.28000   1.12400
     15783 HOAC     203      HOAC     DO2      DRUD    -2.776500        0.4000           0   0.00000   0.00000
     15784 HOAC     203      HOAC     H        HDP1A    0.374000        1.0080           0   0.00000   0.00000
     15785 HOAC     203      HOAC     LPO11    LPD     -0.319000        0.0000           -1   0.00000   0.00000
     15786 HOAC     203      HOAC     LPO12    LPD     -0.319000        0.0000           -1   0.00000   0.00000
     15787 HOAC     203      HOAC     LPO21    LPD     -0.285000        0.0000           -1   0.00000   0.00000
     15788 HOAC     203      HOAC     LPO22    LPD     -0.285000        0.0000           -1   0.00000   0.00000
     15789 HOAC     204      HOAC     C1       CD2O3A   3.554200       11.6110           0   -1.20700   0.708000
     15790 HOAC     204      HOAC     DC1      DRUD    -2.696200        0.4000           0   0.00000   0.00000
     15791 HOAC     204      HOAC     C2       CD33C    3.268200       11.6110           0   -2.11400   0.750000
     15792 HOAC     204      HOAC     DC2      DRUD    -3.568200        0.4000           0   0.00000   0.00000
     15793 HOAC     204      HOAC     H1       HDA3A    0.092000        1.0080           0   0.00000   0.00000
     15794 HOAC     204      HOAC     H2       HDA3A    0.092000        1.0080           0   0.00000   0.00000
     15795 HOAC     204      HOAC     H3       HDA3A    0.092000        1.0080           0   0.00000   0.00000
     15796 HOAC     204      HOAC     O1       OD2C3A   2.356500       15.5994           0   -0.922000   1.53900
     15797 HOAC     204      HOAC     DO1      DRUD    -2.356500        0.4000           0   0.00000   0.00000
     15798 HOAC     204      HOAC     O2       OD31F    2.776500       15.5990           0   -1.28000   1.12400
     15799 HOAC     204      HOAC     DO2      DRUD    -2.776500        0.4000           0   0.00000   0.00000
     15800 HOAC     204      HOAC     H        HDP1A    0.374000        1.0080           0   0.00000   0.00000
     15801 HOAC     204      HOAC     LPO11    LPD     -0.319000        0.0000           -1   0.00000   0.00000
     15802 HOAC     204      HOAC     LPO12    LPD     -0.319000        0.0000           -1   0.00000   0.00000
     15803 HOAC     204      HOAC     LPO21    LPD     -0.285000        0.0000           -1   0.00000   0.00000
     15804 HOAC     204      HOAC     LPO22    LPD     -0.285000        0.0000           -1   0.00000   0.00000
     15805 HOAC     205      HOAC     C1       CD2O3A   3.554200       11.6110           0   -1.20700   0.708000
     15806 HOAC     205      HOAC     DC1      DRUD    -2.696200        0.4000           0   0.00000   0.00000
     15807 HOAC     205      HOAC     C2       CD33C    3.268200       11.6110           0   -2.11400   0.750000
     15808 HOAC     205      HOAC     DC2      DRUD    -3.568200        0.4000           0   0.00000   0.00000
     15809 HOAC     205      HOAC     H1       HDA3A    0.092000        1.0080           0   0.00000   0.00000
     15810 HOAC     205      HOAC     H2       HDA3A    0.092000        1.0080           0   0.00000   0.00000
     15811 HOAC     205      HOAC     H3       HDA3A    0.092000        1.0080           0   0.00000   0.00000
     15812 HOAC     205      HOAC     O1       OD2C3A   2.356500       15.5994           0   -0.922000   1.53900
     15813 HOAC     205      HOAC     DO1      DRUD    -2.356500        0.4000           0   0.00000   0.00000
     15814 HOAC     205      HOAC     O2       OD31F    2.776500       15.5990           0   -1.28000   1.12400
     15815 HOAC     205      HOAC     DO2      DRUD    -2.776500        0.4000           0   0.00000   0.00000
     15816 HOAC     205      HOAC     H        HDP1A    0.374000        1.0080           0   0.00000   0.00000
     15817 HOAC     205      HOAC     LPO11    LPD     -0.319000        0.0000           -1   0.00000   0.00000
     15818 HOAC     205      HOAC     LPO12    LPD     -0.319000        0.0000           -1   0.00000   0.00000
     15819 HOAC     205      HOAC     LPO21    LPD     -0.285000        0.0000           -1   0.00000   0.00000
     15820 HOAC     205      HOAC     LPO22    LPD     -0.285000        0.0000           -1   0.00000   0.00000
     15821 HOAC     206      HOAC     C1       CD2O3A   3.554200       11.6110           0   -1.20700   0.708000
     15822 HOAC     206      HOAC     DC1      DRUD    -2.696200        0.4000           0   0.00000   0.00000
     15823 HOAC     206      HOAC     C2       CD33C    3.268200       11.6110           0   -2.11400   0.750000
     15824 HOAC     206      HOAC     DC2      DRUD    -3.568200        0.4000           0   0.00000   0.00000
     15825 HOAC     206      HOAC     H1       HDA3A    0.092000        1.0080           0   0.00000   0.00000
     15826 HOAC     206      HOAC     H2       HDA3A    0.092000        1.0080           0   0.00000   0.00000
     15827 HOAC     206      HOAC     H3       HDA3A    0.092000        1.0080           0   0.00000   0.00000
     15828 HOAC     206      HOAC     O1       OD2C3A   2.356500       15.5994           0   -0.922000   1.53900
     15829 HOAC     206      HOAC     DO1      DRUD    -2.356500        0.4000           0   0.00000   0.00000
     15830 HOAC     206      HOAC     O2       OD31F    2.776500       15.5990           0   -1.28000   1.12400
     15831 HOAC     206      HOAC     DO2      DRUD    -2.776500        0.4000           0   0.00000   0.00000
     15832 HOAC     206      HOAC     H        HDP1A    0.374000        1.0080           0   0.00000   0.00000
     15833 HOAC     206      HOAC     LPO11    LPD     -0.319000        0.0000           -1   0.00000   0.00000
     15834 HOAC     206      HOAC     LPO12    LPD     -0.319000        0.0000           -1   0.00000   0.00000
     15835 HOAC     206      HOAC     LPO21    LPD     -0.285000        0.0000           -1   0.00000   0.00000
     15836 HOAC     206      HOAC     LPO22    LPD     -0.285000        0.0000           -1   0.00000   0.00000
     15837 HOAC     207      HOAC     C1       CD2O3A   3.554200       11.6110           0   -1.20700   0.708000
     15838 HOAC     207      HOAC     DC1      DRUD    -2.696200        0.4000           0   0.00000   0.00000
     15839 HOAC     207      HOAC     C2       CD33C    3.268200       11.6110           0   -2.11400   0.750000
     15840 HOAC     207      HOAC     DC2      DRUD    -3.568200        0.4000           0   0.00000   0.00000
     15841 HOAC     207      HOAC     H1       HDA3A    0.092000        1.0080           0   0.00000   0.00000
     15842 HOAC     207      HOAC     H2       HDA3A    0.092000        1.0080           0   0.00000   0.00000
     15843 HOAC     207      HOAC     H3       HDA3A    0.092000        1.0080           0   0.00000   0.00000
     15844 HOAC     207      HOAC     O1       OD2C3A   2.356500       15.5994           0   -0.922000   1.53900
     15845 HOAC     207      HOAC     DO1      DRUD    -2.356500        0.4000           0   0.00000   0.00000
     15846 HOAC     207      HOAC     O2       OD31F    2.776500       15.5990           0   -1.28000   1.12400
     15847 HOAC     207      HOAC     DO2      DRUD    -2.776500        0.4000           0   0.00000   0.00000
     15848 HOAC     207      HOAC     H        HDP1A    0.374000        1.0080           0   0.00000   0.00000
     15849 HOAC     207      HOAC     LPO11    LPD     -0.319000        0.0000           -1   0.00000   0.00000
     15850 HOAC     207      HOAC     LPO12    LPD     -0.319000        0.0000           -1   0.00000   0.00000
     15851 HOAC     207      HOAC     LPO21    LPD     -0.285000        0.0000           -1   0.00000   0.00000
     15852 HOAC     207      HOAC     LPO22    LPD     -0.285000        0.0000           -1   0.00000   0.00000
     15853 HOAC     208      HOAC     C1       CD2O3A   3.554200       11.6110           0   -1.20700   0.708000
     15854 HOAC     208      HOAC     DC1      DRUD    -2.696200        0.4000           0   0.00000   0.00000
     15855 HOAC     208      HOAC     C2       CD33C    3.268200       11.6110           0   -2.11400   0.750000
     15856 HOAC     208      HOAC     DC2      DRUD    -3.568200        0.4000           0   0.00000   0.00000
     15857 HOAC     208      HOAC     H1       HDA3A    0.092000        1.0080           0   0.00000   0.00000
     15858 HOAC     208      HOAC     H2       HDA3A    0.092000        1.0080           0   0.00000   0.00000
     15859 HOAC     208      HOAC     H3       HDA3A    0.092000        1.0080           0   0.00000   0.00000
     15860 HOAC     208      HOAC     O1       OD2C3A   2.356500       15.5994           0   -0.922000   1.53900
     15861 HOAC     208      HOAC     DO1      DRUD    -2.356500        0.4000           0   0.00000   0.00000
     15862 HOAC     208      HOAC     O2       OD31F    2.776500       15.5990           0   -1.28000   1.12400
     15863 HOAC     208      HOAC     DO2      DRUD    -2.776500        0.4000           0   0.00000   0.00000
     15864 HOAC     208      HOAC     H        HDP1A    0.374000        1.0080           0   0.00000   0.00000
     15865 HOAC     208      HOAC     LPO11    LPD     -0.319000        0.0000           -1   0.00000   0.00000
     15866 HOAC     208      HOAC     LPO12    LPD     -0.319000        0.0000           -1   0.00000   0.00000
     15867 HOAC     208      HOAC     LPO21    LPD     -0.285000        0.0000           -1   0.00000   0.00000
     15868 HOAC     208      HOAC     LPO22    LPD     -0.285000        0.0000           -1   0.00000   0.00000
     15869 HOAC     209      HOAC     C1       CD2O3A   3.554200       11.6110           0   -1.20700   0.708000
     15870 HOAC     209      HOAC     DC1      DRUD    -2.696200        0.4000           0   0.00000   0.00000
     15871 HOAC     209      HOAC     C2       CD33C    3.268200       11.6110           0   -2.11400   0.750000
     15872 HOAC     209      HOAC     DC2      DRUD    -3.568200        0.4000           0   0.00000   0.00000
     15873 HOAC     209      HOAC     H1       HDA3A    0.092000        1.0080           0   0.00000   0.00000
     15874 HOAC     209      HOAC     H2       HDA3A    0.092000        1.0080           0   0.00000   0.00000
     15875 HOAC     209      HOAC     H3       HDA3A    0.092000        1.0080           0   0.00000   0.00000
     15876 HOAC     209      HOAC     O1       OD2C3A   2.356500       15.5994           0   -0.922000   1.53900
     15877 HOAC     209      HOAC     DO1      DRUD    -2.356500        0.4000           0   0.00000   0.00000
     15878 HOAC     209      HOAC     O2       OD31F    2.776500       15.5990           0   -1.28000   1.12400
     15879 HOAC     209      HOAC     DO2      DRUD    -2.776500        0.4000           0   0.00000   0.00000
     15880 HOAC     209      HOAC     H        HDP1A    0.374000        1.0080           0   0.00000   0.00000
     15881 HOAC     209      HOAC     LPO11    LPD     -0.319000        0.0000           -1   0.00000   0.00000
     15882 HOAC     209      HOAC     LPO12    LPD     -0.319000        0.0000           -1   0.00000   0.00000
     15883 HOAC     209      HOAC     LPO21    LPD     -0.285000        0.0000           -1   0.00000   0.00000
     15884 HOAC     209      HOAC     LPO22    LPD     -0.285000        0.0000           -1   0.00000   0.00000
     15885 HOAC     210      HOAC     C1       CD2O3A   3.554200       11.6110           0   -1.20700   0.708000
     15886 HOAC     210      HOAC     DC1      DRUD    -2.696200        0.4000           0   0.00000   0.00000
     15887 HOAC     210      HOAC     C2       CD33C    3.268200       11.6110           0   -2.11400   0.750000
     15888 HOAC     210      HOAC     DC2      DRUD    -3.568200        0.4000           0   0.00000   0.00000
     15889 HOAC     210      HOAC     H1       HDA3A    0.092000        1.0080           0   0.00000   0.00000
     15890 HOAC     210      HOAC     H2       HDA3A    0.092000        1.0080           0   0.00000   0.00000
     15891 HOAC     210      HOAC     H3       HDA3A    0.092000        1.0080           0   0.00000   0.00000
     15892 HOAC     210      HOAC     O1       OD2C3A   2.356500       15.5994           0   -0.922000   1.53900
     15893 HOAC     210      HOAC     DO1      DRUD    -2.356500        0.4000           0   0.00000   0.00000
     15894 HOAC     210      HOAC     O2       OD31F    2.776500       15.5990           0   -1.28000   1.12400
     15895 HOAC     210      HOAC     DO2      DRUD    -2.776500        0.4000           0   0.00000   0.00000
     15896 HOAC     210      HOAC     H        HDP1A    0.374000        1.0080           0   0.00000   0.00000
     15897 HOAC     210      HOAC     LPO11    LPD     -0.319000        0.0000           -1   0.00000   0.00000
     15898 HOAC     210      HOAC     LPO12    LPD     -0.319000        0.0000           -1   0.00000   0.00000
     15899 HOAC     210      HOAC     LPO21    LPD     -0.285000        0.0000           -1   0.00000   0.00000
     15900 HOAC     210      HOAC     LPO22    LPD     -0.285000        0.0000           -1   0.00000   0.00000
     15901 HOAC     211      HOAC     C1       CD2O3A   3.554200       11.6110           0   -1.20700   0.708000
     15902 HOAC     211      HOAC     DC1      DRUD    -2.696200        0.4000           0   0.00000   0.00000
     15903 HOAC     211      HOAC     C2       CD33C    3.268200       11.6110           0   -2.11400   0.750000
     15904 HOAC     211      HOAC     DC2      DRUD    -3.568200        0.4000           0   0.00000   0.00000
     15905 HOAC     211      HOAC     H1       HDA3A    0.092000        1.0080           0   0.00000   0.00000
     15906 HOAC     211      HOAC     H2       HDA3A    0.092000        1.0080           0   0.00000   0.00000
     15907 HOAC     211      HOAC     H3       HDA3A    0.092000        1.0080           0   0.00000   0.00000
     15908 HOAC     211      HOAC     O1       OD2C3A   2.356500       15.5994           0   -0.922000   1.53900
     15909 HOAC     211      HOAC     DO1      DRUD    -2.356500        0.4000           0   0.00000   0.00000
     15910 HOAC     211      HOAC     O2       OD31F    2.776500       15.5990           0   -1.28000   1.12400
     15911 HOAC     211      HOAC     DO2      DRUD    -2.776500        0.4000           0   0.00000   0.00000
     15912 HOAC     211      HOAC     H        HDP1A    0.374000        1.0080           0   0.00000   0.00000
     15913 HOAC     211      HOAC     LPO11    LPD     -0.319000        0.0000           -1   0.00000   0.00000
     15914 HOAC     211      HOAC     LPO12    LPD     -0.319000        0.0000           -1   0.00000   0.00000
     15915 HOAC     211      HOAC     LPO21    LPD     -0.285000        0.0000           -1   0.00000   0.00000
     15916 HOAC     211      HOAC     LPO22    LPD     -0.285000        0.0000           -1   0.00000   0.00000
     15917 HOAC     212      HOAC     C1       CD2O3A   3.554200       11.6110           0   -1.20700   0.708000
     15918 HOAC     212      HOAC     DC1      DRUD    -2.696200        0.4000           0   0.00000   0.00000
     15919 HOAC     212      HOAC     C2       CD33C    3.268200       11.6110           0   -2.11400   0.750000
     15920 HOAC     212      HOAC     DC2      DRUD    -3.568200        0.4000           0   0.00000   0.00000
     15921 HOAC     212      HOAC     H1       HDA3A    0.092000        1.0080           0   0.00000   0.00000
     15922 HOAC     212      HOAC     H2       HDA3A    0.092000        1.0080           0   0.00000   0.00000
     15923 HOAC     212      HOAC     H3       HDA3A    0.092000        1.0080           0   0.00000   0.00000
     15924 HOAC     212      HOAC     O1       OD2C3A   2.356500       15.5994           0   -0.922000   1.53900
     15925 HOAC     212      HOAC     DO1      DRUD    -2.356500        0.4000           0   0.00000   0.00000
     15926 HOAC     212      HOAC     O2       OD31F    2.776500       15.5990           0   -1.28000   1.12400
     15927 HOAC     212      HOAC     DO2      DRUD    -2.776500        0.4000           0   0.00000   0.00000
     15928 HOAC     212      HOAC     H        HDP1A    0.374000        1.0080           0   0.00000   0.00000
     15929 HOAC     212      HOAC     LPO11    LPD     -0.319000        0.0000           -1   0.00000   0.00000
     15930 HOAC     212      HOAC     LPO12    LPD     -0.319000        0.0000           -1   0.00000   0.00000
     15931 HOAC     212      HOAC     LPO21    LPD     -0.285000        0.0000           -1   0.00000   0.00000
     15932 HOAC     212      HOAC     LPO22    LPD     -0.285000        0.0000           -1   0.00000   0.00000
     15933 HOAC     213      HOAC     C1       CD2O3A   3.554200       11.6110           0   -1.20700   0.708000
     15934 HOAC     213      HOAC     DC1      DRUD    -2.696200        0.4000           0   0.00000   0.00000
     15935 HOAC     213      HOAC     C2       CD33C    3.268200       11.6110           0   -2.11400   0.750000
     15936 HOAC     213      HOAC     DC2      DRUD    -3.568200        0.4000           0   0.00000   0.00000
     15937 HOAC     213      HOAC     H1       HDA3A    0.092000        1.0080           0   0.00000   0.00000
     15938 HOAC     213      HOAC     H2       HDA3A    0.092000        1.0080           0   0.00000   0.00000
     15939 HOAC     213      HOAC     H3       HDA3A    0.092000        1.0080           0   0.00000   0.00000
     15940 HOAC     213      HOAC     O1       OD2C3A   2.356500       15.5994           0   -0.922000   1.53900
     15941 HOAC     213      HOAC     DO1      DRUD    -2.356500        0.4000           0   0.00000   0.00000
     15942 HOAC     213      HOAC     O2       OD31F    2.776500       15.5990           0   -1.28000   1.12400
     15943 HOAC     213      HOAC     DO2      DRUD    -2.776500        0.4000           0   0.00000   0.00000
     15944 HOAC     213      HOAC     H        HDP1A    0.374000        1.0080           0   0.00000   0.00000
     15945 HOAC     213      HOAC     LPO11    LPD     -0.319000        0.0000           -1   0.00000   0.00000
     15946 HOAC     213      HOAC     LPO12    LPD     -0.319000        0.0000           -1   0.00000   0.00000
     15947 HOAC     213      HOAC     LPO21    LPD     -0.285000        0.0000           -1   0.00000   0.00000
     15948 HOAC     213      HOAC     LPO22    LPD     -0.285000        0.0000           -1   0.00000   0.00000
     15949 HOAC     214      HOAC     C1       CD2O3A   3.554200       11.6110           0   -1.20700   0.708000
     15950 HOAC     214      HOAC     DC1      DRUD    -2.696200        0.4000           0   0.00000   0.00000
     15951 HOAC     214      HOAC     C2       CD33C    3.268200       11.6110           0   -2.11400   0.750000
     15952 HOAC     214      HOAC     DC2      DRUD    -3.568200        0.4000           0   0.00000   0.00000
     15953 HOAC     214      HOAC     H1       HDA3A    0.092000        1.0080           0   0.00000   0.00000
     15954 HOAC     214      HOAC     H2       HDA3A    0.092000        1.0080           0   0.00000   0.00000
     15955 HOAC     214      HOAC     H3       HDA3A    0.092000        1.0080           0   0.00000   0.00000
     15956 HOAC     214      HOAC     O1       OD2C3A   2.356500       15.5994           0   -0.922000   1.53900
     15957 HOAC     214      HOAC     DO1      DRUD    -2.356500        0.4000           0   0.00000   0.00000
     15958 HOAC     214      HOAC     O2       OD31F    2.776500       15.5990           0   -1.28000   1.12400
     15959 HOAC     214      HOAC     DO2      DRUD    -2.776500        0.4000           0   0.00000   0.00000
     15960 HOAC     214      HOAC     H        HDP1A    0.374000        1.0080           0   0.00000   0.00000
     15961 HOAC     214      HOAC     LPO11    LPD     -0.319000        0.0000           -1   0.00000   0.00000
     15962 HOAC     214      HOAC     LPO12    LPD     -0.319000        0.0000           -1   0.00000   0.00000
     15963 HOAC     214      HOAC     LPO21    LPD     -0.285000        0.0000           -1   0.00000   0.00000
     15964 HOAC     214      HOAC     LPO22    LPD     -0.285000        0.0000           -1   0.00000   0.00000
     15965 HOAC     215      HOAC     C1       CD2O3A   3.554200       11.6110           0   -1.20700   0.708000
     15966 HOAC     215      HOAC     DC1      DRUD    -2.696200        0.4000           0   0.00000   0.00000
     15967 HOAC     215      HOAC     C2       CD33C    3.268200       11.6110           0   -2.11400   0.750000
     15968 HOAC     215      HOAC     DC2      DRUD    -3.568200        0.4000           0   0.00000   0.00000
     15969 HOAC     215      HOAC     H1       HDA3A    0.092000        1.0080           0   0.00000   0.00000
     15970 HOAC     215      HOAC     H2       HDA3A    0.092000        1.0080           0   0.00000   0.00000
     15971 HOAC     215      HOAC     H3       HDA3A    0.092000        1.0080           0   0.00000   0.00000
     15972 HOAC     215      HOAC     O1       OD2C3A   2.356500       15.5994           0   -0.922000   1.53900
     15973 HOAC     215      HOAC     DO1      DRUD    -2.356500        0.4000           0   0.00000   0.00000
     15974 HOAC     215      HOAC     O2       OD31F    2.776500       15.5990           0   -1.28000   1.12400
     15975 HOAC     215      HOAC     DO2      DRUD    -2.776500        0.4000           0   0.00000   0.00000
     15976 HOAC     215      HOAC     H        HDP1A    0.374000        1.0080           0   0.00000   0.00000
     15977 HOAC     215      HOAC     LPO11    LPD     -0.319000        0.0000           -1   0.00000   0.00000
     15978 HOAC     215      HOAC     LPO12    LPD     -0.319000        0.0000           -1   0.00000   0.00000
     15979 HOAC     215      HOAC     LPO21    LPD     -0.285000        0.0000           -1   0.00000   0.00000
     15980 HOAC     215      HOAC     LPO22    LPD     -0.285000        0.0000           -1   0.00000   0.00000
     15981 HOAC     216      HOAC     C1       CD2O3A   3.554200       11.6110           0   -1.20700   0.708000
     15982 HOAC     216      HOAC     DC1      DRUD    -2.696200        0.4000           0   0.00000   0.00000
     15983 HOAC     216      HOAC     C2       CD33C    3.268200       11.6110           0   -2.11400   0.750000
     15984 HOAC     216      HOAC     DC2      DRUD    -3.568200        0.4000           0   0.00000   0.00000
     15985 HOAC     216      HOAC     H1       HDA3A    0.092000        1.0080           0   0.00000   0.00000
     15986 HOAC     216      HOAC     H2       HDA3A    0.092000        1.0080           0   0.00000   0.00000
     15987 HOAC     216      HOAC     H3       HDA3A    0.092000        1.0080           0   0.00000   0.00000
     15988 HOAC     216      HOAC     O1       OD2C3A   2.356500       15.5994           0   -0.922000   1.53900
     15989 HOAC     216      HOAC     DO1      DRUD    -2.356500        0.4000           0   0.00000   0.00000
     15990 HOAC     216      HOAC     O2       OD31F    2.776500       15.5990           0   -1.28000   1.12400
     15991 HOAC     216      HOAC     DO2      DRUD    -2.776500        0.4000           0   0.00000   0.00000
     15992 HOAC     216      HOAC     H        HDP1A    0.374000        1.0080           0   0.00000   0.00000
     15993 HOAC     216      HOAC     LPO11    LPD     -0.319000        0.0000           -1   0.00000   0.00000
     15994 HOAC     216      HOAC     LPO12    LPD     -0.319000        0.0000           -1   0.00000   0.00000
     15995 HOAC     216      HOAC     LPO21    LPD     -0.285000        0.0000           -1   0.00000   0.00000
     15996 HOAC     216      HOAC     LPO22    LPD     -0.285000        0.0000           -1   0.00000   0.00000
     15997 HOAC     217      HOAC     C1       CD2O3A   3.554200       11.6110           0   -1.20700   0.708000
     15998 HOAC     217      HOAC     DC1      DRUD    -2.696200        0.4000           0   0.00000   0.00000
     15999 HOAC     217      HOAC     C2       CD33C    3.268200       11.6110           0   -2.11400   0.750000
     16000 HOAC     217      HOAC     DC2      DRUD    -3.568200        0.4000           0   0.00000   0.00000
     16001 HOAC     217      HOAC     H1       HDA3A    0.092000        1.0080           0   0.00000   0.00000
     16002 HOAC     217      HOAC     H2       HDA3A    0.092000        1.0080           0   0.00000   0.00000
     16003 HOAC     217      HOAC     H3       HDA3A    0.092000        1.0080           0   0.00000   0.00000
     16004 HOAC     217      HOAC     O1       OD2C3A   2.356500       15.5994           0   -0.922000   1.53900
     16005 HOAC     217      HOAC     DO1      DRUD    -2.356500        0.4000           0   0.00000   0.00000
     16006 HOAC     217      HOAC     O2       OD31F    2.776500       15.5990           0   -1.28000   1.12400
     16007 HOAC     217      HOAC     DO2      DRUD    -2.776500        0.4000           0   0.00000   0.00000
     16008 HOAC     217      HOAC     H        HDP1A    0.374000        1.0080           0   0.00000   0.00000
     16009 HOAC     217      HOAC     LPO11    LPD     -0.319000        0.0000           -1   0.00000   0.00000
     16010 HOAC     217      HOAC     LPO12    LPD     -0.319000        0.0000           -1   0.00000   0.00000
     16011 HOAC     217      HOAC     LPO21    LPD     -0.285000        0.0000           -1   0.00000   0.00000
     16012 HOAC     217      HOAC     LPO22    LPD     -0.285000        0.0000           -1   0.00000   0.00000
     16013 HOAC     218      HOAC     C1       CD2O3A   3.554200       11.6110           0   -1.20700   0.708000
     16014 HOAC     218      HOAC     DC1      DRUD    -2.696200        0.4000           0   0.00000   0.00000
     16015 HOAC     218      HOAC     C2       CD33C    3.268200       11.6110           0   -2.11400   0.750000
     16016 HOAC     218      HOAC     DC2      DRUD    -3.568200        0.4000           0   0.00000   0.00000
     16017 HOAC     218      HOAC     H1       HDA3A    0.092000        1.0080           0   0.00000   0.00000
     16018 HOAC     218      HOAC     H2       HDA3A    0.092000        1.0080           0   0.00000   0.00000
     16019 HOAC     218      HOAC     H3       HDA3A    0.092000        1.0080           0   0.00000   0.00000
     16020 HOAC     218      HOAC     O1       OD2C3A   2.356500       15.5994           0   -0.922000   1.53900
     16021 HOAC     218      HOAC     DO1      DRUD    -2.356500        0.4000           0   0.00000   0.00000
     16022 HOAC     218      HOAC     O2       OD31F    2.776500       15.5990           0   -1.28000   1.12400
     16023 HOAC     218      HOAC     DO2      DRUD    -2.776500        0.4000           0   0.00000   0.00000
     16024 HOAC     218      HOAC     H        HDP1A    0.374000        1.0080           0   0.00000   0.00000
     16025 HOAC     218      HOAC     LPO11    LPD     -0.319000        0.0000           -1   0.00000   0.00000
     16026 HOAC     218      HOAC     LPO12    LPD     -0.319000        0.0000           -1   0.00000   0.00000
     16027 HOAC     218      HOAC     LPO21    LPD     -0.285000        0.0000           -1   0.00000   0.00000
     16028 HOAC     218      HOAC     LPO22    LPD     -0.285000        0.0000           -1   0.00000   0.00000
     16029 HOAC     219      HOAC     C1       CD2O3A   3.554200       11.6110           0   -1.20700   0.708000
     16030 HOAC     219      HOAC     DC1      DRUD    -2.696200        0.4000           0   0.00000   0.00000
     16031 HOAC     219      HOAC     C2       CD33C    3.268200       11.6110           0   -2.11400   0.750000
     16032 HOAC     219      HOAC     DC2      DRUD    -3.568200        0.4000           0   0.00000   0.00000
     16033 HOAC     219      HOAC     H1       HDA3A    0.092000        1.0080           0   0.00000   0.00000
     16034 HOAC     219      HOAC     H2       HDA3A    0.092000        1.0080           0   0.00000   0.00000
     16035 HOAC     219      HOAC     H3       HDA3A    0.092000        1.0080           0   0.00000   0.00000
     16036 HOAC     219      HOAC     O1       OD2C3A   2.356500       15.5994           0   -0.922000   1.53900
     16037 HOAC     219      HOAC     DO1      DRUD    -2.356500        0.4000           0   0.00000   0.00000
     16038 HOAC     219      HOAC     O2       OD31F    2.776500       15.5990           0   -1.28000   1.12400
     16039 HOAC     219      HOAC     DO2      DRUD    -2.776500        0.4000           0   0.00000   0.00000
     16040 HOAC     219      HOAC     H        HDP1A    0.374000        1.0080           0   0.00000   0.00000
     16041 HOAC     219      HOAC     LPO11    LPD     -0.319000        0.0000           -1   0.00000   0.00000
     16042 HOAC     219      HOAC     LPO12    LPD     -0.319000        0.0000           -1   0.00000   0.00000
     16043 HOAC     219      HOAC     LPO21    LPD     -0.285000        0.0000           -1   0.00000   0.00000
     16044 HOAC     219      HOAC     LPO22    LPD     -0.285000        0.0000           -1   0.00000   0.00000
     16045 HOAC     220      HOAC     C1       CD2O3A   3.554200       11.6110           0   -1.20700   0.708000
     16046 HOAC     220      HOAC     DC1      DRUD    -2.696200        0.4000           0   0.00000   0.00000
     16047 HOAC     220      HOAC     C2       CD33C    3.268200       11.6110           0   -2.11400   0.750000
     16048 HOAC     220      HOAC     DC2      DRUD    -3.568200        0.4000           0   0.00000   0.00000
     16049 HOAC     220      HOAC     H1       HDA3A    0.092000        1.0080           0   0.00000   0.00000
     16050 HOAC     220      HOAC     H2       HDA3A    0.092000        1.0080           0   0.00000   0.00000
     16051 HOAC     220      HOAC     H3       HDA3A    0.092000        1.0080           0   0.00000   0.00000
     16052 HOAC     220      HOAC     O1       OD2C3A   2.356500       15.5994           0   -0.922000   1.53900
     16053 HOAC     220      HOAC     DO1      DRUD    -2.356500        0.4000           0   0.00000   0.00000
     16054 HOAC     220      HOAC     O2       OD31F    2.776500       15.5990           0   -1.28000   1.12400
     16055 HOAC     220      HOAC     DO2      DRUD    -2.776500        0.4000           0   0.00000   0.00000
     16056 HOAC     220      HOAC     H        HDP1A    0.374000        1.0080           0   0.00000   0.00000
     16057 HOAC     220      HOAC     LPO11    LPD     -0.319000        0.0000           -1   0.00000   0.00000
     16058 HOAC     220      HOAC     LPO12    LPD     -0.319000        0.0000           -1   0.00000   0.00000
     16059 HOAC     220      HOAC     LPO21    LPD     -0.285000        0.0000           -1   0.00000   0.00000
     16060 HOAC     220      HOAC     LPO22    LPD     -0.285000        0.0000           -1   0.00000   0.00000
     16061 HOAC     221      HOAC     C1       CD2O3A   3.554200       11.6110           0   -1.20700   0.708000
     16062 HOAC     221      HOAC     DC1      DRUD    -2.696200        0.4000           0   0.00000   0.00000
     16063 HOAC     221      HOAC     C2       CD33C    3.268200       11.6110           0   -2.11400   0.750000
     16064 HOAC     221      HOAC     DC2      DRUD    -3.568200        0.4000           0   0.00000   0.00000
     16065 HOAC     221      HOAC     H1       HDA3A    0.092000        1.0080           0   0.00000   0.00000
     16066 HOAC     221      HOAC     H2       HDA3A    0.092000        1.0080           0   0.00000   0.00000
     16067 HOAC     221      HOAC     H3       HDA3A    0.092000        1.0080           0   0.00000   0.00000
     16068 HOAC     221      HOAC     O1       OD2C3A   2.356500       15.5994           0   -0.922000   1.53900
     16069 HOAC     221      HOAC     DO1      DRUD    -2.356500        0.4000           0   0.00000   0.00000
     16070 HOAC     221      HOAC     O2       OD31F    2.776500       15.5990           0   -1.28000   1.12400
     16071 HOAC     221      HOAC     DO2      DRUD    -2.776500        0.4000           0   0.00000   0.00000
     16072 HOAC     221      HOAC     H        HDP1A    0.374000        1.0080           0   0.00000   0.00000
     16073 HOAC     221      HOAC     LPO11    LPD     -0.319000        0.0000           -1   0.00000   0.00000
     16074 HOAC     221      HOAC     LPO12    LPD     -0.319000        0.0000           -1   0.00000   0.00000
     16075 HOAC     221      HOAC     LPO21    LPD     -0.285000        0.0000           -1   0.00000   0.00000
     16076 HOAC     221      HOAC     LPO22    LPD     -0.285000        0.0000           -1   0.00000   0.00000
     16077 HOAC     222      HOAC     C1       CD2O3A   3.554200       11.6110           0   -1.20700   0.708000
     16078 HOAC     222      HOAC     DC1      DRUD    -2.696200        0.4000           0   0.00000   0.00000
     16079 HOAC     222      HOAC     C2       CD33C    3.268200       11.6110           0   -2.11400   0.750000
     16080 HOAC     222      HOAC     DC2      DRUD    -3.568200        0.4000           0   0.00000   0.00000
     16081 HOAC     222      HOAC     H1       HDA3A    0.092000        1.0080           0   0.00000   0.00000
     16082 HOAC     222      HOAC     H2       HDA3A    0.092000        1.0080           0   0.00000   0.00000
     16083 HOAC     222      HOAC     H3       HDA3A    0.092000        1.0080           0   0.00000   0.00000
     16084 HOAC     222      HOAC     O1       OD2C3A   2.356500       15.5994           0   -0.922000   1.53900
     16085 HOAC     222      HOAC     DO1      DRUD    -2.356500        0.4000           0   0.00000   0.00000
     16086 HOAC     222      HOAC     O2       OD31F    2.776500       15.5990           0   -1.28000   1.12400
     16087 HOAC     222      HOAC     DO2      DRUD    -2.776500        0.4000           0   0.00000   0.00000
     16088 HOAC     222      HOAC     H        HDP1A    0.374000        1.0080           0   0.00000   0.00000
     16089 HOAC     222      HOAC     LPO11    LPD     -0.319000        0.0000           -1   0.00000   0.00000
     16090 HOAC     222      HOAC     LPO12    LPD     -0.319000        0.0000           -1   0.00000   0.00000
     16091 HOAC     222      HOAC     LPO21    LPD     -0.285000        0.0000           -1   0.00000   0.00000
     16092 HOAC     222      HOAC     LPO22    LPD     -0.285000        0.0000           -1   0.00000   0.00000
     16093 HOAC     223      HOAC     C1       CD2O3A   3.554200       11.6110           0   -1.20700   0.708000
     16094 HOAC     223      HOAC     DC1      DRUD    -2.696200        0.4000           0   0.00000   0.00000
     16095 HOAC     223      HOAC     C2       CD33C    3.268200       11.6110           0   -2.11400   0.750000
     16096 HOAC     223      HOAC     DC2      DRUD    -3.568200        0.4000           0   0.00000   0.00000
     16097 HOAC     223      HOAC     H1       HDA3A    0.092000        1.0080           0   0.00000   0.00000
     16098 HOAC     223      HOAC     H2       HDA3A    0.092000        1.0080           0   0.00000   0.00000
     16099 HOAC     223      HOAC     H3       HDA3A    0.092000        1.0080           0   0.00000   0.00000
     16100 HOAC     223      HOAC     O1       OD2C3A   2.356500       15.5994           0   -0.922000   1.53900
     16101 HOAC     223      HOAC     DO1      DRUD    -2.356500        0.4000           0   0.00000   0.00000
     16102 HOAC     223      HOAC     O2       OD31F    2.776500       15.5990           0   -1.28000   1.12400
     16103 HOAC     223      HOAC     DO2      DRUD    -2.776500        0.4000           0   0.00000   0.00000
     16104 HOAC     223      HOAC     H        HDP1A    0.374000        1.0080           0   0.00000   0.00000
     16105 HOAC     223      HOAC     LPO11    LPD     -0.319000        0.0000           -1   0.00000   0.00000
     16106 HOAC     223      HOAC     LPO12    LPD     -0.319000        0.0000           -1   0.00000   0.00000
     16107 HOAC     223      HOAC     LPO21    LPD     -0.285000        0.0000           -1   0.00000   0.00000
     16108 HOAC     223      HOAC     LPO22    LPD     -0.285000        0.0000           -1   0.00000   0.00000
     16109 HOAC     224      HOAC     C1       CD2O3A   3.554200       11.6110           0   -1.20700   0.708000
     16110 HOAC     224      HOAC     DC1      DRUD    -2.696200        0.4000           0   0.00000   0.00000
     16111 HOAC     224      HOAC     C2       CD33C    3.268200       11.6110           0   -2.11400   0.750000
     16112 HOAC     224      HOAC     DC2      DRUD    -3.568200        0.4000           0   0.00000   0.00000
     16113 HOAC     224      HOAC     H1       HDA3A    0.092000        1.0080           0   0.00000   0.00000
     16114 HOAC     224      HOAC     H2       HDA3A    0.092000        1.0080           0   0.00000   0.00000
     16115 HOAC     224      HOAC     H3       HDA3A    0.092000        1.0080           0   0.00000   0.00000
     16116 HOAC     224      HOAC     O1       OD2C3A   2.356500       15.5994           0   -0.922000   1.53900
     16117 HOAC     224      HOAC     DO1      DRUD    -2.356500        0.4000           0   0.00000   0.00000
     16118 HOAC     224      HOAC     O2       OD31F    2.776500       15.5990           0   -1.28000   1.12400
     16119 HOAC     224      HOAC     DO2      DRUD    -2.776500        0.4000           0   0.00000   0.00000
     16120 HOAC     224      HOAC     H        HDP1A    0.374000        1.0080           0   0.00000   0.00000
     16121 HOAC     224      HOAC     LPO11    LPD     -0.319000        0.0000           -1   0.00000   0.00000
     16122 HOAC     224      HOAC     LPO12    LPD     -0.319000        0.0000           -1   0.00000   0.00000
     16123 HOAC     224      HOAC     LPO21    LPD     -0.285000        0.0000           -1   0.00000   0.00000
     16124 HOAC     224      HOAC     LPO22    LPD     -0.285000        0.0000           -1   0.00000   0.00000
     16125 HOAC     225      HOAC     C1       CD2O3A   3.554200       11.6110           0   -1.20700   0.708000
     16126 HOAC     225      HOAC     DC1      DRUD    -2.696200        0.4000           0   0.00000   0.00000
     16127 HOAC     225      HOAC     C2       CD33C    3.268200       11.6110           0   -2.11400   0.750000
     16128 HOAC     225      HOAC     DC2      DRUD    -3.568200        0.4000           0   0.00000   0.00000
     16129 HOAC     225      HOAC     H1       HDA3A    0.092000        1.0080           0   0.00000   0.00000
     16130 HOAC     225      HOAC     H2       HDA3A    0.092000        1.0080           0   0.00000   0.00000
     16131 HOAC     225      HOAC     H3       HDA3A    0.092000        1.0080           0   0.00000   0.00000
     16132 HOAC     225      HOAC     O1       OD2C3A   2.356500       15.5994           0   -0.922000   1.53900
     16133 HOAC     225      HOAC     DO1      DRUD    -2.356500        0.4000           0   0.00000   0.00000
     16134 HOAC     225      HOAC     O2       OD31F    2.776500       15.5990           0   -1.28000   1.12400
     16135 HOAC     225      HOAC     DO2      DRUD    -2.776500        0.4000           0   0.00000   0.00000
     16136 HOAC     225      HOAC     H        HDP1A    0.374000        1.0080           0   0.00000   0.00000
     16137 HOAC     225      HOAC     LPO11    LPD     -0.319000        0.0000           -1   0.00000   0.00000
     16138 HOAC     225      HOAC     LPO12    LPD     -0.319000        0.0000           -1   0.00000   0.00000
     16139 HOAC     225      HOAC     LPO21    LPD     -0.285000        0.0000           -1   0.00000   0.00000
     16140 HOAC     225      HOAC     LPO22    LPD     -0.285000        0.0000           -1   0.00000   0.00000
     16141 HOAC     226      HOAC     C1       CD2O3A   3.554200       11.6110           0   -1.20700   0.708000
     16142 HOAC     226      HOAC     DC1      DRUD    -2.696200        0.4000           0   0.00000   0.00000
     16143 HOAC     226      HOAC     C2       CD33C    3.268200       11.6110           0   -2.11400   0.750000
     16144 HOAC     226      HOAC     DC2      DRUD    -3.568200        0.4000           0   0.00000   0.00000
     16145 HOAC     226      HOAC     H1       HDA3A    0.092000        1.0080           0   0.00000   0.00000
     16146 HOAC     226      HOAC     H2       HDA3A    0.092000        1.0080           0   0.00000   0.00000
     16147 HOAC     226      HOAC     H3       HDA3A    0.092000        1.0080           0   0.00000   0.00000
     16148 HOAC     226      HOAC     O1       OD2C3A   2.356500       15.5994           0   -0.922000   1.53900
     16149 HOAC     226      HOAC     DO1      DRUD    -2.356500        0.4000           0   0.00000   0.00000
     16150 HOAC     226      HOAC     O2       OD31F    2.776500       15.5990           0   -1.28000   1.12400
     16151 HOAC     226      HOAC     DO2      DRUD    -2.776500        0.4000           0   0.00000   0.00000
     16152 HOAC     226      HOAC     H        HDP1A    0.374000        1.0080           0   0.00000   0.00000
     16153 HOAC     226      HOAC     LPO11    LPD     -0.319000        0.0000           -1   0.00000   0.00000
     16154 HOAC     226      HOAC     LPO12    LPD     -0.319000        0.0000           -1   0.00000   0.00000
     16155 HOAC     226      HOAC     LPO21    LPD     -0.285000        0.0000           -1   0.00000   0.00000
     16156 HOAC     226      HOAC     LPO22    LPD     -0.285000        0.0000           -1   0.00000   0.00000
     16157 HOAC     227      HOAC     C1       CD2O3A   3.554200       11.6110           0   -1.20700   0.708000
     16158 HOAC     227      HOAC     DC1      DRUD    -2.696200        0.4000           0   0.00000   0.00000
     16159 HOAC     227      HOAC     C2       CD33C    3.268200       11.6110           0   -2.11400   0.750000
     16160 HOAC     227      HOAC     DC2      DRUD    -3.568200        0.4000           0   0.00000   0.00000
     16161 HOAC     227      HOAC     H1       HDA3A    0.092000        1.0080           0   0.00000   0.00000
     16162 HOAC     227      HOAC     H2       HDA3A    0.092000        1.0080           0   0.00000   0.00000
     16163 HOAC     227      HOAC     H3       HDA3A    0.092000        1.0080           0   0.00000   0.00000
     16164 HOAC     227      HOAC     O1       OD2C3A   2.356500       15.5994           0   -0.922000   1.53900
     16165 HOAC     227      HOAC     DO1      DRUD    -2.356500        0.4000           0   0.00000   0.00000
     16166 HOAC     227      HOAC     O2       OD31F    2.776500       15.5990           0   -1.28000   1.12400
     16167 HOAC     227      HOAC     DO2      DRUD    -2.776500        0.4000           0   0.00000   0.00000
     16168 HOAC     227      HOAC     H        HDP1A    0.374000        1.0080           0   0.00000   0.00000
     16169 HOAC     227      HOAC     LPO11    LPD     -0.319000        0.0000           -1   0.00000   0.00000
     16170 HOAC     227      HOAC     LPO12    LPD     -0.319000        0.0000           -1   0.00000   0.00000
     16171 HOAC     227      HOAC     LPO21    LPD     -0.285000        0.0000           -1   0.00000   0.00000
     16172 HOAC     227      HOAC     LPO22    LPD     -0.285000        0.0000           -1   0.00000   0.00000
     16173 HOAC     228      HOAC     C1       CD2O3A   3.554200       11.6110           0   -1.20700   0.708000
     16174 HOAC     228      HOAC     DC1      DRUD    -2.696200        0.4000           0   0.00000   0.00000
     16175 HOAC     228      HOAC     C2       CD33C    3.268200       11.6110           0   -2.11400   0.750000
     16176 HOAC     228      HOAC     DC2      DRUD    -3.568200        0.4000           0   0.00000   0.00000
     16177 HOAC     228      HOAC     H1       HDA3A    0.092000        1.0080           0   0.00000   0.00000
     16178 HOAC     228      HOAC     H2       HDA3A    0.092000        1.0080           0   0.00000   0.00000
     16179 HOAC     228      HOAC     H3       HDA3A    0.092000        1.0080           0   0.00000   0.00000
     16180 HOAC     228      HOAC     O1       OD2C3A   2.356500       15.5994           0   -0.922000   1.53900
     16181 HOAC     228      HOAC     DO1      DRUD    -2.356500        0.4000           0   0.00000   0.00000
     16182 HOAC     228      HOAC     O2       OD31F    2.776500       15.5990           0   -1.28000   1.12400
     16183 HOAC     228      HOAC     DO2      DRUD    -2.776500        0.4000           0   0.00000   0.00000
     16184 HOAC     228      HOAC     H        HDP1A    0.374000        1.0080           0   0.00000   0.00000
     16185 HOAC     228      HOAC     LPO11    LPD     -0.319000        0.0000           -1   0.00000   0.00000
     16186 HOAC     228      HOAC     LPO12    LPD     -0.319000        0.0000           -1   0.00000   0.00000
     16187 HOAC     228      HOAC     LPO21    LPD     -0.285000        0.0000           -1   0.00000   0.00000
     16188 HOAC     228      HOAC     LPO22    LPD     -0.285000        0.0000           -1   0.00000   0.00000
     16189 HOAC     229      HOAC     C1       CD2O3A   3.554200       11.6110           0   -1.20700   0.708000
     16190 HOAC     229      HOAC     DC1      DRUD    -2.696200        0.4000           0   0.00000   0.00000
     16191 HOAC     229      HOAC     C2       CD33C    3.268200       11.6110           0   -2.11400   0.750000
     16192 HOAC     229      HOAC     DC2      DRUD    -3.568200        0.4000           0   0.00000   0.00000
     16193 HOAC     229      HOAC     H1       HDA3A    0.092000        1.0080           0   0.00000   0.00000
     16194 HOAC     229      HOAC     H2       HDA3A    0.092000        1.0080           0   0.00000   0.00000
     16195 HOAC     229      HOAC     H3       HDA3A    0.092000        1.0080           0   0.00000   0.00000
     16196 HOAC     229      HOAC     O1       OD2C3A   2.356500       15.5994           0   -0.922000   1.53900
     16197 HOAC     229      HOAC     DO1      DRUD    -2.356500        0.4000           0   0.00000   0.00000
     16198 HOAC     229      HOAC     O2       OD31F    2.776500       15.5990           0   -1.28000   1.12400
     16199 HOAC     229      HOAC     DO2      DRUD    -2.776500        0.4000           0   0.00000   0.00000
     16200 HOAC     229      HOAC     H        HDP1A    0.374000        1.0080           0   0.00000   0.00000
     16201 HOAC     229      HOAC     LPO11    LPD     -0.319000        0.0000           -1   0.00000   0.00000
     16202 HOAC     229      HOAC     LPO12    LPD     -0.319000        0.0000           -1   0.00000   0.00000
     16203 HOAC     229      HOAC     LPO21    LPD     -0.285000        0.0000           -1   0.00000   0.00000
     16204 HOAC     229      HOAC     LPO22    LPD     -0.285000        0.0000           -1   0.00000   0.00000
     16205 HOAC     230      HOAC     C1       CD2O3A   3.554200       11.6110           0   -1.20700   0.708000
     16206 HOAC     230      HOAC     DC1      DRUD    -2.696200        0.4000           0   0.00000   0.00000
     16207 HOAC     230      HOAC     C2       CD33C    3.268200       11.6110           0   -2.11400   0.750000
     16208 HOAC     230      HOAC     DC2      DRUD    -3.568200        0.4000           0   0.00000   0.00000
     16209 HOAC     230      HOAC     H1       HDA3A    0.092000        1.0080           0   0.00000   0.00000
     16210 HOAC     230      HOAC     H2       HDA3A    0.092000        1.0080           0   0.00000   0.00000
     16211 HOAC     230      HOAC     H3       HDA3A    0.092000        1.0080           0   0.00000   0.00000
     16212 HOAC     230      HOAC     O1       OD2C3A   2.356500       15.5994           0   -0.922000   1.53900
     16213 HOAC     230      HOAC     DO1      DRUD    -2.356500        0.4000           0   0.00000   0.00000
     16214 HOAC     230      HOAC     O2       OD31F    2.776500       15.5990           0   -1.28000   1.12400
     16215 HOAC     230      HOAC     DO2      DRUD    -2.776500        0.4000           0   0.00000   0.00000
     16216 HOAC     230      HOAC     H        HDP1A    0.374000        1.0080           0   0.00000   0.00000
     16217 HOAC     230      HOAC     LPO11    LPD     -0.319000        0.0000           -1   0.00000   0.00000
     16218 HOAC     230      HOAC     LPO12    LPD     -0.319000        0.0000           -1   0.00000   0.00000
     16219 HOAC     230      HOAC     LPO21    LPD     -0.285000        0.0000           -1   0.00000   0.00000
     16220 HOAC     230      HOAC     LPO22    LPD     -0.285000        0.0000           -1   0.00000   0.00000
     16221 HOAC     231      HOAC     C1       CD2O3A   3.554200       11.6110           0   -1.20700   0.708000
     16222 HOAC     231      HOAC     DC1      DRUD    -2.696200        0.4000           0   0.00000   0.00000
     16223 HOAC     231      HOAC     C2       CD33C    3.268200       11.6110           0   -2.11400   0.750000
     16224 HOAC     231      HOAC     DC2      DRUD    -3.568200        0.4000           0   0.00000   0.00000
     16225 HOAC     231      HOAC     H1       HDA3A    0.092000        1.0080           0   0.00000   0.00000
     16226 HOAC     231      HOAC     H2       HDA3A    0.092000        1.0080           0   0.00000   0.00000
     16227 HOAC     231      HOAC     H3       HDA3A    0.092000        1.0080           0   0.00000   0.00000
     16228 HOAC     231      HOAC     O1       OD2C3A   2.356500       15.5994           0   -0.922000   1.53900
     16229 HOAC     231      HOAC     DO1      DRUD    -2.356500        0.4000           0   0.00000   0.00000
     16230 HOAC     231      HOAC     O2       OD31F    2.776500       15.5990           0   -1.28000   1.12400
     16231 HOAC     231      HOAC     DO2      DRUD    -2.776500        0.4000           0   0.00000   0.00000
     16232 HOAC     231      HOAC     H        HDP1A    0.374000        1.0080           0   0.00000   0.00000
     16233 HOAC     231      HOAC     LPO11    LPD     -0.319000        0.0000           -1   0.00000   0.00000
     16234 HOAC     231      HOAC     LPO12    LPD     -0.319000        0.0000           -1   0.00000   0.00000
     16235 HOAC     231      HOAC     LPO21    LPD     -0.285000        0.0000           -1   0.00000   0.00000
     16236 HOAC     231      HOAC     LPO22    LPD     -0.285000        0.0000           -1   0.00000   0.00000
     16237 HOAC     232      HOAC     C1       CD2O3A   3.554200       11.6110           0   -1.20700   0.708000
     16238 HOAC     232      HOAC     DC1      DRUD    -2.696200        0.4000           0   0.00000   0.00000
     16239 HOAC     232      HOAC     C2       CD33C    3.268200       11.6110           0   -2.11400   0.750000
     16240 HOAC     232      HOAC     DC2      DRUD    -3.568200        0.4000           0   0.00000   0.00000
     16241 HOAC     232      HOAC     H1       HDA3A    0.092000        1.0080           0   0.00000   0.00000
     16242 HOAC     232      HOAC     H2       HDA3A    0.092000        1.0080           0   0.00000   0.00000
     16243 HOAC     232      HOAC     H3       HDA3A    0.092000        1.0080           0   0.00000   0.00000
     16244 HOAC     232      HOAC     O1       OD2C3A   2.356500       15.5994           0   -0.922000   1.53900
     16245 HOAC     232      HOAC     DO1      DRUD    -2.356500        0.4000           0   0.00000   0.00000
     16246 HOAC     232      HOAC     O2       OD31F    2.776500       15.5990           0   -1.28000   1.12400
     16247 HOAC     232      HOAC     DO2      DRUD    -2.776500        0.4000           0   0.00000   0.00000
     16248 HOAC     232      HOAC     H        HDP1A    0.374000        1.0080           0   0.00000   0.00000
     16249 HOAC     232      HOAC     LPO11    LPD     -0.319000        0.0000           -1   0.00000   0.00000
     16250 HOAC     232      HOAC     LPO12    LPD     -0.319000        0.0000           -1   0.00000   0.00000
     16251 HOAC     232      HOAC     LPO21    LPD     -0.285000        0.0000           -1   0.00000   0.00000
     16252 HOAC     232      HOAC     LPO22    LPD     -0.285000        0.0000           -1   0.00000   0.00000
     16253 HOAC     233      HOAC     C1       CD2O3A   3.554200       11.6110           0   -1.20700   0.708000
     16254 HOAC     233      HOAC     DC1      DRUD    -2.696200        0.4000           0   0.00000   0.00000
     16255 HOAC     233      HOAC     C2       CD33C    3.268200       11.6110           0   -2.11400   0.750000
     16256 HOAC     233      HOAC     DC2      DRUD    -3.568200        0.4000           0   0.00000   0.00000
     16257 HOAC     233      HOAC     H1       HDA3A    0.092000        1.0080           0   0.00000   0.00000
     16258 HOAC     233      HOAC     H2       HDA3A    0.092000        1.0080           0   0.00000   0.00000
     16259 HOAC     233      HOAC     H3       HDA3A    0.092000        1.0080           0   0.00000   0.00000
     16260 HOAC     233      HOAC     O1       OD2C3A   2.356500       15.5994           0   -0.922000   1.53900
     16261 HOAC     233      HOAC     DO1      DRUD    -2.356500        0.4000           0   0.00000   0.00000
     16262 HOAC     233      HOAC     O2       OD31F    2.776500       15.5990           0   -1.28000   1.12400
     16263 HOAC     233      HOAC     DO2      DRUD    -2.776500        0.4000           0   0.00000   0.00000
     16264 HOAC     233      HOAC     H        HDP1A    0.374000        1.0080           0   0.00000   0.00000
     16265 HOAC     233      HOAC     LPO11    LPD     -0.319000        0.0000           -1   0.00000   0.00000
     16266 HOAC     233      HOAC     LPO12    LPD     -0.319000        0.0000           -1   0.00000   0.00000
     16267 HOAC     233      HOAC     LPO21    LPD     -0.285000        0.0000           -1   0.00000   0.00000
     16268 HOAC     233      HOAC     LPO22    LPD     -0.285000        0.0000           -1   0.00000   0.00000
     16269 HOAC     234      HOAC     C1       CD2O3A   3.554200       11.6110           0   -1.20700   0.708000
     16270 HOAC     234      HOAC     DC1      DRUD    -2.696200        0.4000           0   0.00000   0.00000
     16271 HOAC     234      HOAC     C2       CD33C    3.268200       11.6110           0   -2.11400   0.750000
     16272 HOAC     234      HOAC     DC2      DRUD    -3.568200        0.4000           0   0.00000   0.00000
     16273 HOAC     234      HOAC     H1       HDA3A    0.092000        1.0080           0   0.00000   0.00000
     16274 HOAC     234      HOAC     H2       HDA3A    0.092000        1.0080           0   0.00000   0.00000
     16275 HOAC     234      HOAC     H3       HDA3A    0.092000        1.0080           0   0.00000   0.00000
     16276 HOAC     234      HOAC     O1       OD2C3A   2.356500       15.5994           0   -0.922000   1.53900
     16277 HOAC     234      HOAC     DO1      DRUD    -2.356500        0.4000           0   0.00000   0.00000
     16278 HOAC     234      HOAC     O2       OD31F    2.776500       15.5990           0   -1.28000   1.12400
     16279 HOAC     234      HOAC     DO2      DRUD    -2.776500        0.4000           0   0.00000   0.00000
     16280 HOAC     234      HOAC     H        HDP1A    0.374000        1.0080           0   0.00000   0.00000
     16281 HOAC     234      HOAC     LPO11    LPD     -0.319000        0.0000           -1   0.00000   0.00000
     16282 HOAC     234      HOAC     LPO12    LPD     -0.319000        0.0000           -1   0.00000   0.00000
     16283 HOAC     234      HOAC     LPO21    LPD     -0.285000        0.0000           -1   0.00000   0.00000
     16284 HOAC     234      HOAC     LPO22    LPD     -0.285000        0.0000           -1   0.00000   0.00000
     16285 HOAC     235      HOAC     C1       CD2O3A   3.554200       11.6110           0   -1.20700   0.708000
     16286 HOAC     235      HOAC     DC1      DRUD    -2.696200        0.4000           0   0.00000   0.00000
     16287 HOAC     235      HOAC     C2       CD33C    3.268200       11.6110           0   -2.11400   0.750000
     16288 HOAC     235      HOAC     DC2      DRUD    -3.568200        0.4000           0   0.00000   0.00000
     16289 HOAC     235      HOAC     H1       HDA3A    0.092000        1.0080           0   0.00000   0.00000
     16290 HOAC     235      HOAC     H2       HDA3A    0.092000        1.0080           0   0.00000   0.00000
     16291 HOAC     235      HOAC     H3       HDA3A    0.092000        1.0080           0   0.00000   0.00000
     16292 HOAC     235      HOAC     O1       OD2C3A   2.356500       15.5994           0   -0.922000   1.53900
     16293 HOAC     235      HOAC     DO1      DRUD    -2.356500        0.4000           0   0.00000   0.00000
     16294 HOAC     235      HOAC     O2       OD31F    2.776500       15.5990           0   -1.28000   1.12400
     16295 HOAC     235      HOAC     DO2      DRUD    -2.776500        0.4000           0   0.00000   0.00000
     16296 HOAC     235      HOAC     H        HDP1A    0.374000        1.0080           0   0.00000   0.00000
     16297 HOAC     235      HOAC     LPO11    LPD     -0.319000        0.0000           -1   0.00000   0.00000
     16298 HOAC     235      HOAC     LPO12    LPD     -0.319000        0.0000           -1   0.00000   0.00000
     16299 HOAC     235      HOAC     LPO21    LPD     -0.285000        0.0000           -1   0.00000   0.00000
     16300 HOAC     235      HOAC     LPO22    LPD     -0.285000        0.0000           -1   0.00000   0.00000
     16301 HOAC     236      HOAC     C1       CD2O3A   3.554200       11.6110           0   -1.20700   0.708000
     16302 HOAC     236      HOAC     DC1      DRUD    -2.696200        0.4000           0   0.00000   0.00000
     16303 HOAC     236      HOAC     C2       CD33C    3.268200       11.6110           0   -2.11400   0.750000
     16304 HOAC     236      HOAC     DC2      DRUD    -3.568200        0.4000           0   0.00000   0.00000
     16305 HOAC     236      HOAC     H1       HDA3A    0.092000        1.0080           0   0.00000   0.00000
     16306 HOAC     236      HOAC     H2       HDA3A    0.092000        1.0080           0   0.00000   0.00000
     16307 HOAC     236      HOAC     H3       HDA3A    0.092000        1.0080           0   0.00000   0.00000
     16308 HOAC     236      HOAC     O1       OD2C3A   2.356500       15.5994           0   -0.922000   1.53900
     16309 HOAC     236      HOAC     DO1      DRUD    -2.356500        0.4000           0   0.00000   0.00000
     16310 HOAC     236      HOAC     O2       OD31F    2.776500       15.5990           0   -1.28000   1.12400
     16311 HOAC     236      HOAC     DO2      DRUD    -2.776500        0.4000           0   0.00000   0.00000
     16312 HOAC     236      HOAC     H        HDP1A    0.374000        1.0080           0   0.00000   0.00000
     16313 HOAC     236      HOAC     LPO11    LPD     -0.319000        0.0000           -1   0.00000   0.00000
     16314 HOAC     236      HOAC     LPO12    LPD     -0.319000        0.0000           -1   0.00000   0.00000
     16315 HOAC     236      HOAC     LPO21    LPD     -0.285000        0.0000           -1   0.00000   0.00000
     16316 HOAC     236      HOAC     LPO22    LPD     -0.285000        0.0000           -1   0.00000   0.00000
     16317 HOAC     237      HOAC     C1       CD2O3A   3.554200       11.6110           0   -1.20700   0.708000
     16318 HOAC     237      HOAC     DC1      DRUD    -2.696200        0.4000           0   0.00000   0.00000
     16319 HOAC     237      HOAC     C2       CD33C    3.268200       11.6110           0   -2.11400   0.750000
     16320 HOAC     237      HOAC     DC2      DRUD    -3.568200        0.4000           0   0.00000   0.00000
     16321 HOAC     237      HOAC     H1       HDA3A    0.092000        1.0080           0   0.00000   0.00000
     16322 HOAC     237      HOAC     H2       HDA3A    0.092000        1.0080           0   0.00000   0.00000
     16323 HOAC     237      HOAC     H3       HDA3A    0.092000        1.0080           0   0.00000   0.00000
     16324 HOAC     237      HOAC     O1       OD2C3A   2.356500       15.5994           0   -0.922000   1.53900
     16325 HOAC     237      HOAC     DO1      DRUD    -2.356500        0.4000           0   0.00000   0.00000
     16326 HOAC     237      HOAC     O2       OD31F    2.776500       15.5990           0   -1.28000   1.12400
     16327 HOAC     237      HOAC     DO2      DRUD    -2.776500        0.4000           0   0.00000   0.00000
     16328 HOAC     237      HOAC     H        HDP1A    0.374000        1.0080           0   0.00000   0.00000
     16329 HOAC     237      HOAC     LPO11    LPD     -0.319000        0.0000           -1   0.00000   0.00000
     16330 HOAC     237      HOAC     LPO12    LPD     -0.319000        0.0000           -1   0.00000   0.00000
     16331 HOAC     237      HOAC     LPO21    LPD     -0.285000        0.0000           -1   0.00000   0.00000
     16332 HOAC     237      HOAC     LPO22    LPD     -0.285000        0.0000           -1   0.00000   0.00000
     16333 HOAC     238      HOAC     C1       CD2O3A   3.554200       11.6110           0   -1.20700   0.708000
     16334 HOAC     238      HOAC     DC1      DRUD    -2.696200        0.4000           0   0.00000   0.00000
     16335 HOAC     238      HOAC     C2       CD33C    3.268200       11.6110           0   -2.11400   0.750000
     16336 HOAC     238      HOAC     DC2      DRUD    -3.568200        0.4000           0   0.00000   0.00000
     16337 HOAC     238      HOAC     H1       HDA3A    0.092000        1.0080           0   0.00000   0.00000
     16338 HOAC     238      HOAC     H2       HDA3A    0.092000        1.0080           0   0.00000   0.00000
     16339 HOAC     238      HOAC     H3       HDA3A    0.092000        1.0080           0   0.00000   0.00000
     16340 HOAC     238      HOAC     O1       OD2C3A   2.356500       15.5994           0   -0.922000   1.53900
     16341 HOAC     238      HOAC     DO1      DRUD    -2.356500        0.4000           0   0.00000   0.00000
     16342 HOAC     238      HOAC     O2       OD31F    2.776500       15.5990           0   -1.28000   1.12400
     16343 HOAC     238      HOAC     DO2      DRUD    -2.776500        0.4000           0   0.00000   0.00000
     16344 HOAC     238      HOAC     H        HDP1A    0.374000        1.0080           0   0.00000   0.00000
     16345 HOAC     238      HOAC     LPO11    LPD     -0.319000        0.0000           -1   0.00000   0.00000
     16346 HOAC     238      HOAC     LPO12    LPD     -0.319000        0.0000           -1   0.00000   0.00000
     16347 HOAC     238      HOAC     LPO21    LPD     -0.285000        0.0000           -1   0.00000   0.00000
     16348 HOAC     238      HOAC     LPO22    LPD     -0.285000        0.0000           -1   0.00000   0.00000
     16349 HOAC     239      HOAC     C1       CD2O3A   3.554200       11.6110           0   -1.20700   0.708000
     16350 HOAC     239      HOAC     DC1      DRUD    -2.696200        0.4000           0   0.00000   0.00000
     16351 HOAC     239      HOAC     C2       CD33C    3.268200       11.6110           0   -2.11400   0.750000
     16352 HOAC     239      HOAC     DC2      DRUD    -3.568200        0.4000           0   0.00000   0.00000
     16353 HOAC     239      HOAC     H1       HDA3A    0.092000        1.0080           0   0.00000   0.00000
     16354 HOAC     239      HOAC     H2       HDA3A    0.092000        1.0080           0   0.00000   0.00000
     16355 HOAC     239      HOAC     H3       HDA3A    0.092000        1.0080           0   0.00000   0.00000
     16356 HOAC     239      HOAC     O1       OD2C3A   2.356500       15.5994           0   -0.922000   1.53900
     16357 HOAC     239      HOAC     DO1      DRUD    -2.356500        0.4000           0   0.00000   0.00000
     16358 HOAC     239      HOAC     O2       OD31F    2.776500       15.5990           0   -1.28000   1.12400
     16359 HOAC     239      HOAC     DO2      DRUD    -2.776500        0.4000           0   0.00000   0.00000
     16360 HOAC     239      HOAC     H        HDP1A    0.374000        1.0080           0   0.00000   0.00000
     16361 HOAC     239      HOAC     LPO11    LPD     -0.319000        0.0000           -1   0.00000   0.00000
     16362 HOAC     239      HOAC     LPO12    LPD     -0.319000        0.0000           -1   0.00000   0.00000
     16363 HOAC     239      HOAC     LPO21    LPD     -0.285000        0.0000           -1   0.00000   0.00000
     16364 HOAC     239      HOAC     LPO22    LPD     -0.285000        0.0000           -1   0.00000   0.00000
     16365 HOAC     240      HOAC     C1       CD2O3A   3.554200       11.6110           0   -1.20700   0.708000
     16366 HOAC     240      HOAC     DC1      DRUD    -2.696200        0.4000           0   0.00000   0.00000
     16367 HOAC     240      HOAC     C2       CD33C    3.268200       11.6110           0   -2.11400   0.750000
     16368 HOAC     240      HOAC     DC2      DRUD    -3.568200        0.4000           0   0.00000   0.00000
     16369 HOAC     240      HOAC     H1       HDA3A    0.092000        1.0080           0   0.00000   0.00000
     16370 HOAC     240      HOAC     H2       HDA3A    0.092000        1.0080           0   0.00000   0.00000
     16371 HOAC     240      HOAC     H3       HDA3A    0.092000        1.0080           0   0.00000   0.00000
     16372 HOAC     240      HOAC     O1       OD2C3A   2.356500       15.5994           0   -0.922000   1.53900
     16373 HOAC     240      HOAC     DO1      DRUD    -2.356500        0.4000           0   0.00000   0.00000
     16374 HOAC     240      HOAC     O2       OD31F    2.776500       15.5990           0   -1.28000   1.12400
     16375 HOAC     240      HOAC     DO2      DRUD    -2.776500        0.4000           0   0.00000   0.00000
     16376 HOAC     240      HOAC     H        HDP1A    0.374000        1.0080           0   0.00000   0.00000
     16377 HOAC     240      HOAC     LPO11    LPD     -0.319000        0.0000           -1   0.00000   0.00000
     16378 HOAC     240      HOAC     LPO12    LPD     -0.319000        0.0000           -1   0.00000   0.00000
     16379 HOAC     240      HOAC     LPO21    LPD     -0.285000        0.0000           -1   0.00000   0.00000
     16380 HOAC     240      HOAC     LPO22    LPD     -0.285000        0.0000           -1   0.00000   0.00000
     16381 HOAC     241      HOAC     C1       CD2O3A   3.554200       11.6110           0   -1.20700   0.708000
     16382 HOAC     241      HOAC     DC1      DRUD    -2.696200        0.4000           0   0.00000   0.00000
     16383 HOAC     241      HOAC     C2       CD33C    3.268200       11.6110           0   -2.11400   0.750000
     16384 HOAC     241      HOAC     DC2      DRUD    -3.568200        0.4000           0   0.00000   0.00000
     16385 HOAC     241      HOAC     H1       HDA3A    0.092000        1.0080           0   0.00000   0.00000
     16386 HOAC     241      HOAC     H2       HDA3A    0.092000        1.0080           0   0.00000   0.00000
     16387 HOAC     241      HOAC     H3       HDA3A    0.092000        1.0080           0   0.00000   0.00000
     16388 HOAC     241      HOAC     O1       OD2C3A   2.356500       15.5994           0   -0.922000   1.53900
     16389 HOAC     241      HOAC     DO1      DRUD    -2.356500        0.4000           0   0.00000   0.00000
     16390 HOAC     241      HOAC     O2       OD31F    2.776500       15.5990           0   -1.28000   1.12400
     16391 HOAC     241      HOAC     DO2      DRUD    -2.776500        0.4000           0   0.00000   0.00000
     16392 HOAC     241      HOAC     H        HDP1A    0.374000        1.0080           0   0.00000   0.00000
     16393 HOAC     241      HOAC     LPO11    LPD     -0.319000        0.0000           -1   0.00000   0.00000
     16394 HOAC     241      HOAC     LPO12    LPD     -0.319000        0.0000           -1   0.00000   0.00000
     16395 HOAC     241      HOAC     LPO21    LPD     -0.285000        0.0000           -1   0.00000   0.00000
     16396 HOAC     241      HOAC     LPO22    LPD     -0.285000        0.0000           -1   0.00000   0.00000
     16397 HOAC     242      HOAC     C1       CD2O3A   3.554200       11.6110           0   -1.20700   0.708000
     16398 HOAC     242      HOAC     DC1      DRUD    -2.696200        0.4000           0   0.00000   0.00000
     16399 HOAC     242      HOAC     C2       CD33C    3.268200       11.6110           0   -2.11400   0.750000
     16400 HOAC     242      HOAC     DC2      DRUD    -3.568200        0.4000           0   0.00000   0.00000
     16401 HOAC     242      HOAC     H1       HDA3A    0.092000        1.0080           0   0.00000   0.00000
     16402 HOAC     242      HOAC     H2       HDA3A    0.092000        1.0080           0   0.00000   0.00000
     16403 HOAC     242      HOAC     H3       HDA3A    0.092000        1.0080           0   0.00000   0.00000
     16404 HOAC     242      HOAC     O1       OD2C3A   2.356500       15.5994           0   -0.922000   1.53900
     16405 HOAC     242      HOAC     DO1      DRUD    -2.356500        0.4000           0   0.00000   0.00000
     16406 HOAC     242      HOAC     O2       OD31F    2.776500       15.5990           0   -1.28000   1.12400
     16407 HOAC     242      HOAC     DO2      DRUD    -2.776500        0.4000           0   0.00000   0.00000
     16408 HOAC     242      HOAC     H        HDP1A    0.374000        1.0080           0   0.00000   0.00000
     16409 HOAC     242      HOAC     LPO11    LPD     -0.319000        0.0000           -1   0.00000   0.00000
     16410 HOAC     242      HOAC     LPO12    LPD     -0.319000        0.0000           -1   0.00000   0.00000
     16411 HOAC     242      HOAC     LPO21    LPD     -0.285000        0.0000           -1   0.00000   0.00000
     16412 HOAC     242      HOAC     LPO22    LPD     -0.285000        0.0000           -1   0.00000   0.00000
     16413 HOAC     243      HOAC     C1       CD2O3A   3.554200       11.6110           0   -1.20700   0.708000
     16414 HOAC     243      HOAC     DC1      DRUD    -2.696200        0.4000           0   0.00000   0.00000
     16415 HOAC     243      HOAC     C2       CD33C    3.268200       11.6110           0   -2.11400   0.750000
     16416 HOAC     243      HOAC     DC2      DRUD    -3.568200        0.4000           0   0.00000   0.00000
     16417 HOAC     243      HOAC     H1       HDA3A    0.092000        1.0080           0   0.00000   0.00000
     16418 HOAC     243      HOAC     H2       HDA3A    0.092000        1.0080           0   0.00000   0.00000
     16419 HOAC     243      HOAC     H3       HDA3A    0.092000        1.0080           0   0.00000   0.00000
     16420 HOAC     243      HOAC     O1       OD2C3A   2.356500       15.5994           0   -0.922000   1.53900
     16421 HOAC     243      HOAC     DO1      DRUD    -2.356500        0.4000           0   0.00000   0.00000
     16422 HOAC     243      HOAC     O2       OD31F    2.776500       15.5990           0   -1.28000   1.12400
     16423 HOAC     243      HOAC     DO2      DRUD    -2.776500        0.4000           0   0.00000   0.00000
     16424 HOAC     243      HOAC     H        HDP1A    0.374000        1.0080           0   0.00000   0.00000
     16425 HOAC     243      HOAC     LPO11    LPD     -0.319000        0.0000           -1   0.00000   0.00000
     16426 HOAC     243      HOAC     LPO12    LPD     -0.319000        0.0000           -1   0.00000   0.00000
     16427 HOAC     243      HOAC     LPO21    LPD     -0.285000        0.0000           -1   0.00000   0.00000
     16428 HOAC     243      HOAC     LPO22    LPD     -0.285000        0.0000           -1   0.00000   0.00000
     16429 HOAC     244      HOAC     C1       CD2O3A   3.554200       11.6110           0   -1.20700   0.708000
     16430 HOAC     244      HOAC     DC1      DRUD    -2.696200        0.4000           0   0.00000   0.00000
     16431 HOAC     244      HOAC     C2       CD33C    3.268200       11.6110           0   -2.11400   0.750000
     16432 HOAC     244      HOAC     DC2      DRUD    -3.568200        0.4000           0   0.00000   0.00000
     16433 HOAC     244      HOAC     H1       HDA3A    0.092000        1.0080           0   0.00000   0.00000
     16434 HOAC     244      HOAC     H2       HDA3A    0.092000        1.0080           0   0.00000   0.00000
     16435 HOAC     244      HOAC     H3       HDA3A    0.092000        1.0080           0   0.00000   0.00000
     16436 HOAC     244      HOAC     O1       OD2C3A   2.356500       15.5994           0   -0.922000   1.53900
     16437 HOAC     244      HOAC     DO1      DRUD    -2.356500        0.4000           0   0.00000   0.00000
     16438 HOAC     244      HOAC     O2       OD31F    2.776500       15.5990           0   -1.28000   1.12400
     16439 HOAC     244      HOAC     DO2      DRUD    -2.776500        0.4000           0   0.00000   0.00000
     16440 HOAC     244      HOAC     H        HDP1A    0.374000        1.0080           0   0.00000   0.00000
     16441 HOAC     244      HOAC     LPO11    LPD     -0.319000        0.0000           -1   0.00000   0.00000
     16442 HOAC     244      HOAC     LPO12    LPD     -0.319000        0.0000           -1   0.00000   0.00000
     16443 HOAC     244      HOAC     LPO21    LPD     -0.285000        0.0000           -1   0.00000   0.00000
     16444 HOAC     244      HOAC     LPO22    LPD     -0.285000        0.0000           -1   0.00000   0.00000
     16445 HOAC     245      HOAC     C1       CD2O3A   3.554200       11.6110           0   -1.20700   0.708000
     16446 HOAC     245      HOAC     DC1      DRUD    -2.696200        0.4000           0   0.00000   0.00000
     16447 HOAC     245      HOAC     C2       CD33C    3.268200       11.6110           0   -2.11400   0.750000
     16448 HOAC     245      HOAC     DC2      DRUD    -3.568200        0.4000           0   0.00000   0.00000
     16449 HOAC     245      HOAC     H1       HDA3A    0.092000        1.0080           0   0.00000   0.00000
     16450 HOAC     245      HOAC     H2       HDA3A    0.092000        1.0080           0   0.00000   0.00000
     16451 HOAC     245      HOAC     H3       HDA3A    0.092000        1.0080           0   0.00000   0.00000
     16452 HOAC     245      HOAC     O1       OD2C3A   2.356500       15.5994           0   -0.922000   1.53900
     16453 HOAC     245      HOAC     DO1      DRUD    -2.356500        0.4000           0   0.00000   0.00000
     16454 HOAC     245      HOAC     O2       OD31F    2.776500       15.5990           0   -1.28000   1.12400
     16455 HOAC     245      HOAC     DO2      DRUD    -2.776500        0.4000           0   0.00000   0.00000
     16456 HOAC     245      HOAC     H        HDP1A    0.374000        1.0080           0   0.00000   0.00000
     16457 HOAC     245      HOAC     LPO11    LPD     -0.319000        0.0000           -1   0.00000   0.00000
     16458 HOAC     245      HOAC     LPO12    LPD     -0.319000        0.0000           -1   0.00000   0.00000
     16459 HOAC     245      HOAC     LPO21    LPD     -0.285000        0.0000           -1   0.00000   0.00000
     16460 HOAC     245      HOAC     LPO22    LPD     -0.285000        0.0000           -1   0.00000   0.00000
     16461 HOAC     246      HOAC     C1       CD2O3A   3.554200       11.6110           0   -1.20700   0.708000
     16462 HOAC     246      HOAC     DC1      DRUD    -2.696200        0.4000           0   0.00000   0.00000
     16463 HOAC     246      HOAC     C2       CD33C    3.268200       11.6110           0   -2.11400   0.750000
     16464 HOAC     246      HOAC     DC2      DRUD    -3.568200        0.4000           0   0.00000   0.00000
     16465 HOAC     246      HOAC     H1       HDA3A    0.092000        1.0080           0   0.00000   0.00000
     16466 HOAC     246      HOAC     H2       HDA3A    0.092000        1.0080           0   0.00000   0.00000
     16467 HOAC     246      HOAC     H3       HDA3A    0.092000        1.0080           0   0.00000   0.00000
     16468 HOAC     246      HOAC     O1       OD2C3A   2.356500       15.5994           0   -0.922000   1.53900
     16469 HOAC     246      HOAC     DO1      DRUD    -2.356500        0.4000           0   0.00000   0.00000
     16470 HOAC     246      HOAC     O2       OD31F    2.776500       15.5990           0   -1.28000   1.12400
     16471 HOAC     246      HOAC     DO2      DRUD    -2.776500        0.4000           0   0.00000   0.00000
     16472 HOAC     246      HOAC     H        HDP1A    0.374000        1.0080           0   0.00000   0.00000
     16473 HOAC     246      HOAC     LPO11    LPD     -0.319000        0.0000           -1   0.00000   0.00000
     16474 HOAC     246      HOAC     LPO12    LPD     -0.319000        0.0000           -1   0.00000   0.00000
     16475 HOAC     246      HOAC     LPO21    LPD     -0.285000        0.0000           -1   0.00000   0.00000
     16476 HOAC     246      HOAC     LPO22    LPD     -0.285000        0.0000           -1   0.00000   0.00000
     16477 HOAC     247      HOAC     C1       CD2O3A   3.554200       11.6110           0   -1.20700   0.708000
     16478 HOAC     247      HOAC     DC1      DRUD    -2.696200        0.4000           0   0.00000   0.00000
     16479 HOAC     247      HOAC     C2       CD33C    3.268200       11.6110           0   -2.11400   0.750000
     16480 HOAC     247      HOAC     DC2      DRUD    -3.568200        0.4000           0   0.00000   0.00000
     16481 HOAC     247      HOAC     H1       HDA3A    0.092000        1.0080           0   0.00000   0.00000
     16482 HOAC     247      HOAC     H2       HDA3A    0.092000        1.0080           0   0.00000   0.00000
     16483 HOAC     247      HOAC     H3       HDA3A    0.092000        1.0080           0   0.00000   0.00000
     16484 HOAC     247      HOAC     O1       OD2C3A   2.356500       15.5994           0   -0.922000   1.53900
     16485 HOAC     247      HOAC     DO1      DRUD    -2.356500        0.4000           0   0.00000   0.00000
     16486 HOAC     247      HOAC     O2       OD31F    2.776500       15.5990           0   -1.28000   1.12400
     16487 HOAC     247      HOAC     DO2      DRUD    -2.776500        0.4000           0   0.00000   0.00000
     16488 HOAC     247      HOAC     H        HDP1A    0.374000        1.0080           0   0.00000   0.00000
     16489 HOAC     247      HOAC     LPO11    LPD     -0.319000        0.0000           -1   0.00000   0.00000
     16490 HOAC     247      HOAC     LPO12    LPD     -0.319000        0.0000           -1   0.00000   0.00000
     16491 HOAC     247      HOAC     LPO21    LPD     -0.285000        0.0000           -1   0.00000   0.00000
     16492 HOAC     247      HOAC     LPO22    LPD     -0.285000        0.0000           -1   0.00000   0.00000
     16493 HOAC     248      HOAC     C1       CD2O3A   3.554200       11.6110           0   -1.20700   0.708000
     16494 HOAC     248      HOAC     DC1      DRUD    -2.696200        0.4000           0   0.00000   0.00000
     16495 HOAC     248      HOAC     C2       CD33C    3.268200       11.6110           0   -2.11400   0.750000
     16496 HOAC     248      HOAC     DC2      DRUD    -3.568200        0.4000           0   0.00000   0.00000
     16497 HOAC     248      HOAC     H1       HDA3A    0.092000        1.0080           0   0.00000   0.00000
     16498 HOAC     248      HOAC     H2       HDA3A    0.092000        1.0080           0   0.00000   0.00000
     16499 HOAC     248      HOAC     H3       HDA3A    0.092000        1.0080           0   0.00000   0.00000
     16500 HOAC     248      HOAC     O1       OD2C3A   2.356500       15.5994           0   -0.922000   1.53900
     16501 HOAC     248      HOAC     DO1      DRUD    -2.356500        0.4000           0   0.00000   0.00000
     16502 HOAC     248      HOAC     O2       OD31F    2.776500       15.5990           0   -1.28000   1.12400
     16503 HOAC     248      HOAC     DO2      DRUD    -2.776500        0.4000           0   0.00000   0.00000
     16504 HOAC     248      HOAC     H        HDP1A    0.374000        1.0080           0   0.00000   0.00000
     16505 HOAC     248      HOAC     LPO11    LPD     -0.319000        0.0000           -1   0.00000   0.00000
     16506 HOAC     248      HOAC     LPO12    LPD     -0.319000        0.0000           -1   0.00000   0.00000
     16507 HOAC     248      HOAC     LPO21    LPD     -0.285000        0.0000           -1   0.00000   0.00000
     16508 HOAC     248      HOAC     LPO22    LPD     -0.285000        0.0000           -1   0.00000   0.00000
     16509 HOAC     249      HOAC     C1       CD2O3A   3.554200       11.6110           0   -1.20700   0.708000
     16510 HOAC     249      HOAC     DC1      DRUD    -2.696200        0.4000           0   0.00000   0.00000
     16511 HOAC     249      HOAC     C2       CD33C    3.268200       11.6110           0   -2.11400   0.750000
     16512 HOAC     249      HOAC     DC2      DRUD    -3.568200        0.4000           0   0.00000   0.00000
     16513 HOAC     249      HOAC     H1       HDA3A    0.092000        1.0080           0   0.00000   0.00000
     16514 HOAC     249      HOAC     H2       HDA3A    0.092000        1.0080           0   0.00000   0.00000
     16515 HOAC     249      HOAC     H3       HDA3A    0.092000        1.0080           0   0.00000   0.00000
     16516 HOAC     249      HOAC     O1       OD2C3A   2.356500       15.5994           0   -0.922000   1.53900
     16517 HOAC     249      HOAC     DO1      DRUD    -2.356500        0.4000           0   0.00000   0.00000
     16518 HOAC     249      HOAC     O2       OD31F    2.776500       15.5990           0   -1.28000   1.12400
     16519 HOAC     249      HOAC     DO2      DRUD    -2.776500        0.4000           0   0.00000   0.00000
     16520 HOAC     249      HOAC     H        HDP1A    0.374000        1.0080           0   0.00000   0.00000
     16521 HOAC     249      HOAC     LPO11    LPD     -0.319000        0.0000           -1   0.00000   0.00000
     16522 HOAC     249      HOAC     LPO12    LPD     -0.319000        0.0000           -1   0.00000   0.00000
     16523 HOAC     249      HOAC     LPO21    LPD     -0.285000        0.0000           -1   0.00000   0.00000
     16524 HOAC     249      HOAC     LPO22    LPD     -0.285000        0.0000           -1   0.00000   0.00000
     16525 HOAC     250      HOAC     C1       CD2O3A   3.554200       11.6110           0   -1.20700   0.708000
     16526 HOAC     250      HOAC     DC1      DRUD    -2.696200        0.4000           0   0.00000   0.00000
     16527 HOAC     250      HOAC     C2       CD33C    3.268200       11.6110           0   -2.11400   0.750000
     16528 HOAC     250      HOAC     DC2      DRUD    -3.568200        0.4000           0   0.00000   0.00000
     16529 HOAC     250      HOAC     H1       HDA3A    0.092000        1.0080           0   0.00000   0.00000
     16530 HOAC     250      HOAC     H2       HDA3A    0.092000        1.0080           0   0.00000   0.00000
     16531 HOAC     250      HOAC     H3       HDA3A    0.092000        1.0080           0   0.00000   0.00000
     16532 HOAC     250      HOAC     O1       OD2C3A   2.356500       15.5994           0   -0.922000   1.53900
     16533 HOAC     250      HOAC     DO1      DRUD    -2.356500        0.4000           0   0.00000   0.00000
     16534 HOAC     250      HOAC     O2       OD31F    2.776500       15.5990           0   -1.28000   1.12400
     16535 HOAC     250      HOAC     DO2      DRUD    -2.776500        0.4000           0   0.00000   0.00000
     16536 HOAC     250      HOAC     H        HDP1A    0.374000        1.0080           0   0.00000   0.00000
     16537 HOAC     250      HOAC     LPO11    LPD     -0.319000        0.0000           -1   0.00000   0.00000
     16538 HOAC     250      HOAC     LPO12    LPD     -0.319000        0.0000           -1   0.00000   0.00000
     16539 HOAC     250      HOAC     LPO21    LPD     -0.285000        0.0000           -1   0.00000   0.00000
     16540 HOAC     250      HOAC     LPO22    LPD     -0.285000        0.0000           -1   0.00000   0.00000
     16541 HOAC     251      HOAC     C1       CD2O3A   3.554200       11.6110           0   -1.20700   0.708000
     16542 HOAC     251      HOAC     DC1      DRUD    -2.696200        0.4000           0   0.00000   0.00000
     16543 HOAC     251      HOAC     C2       CD33C    3.268200       11.6110           0   -2.11400   0.750000
     16544 HOAC     251      HOAC     DC2      DRUD    -3.568200        0.4000           0   0.00000   0.00000
     16545 HOAC     251      HOAC     H1       HDA3A    0.092000        1.0080           0   0.00000   0.00000
     16546 HOAC     251      HOAC     H2       HDA3A    0.092000        1.0080           0   0.00000   0.00000
     16547 HOAC     251      HOAC     H3       HDA3A    0.092000        1.0080           0   0.00000   0.00000
     16548 HOAC     251      HOAC     O1       OD2C3A   2.356500       15.5994           0   -0.922000   1.53900
     16549 HOAC     251      HOAC     DO1      DRUD    -2.356500        0.4000           0   0.00000   0.00000
     16550 HOAC     251      HOAC     O2       OD31F    2.776500       15.5990           0   -1.28000   1.12400
     16551 HOAC     251      HOAC     DO2      DRUD    -2.776500        0.4000           0   0.00000   0.00000
     16552 HOAC     251      HOAC     H        HDP1A    0.374000        1.0080           0   0.00000   0.00000
     16553 HOAC     251      HOAC     LPO11    LPD     -0.319000        0.0000           -1   0.00000   0.00000
     16554 HOAC     251      HOAC     LPO12    LPD     -0.319000        0.0000           -1   0.00000   0.00000
     16555 HOAC     251      HOAC     LPO21    LPD     -0.285000        0.0000           -1   0.00000   0.00000
     16556 HOAC     251      HOAC     LPO22    LPD     -0.285000        0.0000           -1   0.00000   0.00000
     16557 HOAC     252      HOAC     C1       CD2O3A   3.554200       11.6110           0   -1.20700   0.708000
     16558 HOAC     252      HOAC     DC1      DRUD    -2.696200        0.4000           0   0.00000   0.00000
     16559 HOAC     252      HOAC     C2       CD33C    3.268200       11.6110           0   -2.11400   0.750000
     16560 HOAC     252      HOAC     DC2      DRUD    -3.568200        0.4000           0   0.00000   0.00000
     16561 HOAC     252      HOAC     H1       HDA3A    0.092000        1.0080           0   0.00000   0.00000
     16562 HOAC     252      HOAC     H2       HDA3A    0.092000        1.0080           0   0.00000   0.00000
     16563 HOAC     252      HOAC     H3       HDA3A    0.092000        1.0080           0   0.00000   0.00000
     16564 HOAC     252      HOAC     O1       OD2C3A   2.356500       15.5994           0   -0.922000   1.53900
     16565 HOAC     252      HOAC     DO1      DRUD    -2.356500        0.4000           0   0.00000   0.00000
     16566 HOAC     252      HOAC     O2       OD31F    2.776500       15.5990           0   -1.28000   1.12400
     16567 HOAC     252      HOAC     DO2      DRUD    -2.776500        0.4000           0   0.00000   0.00000
     16568 HOAC     252      HOAC     H        HDP1A    0.374000        1.0080           0   0.00000   0.00000
     16569 HOAC     252      HOAC     LPO11    LPD     -0.319000        0.0000           -1   0.00000   0.00000
     16570 HOAC     252      HOAC     LPO12    LPD     -0.319000        0.0000           -1   0.00000   0.00000
     16571 HOAC     252      HOAC     LPO21    LPD     -0.285000        0.0000           -1   0.00000   0.00000
     16572 HOAC     252      HOAC     LPO22    LPD     -0.285000        0.0000           -1   0.00000   0.00000
     16573 HOAC     253      HOAC     C1       CD2O3A   3.554200       11.6110           0   -1.20700   0.708000
     16574 HOAC     253      HOAC     DC1      DRUD    -2.696200        0.4000           0   0.00000   0.00000
     16575 HOAC     253      HOAC     C2       CD33C    3.268200       11.6110           0   -2.11400   0.750000
     16576 HOAC     253      HOAC     DC2      DRUD    -3.568200        0.4000           0   0.00000   0.00000
     16577 HOAC     253      HOAC     H1       HDA3A    0.092000        1.0080           0   0.00000   0.00000
     16578 HOAC     253      HOAC     H2       HDA3A    0.092000        1.0080           0   0.00000   0.00000
     16579 HOAC     253      HOAC     H3       HDA3A    0.092000        1.0080           0   0.00000   0.00000
     16580 HOAC     253      HOAC     O1       OD2C3A   2.356500       15.5994           0   -0.922000   1.53900
     16581 HOAC     253      HOAC     DO1      DRUD    -2.356500        0.4000           0   0.00000   0.00000
     16582 HOAC     253      HOAC     O2       OD31F    2.776500       15.5990           0   -1.28000   1.12400
     16583 HOAC     253      HOAC     DO2      DRUD    -2.776500        0.4000           0   0.00000   0.00000
     16584 HOAC     253      HOAC     H        HDP1A    0.374000        1.0080           0   0.00000   0.00000
     16585 HOAC     253      HOAC     LPO11    LPD     -0.319000        0.0000           -1   0.00000   0.00000
     16586 HOAC     253      HOAC     LPO12    LPD     -0.319000        0.0000           -1   0.00000   0.00000
     16587 HOAC     253      HOAC     LPO21    LPD     -0.285000        0.0000           -1   0.00000   0.00000
     16588 HOAC     253      HOAC     LPO22    LPD     -0.285000        0.0000           -1   0.00000   0.00000
     16589 HOAC     254      HOAC     C1       CD2O3A   3.554200       11.6110           0   -1.20700   0.708000
     16590 HOAC     254      HOAC     DC1      DRUD    -2.696200        0.4000           0   0.00000   0.00000
     16591 HOAC     254      HOAC     C2       CD33C    3.268200       11.6110           0   -2.11400   0.750000
     16592 HOAC     254      HOAC     DC2      DRUD    -3.568200        0.4000           0   0.00000   0.00000
     16593 HOAC     254      HOAC     H1       HDA3A    0.092000        1.0080           0   0.00000   0.00000
     16594 HOAC     254      HOAC     H2       HDA3A    0.092000        1.0080           0   0.00000   0.00000
     16595 HOAC     254      HOAC     H3       HDA3A    0.092000        1.0080           0   0.00000   0.00000
     16596 HOAC     254      HOAC     O1       OD2C3A   2.356500       15.5994           0   -0.922000   1.53900
     16597 HOAC     254      HOAC     DO1      DRUD    -2.356500        0.4000           0   0.00000   0.00000
     16598 HOAC     254      HOAC     O2       OD31F    2.776500       15.5990           0   -1.28000   1.12400
     16599 HOAC     254      HOAC     DO2      DRUD    -2.776500        0.4000           0   0.00000   0.00000
     16600 HOAC     254      HOAC     H        HDP1A    0.374000        1.0080           0   0.00000   0.00000
     16601 HOAC     254      HOAC     LPO11    LPD     -0.319000        0.0000           -1   0.00000   0.00000
     16602 HOAC     254      HOAC     LPO12    LPD     -0.319000        0.0000           -1   0.00000   0.00000
     16603 HOAC     254      HOAC     LPO21    LPD     -0.285000        0.0000           -1   0.00000   0.00000
     16604 HOAC     254      HOAC     LPO22    LPD     -0.285000        0.0000           -1   0.00000   0.00000
     16605 HOAC     255      HOAC     C1       CD2O3A   3.554200       11.6110           0   -1.20700   0.708000
     16606 HOAC     255      HOAC     DC1      DRUD    -2.696200        0.4000           0   0.00000   0.00000
     16607 HOAC     255      HOAC     C2       CD33C    3.268200       11.6110           0   -2.11400   0.750000
     16608 HOAC     255      HOAC     DC2      DRUD    -3.568200        0.4000           0   0.00000   0.00000
     16609 HOAC     255      HOAC     H1       HDA3A    0.092000        1.0080           0   0.00000   0.00000
     16610 HOAC     255      HOAC     H2       HDA3A    0.092000        1.0080           0   0.00000   0.00000
     16611 HOAC     255      HOAC     H3       HDA3A    0.092000        1.0080           0   0.00000   0.00000
     16612 HOAC     255      HOAC     O1       OD2C3A   2.356500       15.5994           0   -0.922000   1.53900
     16613 HOAC     255      HOAC     DO1      DRUD    -2.356500        0.4000           0   0.00000   0.00000
     16614 HOAC     255      HOAC     O2       OD31F    2.776500       15.5990           0   -1.28000   1.12400
     16615 HOAC     255      HOAC     DO2      DRUD    -2.776500        0.4000           0   0.00000   0.00000
     16616 HOAC     255      HOAC     H        HDP1A    0.374000        1.0080           0   0.00000   0.00000
     16617 HOAC     255      HOAC     LPO11    LPD     -0.319000        0.0000           -1   0.00000   0.00000
     16618 HOAC     255      HOAC     LPO12    LPD     -0.319000        0.0000           -1   0.00000   0.00000
     16619 HOAC     255      HOAC     LPO21    LPD     -0.285000        0.0000           -1   0.00000   0.00000
     16620 HOAC     255      HOAC     LPO22    LPD     -0.285000        0.0000           -1   0.00000   0.00000
     16621 HOAC     256      HOAC     C1       CD2O3A   3.554200       11.6110           0   -1.20700   0.708000
     16622 HOAC     256      HOAC     DC1      DRUD    -2.696200        0.4000           0   0.00000   0.00000
     16623 HOAC     256      HOAC     C2       CD33C    3.268200       11.6110           0   -2.11400   0.750000
     16624 HOAC     256      HOAC     DC2      DRUD    -3.568200        0.4000           0   0.00000   0.00000
     16625 HOAC     256      HOAC     H1       HDA3A    0.092000        1.0080           0   0.00000   0.00000
     16626 HOAC     256      HOAC     H2       HDA3A    0.092000        1.0080           0   0.00000   0.00000
     16627 HOAC     256      HOAC     H3       HDA3A    0.092000        1.0080           0   0.00000   0.00000
     16628 HOAC     256      HOAC     O1       OD2C3A   2.356500       15.5994           0   -0.922000   1.53900
     16629 HOAC     256      HOAC     DO1      DRUD    -2.356500        0.4000           0   0.00000   0.00000
     16630 HOAC     256      HOAC     O2       OD31F    2.776500       15.5990           0   -1.28000   1.12400
     16631 HOAC     256      HOAC     DO2      DRUD    -2.776500        0.4000           0   0.00000   0.00000
     16632 HOAC     256      HOAC     H        HDP1A    0.374000        1.0080           0   0.00000   0.00000
     16633 HOAC     256      HOAC     LPO11    LPD     -0.319000        0.0000           -1   0.00000   0.00000
     16634 HOAC     256      HOAC     LPO12    LPD     -0.319000        0.0000           -1   0.00000   0.00000
     16635 HOAC     256      HOAC     LPO21    LPD     -0.285000        0.0000           -1   0.00000   0.00000
     16636 HOAC     256      HOAC     LPO22    LPD     -0.285000        0.0000           -1   0.00000   0.00000
     16637 HOAC     257      HOAC     C1       CD2O3A   3.554200       11.6110           0   -1.20700   0.708000
     16638 HOAC     257      HOAC     DC1      DRUD    -2.696200        0.4000           0   0.00000   0.00000
     16639 HOAC     257      HOAC     C2       CD33C    3.268200       11.6110           0   -2.11400   0.750000
     16640 HOAC     257      HOAC     DC2      DRUD    -3.568200        0.4000           0   0.00000   0.00000
     16641 HOAC     257      HOAC     H1       HDA3A    0.092000        1.0080           0   0.00000   0.00000
     16642 HOAC     257      HOAC     H2       HDA3A    0.092000        1.0080           0   0.00000   0.00000
     16643 HOAC     257      HOAC     H3       HDA3A    0.092000        1.0080           0   0.00000   0.00000
     16644 HOAC     257      HOAC     O1       OD2C3A   2.356500       15.5994           0   -0.922000   1.53900
     16645 HOAC     257      HOAC     DO1      DRUD    -2.356500        0.4000           0   0.00000   0.00000
     16646 HOAC     257      HOAC     O2       OD31F    2.776500       15.5990           0   -1.28000   1.12400
     16647 HOAC     257      HOAC     DO2      DRUD    -2.776500        0.4000           0   0.00000   0.00000
     16648 HOAC     257      HOAC     H        HDP1A    0.374000        1.0080           0   0.00000   0.00000
     16649 HOAC     257      HOAC     LPO11    LPD     -0.319000        0.0000           -1   0.00000   0.00000
     16650 HOAC     257      HOAC     LPO12    LPD     -0.319000        0.0000           -1   0.00000   0.00000
     16651 HOAC     257      HOAC     LPO21    LPD     -0.285000        0.0000           -1   0.00000   0.00000
     16652 HOAC     257      HOAC     LPO22    LPD     -0.285000        0.0000           -1   0.00000   0.00000
     16653 HOAC     258      HOAC     C1       CD2O3A   3.554200       11.6110           0   -1.20700   0.708000
     16654 HOAC     258      HOAC     DC1      DRUD    -2.696200        0.4000           0   0.00000   0.00000
     16655 HOAC     258      HOAC     C2       CD33C    3.268200       11.6110           0   -2.11400   0.750000
     16656 HOAC     258      HOAC     DC2      DRUD    -3.568200        0.4000           0   0.00000   0.00000
     16657 HOAC     258      HOAC     H1       HDA3A    0.092000        1.0080           0   0.00000   0.00000
     16658 HOAC     258      HOAC     H2       HDA3A    0.092000        1.0080           0   0.00000   0.00000
     16659 HOAC     258      HOAC     H3       HDA3A    0.092000        1.0080           0   0.00000   0.00000
     16660 HOAC     258      HOAC     O1       OD2C3A   2.356500       15.5994           0   -0.922000   1.53900
     16661 HOAC     258      HOAC     DO1      DRUD    -2.356500        0.4000           0   0.00000   0.00000
     16662 HOAC     258      HOAC     O2       OD31F    2.776500       15.5990           0   -1.28000   1.12400
     16663 HOAC     258      HOAC     DO2      DRUD    -2.776500        0.4000           0   0.00000   0.00000
     16664 HOAC     258      HOAC     H        HDP1A    0.374000        1.0080           0   0.00000   0.00000
     16665 HOAC     258      HOAC     LPO11    LPD     -0.319000        0.0000           -1   0.00000   0.00000
     16666 HOAC     258      HOAC     LPO12    LPD     -0.319000        0.0000           -1   0.00000   0.00000
     16667 HOAC     258      HOAC     LPO21    LPD     -0.285000        0.0000           -1   0.00000   0.00000
     16668 HOAC     258      HOAC     LPO22    LPD     -0.285000        0.0000           -1   0.00000   0.00000
     16669 HOAC     259      HOAC     C1       CD2O3A   3.554200       11.6110           0   -1.20700   0.708000
     16670 HOAC     259      HOAC     DC1      DRUD    -2.696200        0.4000           0   0.00000   0.00000
     16671 HOAC     259      HOAC     C2       CD33C    3.268200       11.6110           0   -2.11400   0.750000
     16672 HOAC     259      HOAC     DC2      DRUD    -3.568200        0.4000           0   0.00000   0.00000
     16673 HOAC     259      HOAC     H1       HDA3A    0.092000        1.0080           0   0.00000   0.00000
     16674 HOAC     259      HOAC     H2       HDA3A    0.092000        1.0080           0   0.00000   0.00000
     16675 HOAC     259      HOAC     H3       HDA3A    0.092000        1.0080           0   0.00000   0.00000
     16676 HOAC     259      HOAC     O1       OD2C3A   2.356500       15.5994           0   -0.922000   1.53900
     16677 HOAC     259      HOAC     DO1      DRUD    -2.356500        0.4000           0   0.00000   0.00000
     16678 HOAC     259      HOAC     O2       OD31F    2.776500       15.5990           0   -1.28000   1.12400
     16679 HOAC     259      HOAC     DO2      DRUD    -2.776500        0.4000           0   0.00000   0.00000
     16680 HOAC     259      HOAC     H        HDP1A    0.374000        1.0080           0   0.00000   0.00000
     16681 HOAC     259      HOAC     LPO11    LPD     -0.319000        0.0000           -1   0.00000   0.00000
     16682 HOAC     259      HOAC     LPO12    LPD     -0.319000        0.0000           -1   0.00000   0.00000
     16683 HOAC     259      HOAC     LPO21    LPD     -0.285000        0.0000           -1   0.00000   0.00000
     16684 HOAC     259      HOAC     LPO22    LPD     -0.285000        0.0000           -1   0.00000   0.00000
     16685 HOAC     260      HOAC     C1       CD2O3A   3.554200       11.6110           0   -1.20700   0.708000
     16686 HOAC     260      HOAC     DC1      DRUD    -2.696200        0.4000           0   0.00000   0.00000
     16687 HOAC     260      HOAC     C2       CD33C    3.268200       11.6110           0   -2.11400   0.750000
     16688 HOAC     260      HOAC     DC2      DRUD    -3.568200        0.4000           0   0.00000   0.00000
     16689 HOAC     260      HOAC     H1       HDA3A    0.092000        1.0080           0   0.00000   0.00000
     16690 HOAC     260      HOAC     H2       HDA3A    0.092000        1.0080           0   0.00000   0.00000
     16691 HOAC     260      HOAC     H3       HDA3A    0.092000        1.0080           0   0.00000   0.00000
     16692 HOAC     260      HOAC     O1       OD2C3A   2.356500       15.5994           0   -0.922000   1.53900
     16693 HOAC     260      HOAC     DO1      DRUD    -2.356500        0.4000           0   0.00000   0.00000
     16694 HOAC     260      HOAC     O2       OD31F    2.776500       15.5990           0   -1.28000   1.12400
     16695 HOAC     260      HOAC     DO2      DRUD    -2.776500        0.4000           0   0.00000   0.00000
     16696 HOAC     260      HOAC     H        HDP1A    0.374000        1.0080           0   0.00000   0.00000
     16697 HOAC     260      HOAC     LPO11    LPD     -0.319000        0.0000           -1   0.00000   0.00000
     16698 HOAC     260      HOAC     LPO12    LPD     -0.319000        0.0000           -1   0.00000   0.00000
     16699 HOAC     260      HOAC     LPO21    LPD     -0.285000        0.0000           -1   0.00000   0.00000
     16700 HOAC     260      HOAC     LPO22    LPD     -0.285000        0.0000           -1   0.00000   0.00000
     16701 HOAC     261      HOAC     C1       CD2O3A   3.554200       11.6110           0   -1.20700   0.708000
     16702 HOAC     261      HOAC     DC1      DRUD    -2.696200        0.4000           0   0.00000   0.00000
     16703 HOAC     261      HOAC     C2       CD33C    3.268200       11.6110           0   -2.11400   0.750000
     16704 HOAC     261      HOAC     DC2      DRUD    -3.568200        0.4000           0   0.00000   0.00000
     16705 HOAC     261      HOAC     H1       HDA3A    0.092000        1.0080           0   0.00000   0.00000
     16706 HOAC     261      HOAC     H2       HDA3A    0.092000        1.0080           0   0.00000   0.00000
     16707 HOAC     261      HOAC     H3       HDA3A    0.092000        1.0080           0   0.00000   0.00000
     16708 HOAC     261      HOAC     O1       OD2C3A   2.356500       15.5994           0   -0.922000   1.53900
     16709 HOAC     261      HOAC     DO1      DRUD    -2.356500        0.4000           0   0.00000   0.00000
     16710 HOAC     261      HOAC     O2       OD31F    2.776500       15.5990           0   -1.28000   1.12400
     16711 HOAC     261      HOAC     DO2      DRUD    -2.776500        0.4000           0   0.00000   0.00000
     16712 HOAC     261      HOAC     H        HDP1A    0.374000        1.0080           0   0.00000   0.00000
     16713 HOAC     261      HOAC     LPO11    LPD     -0.319000        0.0000           -1   0.00000   0.00000
     16714 HOAC     261      HOAC     LPO12    LPD     -0.319000        0.0000           -1   0.00000   0.00000
     16715 HOAC     261      HOAC     LPO21    LPD     -0.285000        0.0000           -1   0.00000   0.00000
     16716 HOAC     261      HOAC     LPO22    LPD     -0.285000        0.0000           -1   0.00000   0.00000
     16717 HOAC     262      HOAC     C1       CD2O3A   3.554200       11.6110           0   -1.20700   0.708000
     16718 HOAC     262      HOAC     DC1      DRUD    -2.696200        0.4000           0   0.00000   0.00000
     16719 HOAC     262      HOAC     C2       CD33C    3.268200       11.6110           0   -2.11400   0.750000
     16720 HOAC     262      HOAC     DC2      DRUD    -3.568200        0.4000           0   0.00000   0.00000
     16721 HOAC     262      HOAC     H1       HDA3A    0.092000        1.0080           0   0.00000   0.00000
     16722 HOAC     262      HOAC     H2       HDA3A    0.092000        1.0080           0   0.00000   0.00000
     16723 HOAC     262      HOAC     H3       HDA3A    0.092000        1.0080           0   0.00000   0.00000
     16724 HOAC     262      HOAC     O1       OD2C3A   2.356500       15.5994           0   -0.922000   1.53900
     16725 HOAC     262      HOAC     DO1      DRUD    -2.356500        0.4000           0   0.00000   0.00000
     16726 HOAC     262      HOAC     O2       OD31F    2.776500       15.5990           0   -1.28000   1.12400
     16727 HOAC     262      HOAC     DO2      DRUD    -2.776500        0.4000           0   0.00000   0.00000
     16728 HOAC     262      HOAC     H        HDP1A    0.374000        1.0080           0   0.00000   0.00000
     16729 HOAC     262      HOAC     LPO11    LPD     -0.319000        0.0000           -1   0.00000   0.00000
     16730 HOAC     262      HOAC     LPO12    LPD     -0.319000        0.0000           -1   0.00000   0.00000
     16731 HOAC     262      HOAC     LPO21    LPD     -0.285000        0.0000           -1   0.00000   0.00000
     16732 HOAC     262      HOAC     LPO22    LPD     -0.285000        0.0000           -1   0.00000   0.00000
     16733 HOAC     263      HOAC     C1       CD2O3A   3.554200       11.6110           0   -1.20700   0.708000
     16734 HOAC     263      HOAC     DC1      DRUD    -2.696200        0.4000           0   0.00000   0.00000
     16735 HOAC     263      HOAC     C2       CD33C    3.268200       11.6110           0   -2.11400   0.750000
     16736 HOAC     263      HOAC     DC2      DRUD    -3.568200        0.4000           0   0.00000   0.00000
     16737 HOAC     263      HOAC     H1       HDA3A    0.092000        1.0080           0   0.00000   0.00000
     16738 HOAC     263      HOAC     H2       HDA3A    0.092000        1.0080           0   0.00000   0.00000
     16739 HOAC     263      HOAC     H3       HDA3A    0.092000        1.0080           0   0.00000   0.00000
     16740 HOAC     263      HOAC     O1       OD2C3A   2.356500       15.5994           0   -0.922000   1.53900
     16741 HOAC     263      HOAC     DO1      DRUD    -2.356500        0.4000           0   0.00000   0.00000
     16742 HOAC     263      HOAC     O2       OD31F    2.776500       15.5990           0   -1.28000   1.12400
     16743 HOAC     263      HOAC     DO2      DRUD    -2.776500        0.4000           0   0.00000   0.00000
     16744 HOAC     263      HOAC     H        HDP1A    0.374000        1.0080           0   0.00000   0.00000
     16745 HOAC     263      HOAC     LPO11    LPD     -0.319000        0.0000           -1   0.00000   0.00000
     16746 HOAC     263      HOAC     LPO12    LPD     -0.319000        0.0000           -1   0.00000   0.00000
     16747 HOAC     263      HOAC     LPO21    LPD     -0.285000        0.0000           -1   0.00000   0.00000
     16748 HOAC     263      HOAC     LPO22    LPD     -0.285000        0.0000           -1   0.00000   0.00000
     16749 HOAC     264      HOAC     C1       CD2O3A   3.554200       11.6110           0   -1.20700   0.708000
     16750 HOAC     264      HOAC     DC1      DRUD    -2.696200        0.4000           0   0.00000   0.00000
     16751 HOAC     264      HOAC     C2       CD33C    3.268200       11.6110           0   -2.11400   0.750000
     16752 HOAC     264      HOAC     DC2      DRUD    -3.568200        0.4000           0   0.00000   0.00000
     16753 HOAC     264      HOAC     H1       HDA3A    0.092000        1.0080           0   0.00000   0.00000
     16754 HOAC     264      HOAC     H2       HDA3A    0.092000        1.0080           0   0.00000   0.00000
     16755 HOAC     264      HOAC     H3       HDA3A    0.092000        1.0080           0   0.00000   0.00000
     16756 HOAC     264      HOAC     O1       OD2C3A   2.356500       15.5994           0   -0.922000   1.53900
     16757 HOAC     264      HOAC     DO1      DRUD    -2.356500        0.4000           0   0.00000   0.00000
     16758 HOAC     264      HOAC     O2       OD31F    2.776500       15.5990           0   -1.28000   1.12400
     16759 HOAC     264      HOAC     DO2      DRUD    -2.776500        0.4000           0   0.00000   0.00000
     16760 HOAC     264      HOAC     H        HDP1A    0.374000        1.0080           0   0.00000   0.00000
     16761 HOAC     264      HOAC     LPO11    LPD     -0.319000        0.0000           -1   0.00000   0.00000
     16762 HOAC     264      HOAC     LPO12    LPD     -0.319000        0.0000           -1   0.00000   0.00000
     16763 HOAC     264      HOAC     LPO21    LPD     -0.285000        0.0000           -1   0.00000   0.00000
     16764 HOAC     264      HOAC     LPO22    LPD     -0.285000        0.0000           -1   0.00000   0.00000
     16765 HOAC     265      HOAC     C1       CD2O3A   3.554200       11.6110           0   -1.20700   0.708000
     16766 HOAC     265      HOAC     DC1      DRUD    -2.696200        0.4000           0   0.00000   0.00000
     16767 HOAC     265      HOAC     C2       CD33C    3.268200       11.6110           0   -2.11400   0.750000
     16768 HOAC     265      HOAC     DC2      DRUD    -3.568200        0.4000           0   0.00000   0.00000
     16769 HOAC     265      HOAC     H1       HDA3A    0.092000        1.0080           0   0.00000   0.00000
     16770 HOAC     265      HOAC     H2       HDA3A    0.092000        1.0080           0   0.00000   0.00000
     16771 HOAC     265      HOAC     H3       HDA3A    0.092000        1.0080           0   0.00000   0.00000
     16772 HOAC     265      HOAC     O1       OD2C3A   2.356500       15.5994           0   -0.922000   1.53900
     16773 HOAC     265      HOAC     DO1      DRUD    -2.356500        0.4000           0   0.00000   0.00000
     16774 HOAC     265      HOAC     O2       OD31F    2.776500       15.5990           0   -1.28000   1.12400
     16775 HOAC     265      HOAC     DO2      DRUD    -2.776500        0.4000           0   0.00000   0.00000
     16776 HOAC     265      HOAC     H        HDP1A    0.374000        1.0080           0   0.00000   0.00000
     16777 HOAC     265      HOAC     LPO11    LPD     -0.319000        0.0000           -1   0.00000   0.00000
     16778 HOAC     265      HOAC     LPO12    LPD     -0.319000        0.0000           -1   0.00000   0.00000
     16779 HOAC     265      HOAC     LPO21    LPD     -0.285000        0.0000           -1   0.00000   0.00000
     16780 HOAC     265      HOAC     LPO22    LPD     -0.285000        0.0000           -1   0.00000   0.00000
     16781 HOAC     266      HOAC     C1       CD2O3A   3.554200       11.6110           0   -1.20700   0.708000
     16782 HOAC     266      HOAC     DC1      DRUD    -2.696200        0.4000           0   0.00000   0.00000
     16783 HOAC     266      HOAC     C2       CD33C    3.268200       11.6110           0   -2.11400   0.750000
     16784 HOAC     266      HOAC     DC2      DRUD    -3.568200        0.4000           0   0.00000   0.00000
     16785 HOAC     266      HOAC     H1       HDA3A    0.092000        1.0080           0   0.00000   0.00000
     16786 HOAC     266      HOAC     H2       HDA3A    0.092000        1.0080           0   0.00000   0.00000
     16787 HOAC     266      HOAC     H3       HDA3A    0.092000        1.0080           0   0.00000   0.00000
     16788 HOAC     266      HOAC     O1       OD2C3A   2.356500       15.5994           0   -0.922000   1.53900
     16789 HOAC     266      HOAC     DO1      DRUD    -2.356500        0.4000           0   0.00000   0.00000
     16790 HOAC     266      HOAC     O2       OD31F    2.776500       15.5990           0   -1.28000   1.12400
     16791 HOAC     266      HOAC     DO2      DRUD    -2.776500        0.4000           0   0.00000   0.00000
     16792 HOAC     266      HOAC     H        HDP1A    0.374000        1.0080           0   0.00000   0.00000
     16793 HOAC     266      HOAC     LPO11    LPD     -0.319000        0.0000           -1   0.00000   0.00000
     16794 HOAC     266      HOAC     LPO12    LPD     -0.319000        0.0000           -1   0.00000   0.00000
     16795 HOAC     266      HOAC     LPO21    LPD     -0.285000        0.0000           -1   0.00000   0.00000
     16796 HOAC     266      HOAC     LPO22    LPD     -0.285000        0.0000           -1   0.00000   0.00000
     16797 HOAC     267      HOAC     C1       CD2O3A   3.554200       11.6110           0   -1.20700   0.708000
     16798 HOAC     267      HOAC     DC1      DRUD    -2.696200        0.4000           0   0.00000   0.00000
     16799 HOAC     267      HOAC     C2       CD33C    3.268200       11.6110           0   -2.11400   0.750000
     16800 HOAC     267      HOAC     DC2      DRUD    -3.568200        0.4000           0   0.00000   0.00000
     16801 HOAC     267      HOAC     H1       HDA3A    0.092000        1.0080           0   0.00000   0.00000
     16802 HOAC     267      HOAC     H2       HDA3A    0.092000        1.0080           0   0.00000   0.00000
     16803 HOAC     267      HOAC     H3       HDA3A    0.092000        1.0080           0   0.00000   0.00000
     16804 HOAC     267      HOAC     O1       OD2C3A   2.356500       15.5994           0   -0.922000   1.53900
     16805 HOAC     267      HOAC     DO1      DRUD    -2.356500        0.4000           0   0.00000   0.00000
     16806 HOAC     267      HOAC     O2       OD31F    2.776500       15.5990           0   -1.28000   1.12400
     16807 HOAC     267      HOAC     DO2      DRUD    -2.776500        0.4000           0   0.00000   0.00000
     16808 HOAC     267      HOAC     H        HDP1A    0.374000        1.0080           0   0.00000   0.00000
     16809 HOAC     267      HOAC     LPO11    LPD     -0.319000        0.0000           -1   0.00000   0.00000
     16810 HOAC     267      HOAC     LPO12    LPD     -0.319000        0.0000           -1   0.00000   0.00000
     16811 HOAC     267      HOAC     LPO21    LPD     -0.285000        0.0000           -1   0.00000   0.00000
     16812 HOAC     267      HOAC     LPO22    LPD     -0.285000        0.0000           -1   0.00000   0.00000
     16813 HOAC     268      HOAC     C1       CD2O3A   3.554200       11.6110           0   -1.20700   0.708000
     16814 HOAC     268      HOAC     DC1      DRUD    -2.696200        0.4000           0   0.00000   0.00000
     16815 HOAC     268      HOAC     C2       CD33C    3.268200       11.6110           0   -2.11400   0.750000
     16816 HOAC     268      HOAC     DC2      DRUD    -3.568200        0.4000           0   0.00000   0.00000
     16817 HOAC     268      HOAC     H1       HDA3A    0.092000        1.0080           0   0.00000   0.00000
     16818 HOAC     268      HOAC     H2       HDA3A    0.092000        1.0080           0   0.00000   0.00000
     16819 HOAC     268      HOAC     H3       HDA3A    0.092000        1.0080           0   0.00000   0.00000
     16820 HOAC     268      HOAC     O1       OD2C3A   2.356500       15.5994           0   -0.922000   1.53900
     16821 HOAC     268      HOAC     DO1      DRUD    -2.356500        0.4000           0   0.00000   0.00000
     16822 HOAC     268      HOAC     O2       OD31F    2.776500       15.5990           0   -1.28000   1.12400
     16823 HOAC     268      HOAC     DO2      DRUD    -2.776500        0.4000           0   0.00000   0.00000
     16824 HOAC     268      HOAC     H        HDP1A    0.374000        1.0080           0   0.00000   0.00000
     16825 HOAC     268      HOAC     LPO11    LPD     -0.319000        0.0000           -1   0.00000   0.00000
     16826 HOAC     268      HOAC     LPO12    LPD     -0.319000        0.0000           -1   0.00000   0.00000
     16827 HOAC     268      HOAC     LPO21    LPD     -0.285000        0.0000           -1   0.00000   0.00000
     16828 HOAC     268      HOAC     LPO22    LPD     -0.285000        0.0000           -1   0.00000   0.00000
     16829 HOAC     269      HOAC     C1       CD2O3A   3.554200       11.6110           0   -1.20700   0.708000
     16830 HOAC     269      HOAC     DC1      DRUD    -2.696200        0.4000           0   0.00000   0.00000
     16831 HOAC     269      HOAC     C2       CD33C    3.268200       11.6110           0   -2.11400   0.750000
     16832 HOAC     269      HOAC     DC2      DRUD    -3.568200        0.4000           0   0.00000   0.00000
     16833 HOAC     269      HOAC     H1       HDA3A    0.092000        1.0080           0   0.00000   0.00000
     16834 HOAC     269      HOAC     H2       HDA3A    0.092000        1.0080           0   0.00000   0.00000
     16835 HOAC     269      HOAC     H3       HDA3A    0.092000        1.0080           0   0.00000   0.00000
     16836 HOAC     269      HOAC     O1       OD2C3A   2.356500       15.5994           0   -0.922000   1.53900
     16837 HOAC     269      HOAC     DO1      DRUD    -2.356500        0.4000           0   0.00000   0.00000
     16838 HOAC     269      HOAC     O2       OD31F    2.776500       15.5990           0   -1.28000   1.12400
     16839 HOAC     269      HOAC     DO2      DRUD    -2.776500        0.4000           0   0.00000   0.00000
     16840 HOAC     269      HOAC     H        HDP1A    0.374000        1.0080           0   0.00000   0.00000
     16841 HOAC     269      HOAC     LPO11    LPD     -0.319000        0.0000           -1   0.00000   0.00000
     16842 HOAC     269      HOAC     LPO12    LPD     -0.319000        0.0000           -1   0.00000   0.00000
     16843 HOAC     269      HOAC     LPO21    LPD     -0.285000        0.0000           -1   0.00000   0.00000
     16844 HOAC     269      HOAC     LPO22    LPD     -0.285000        0.0000           -1   0.00000   0.00000
     16845 HOAC     270      HOAC     C1       CD2O3A   3.554200       11.6110           0   -1.20700   0.708000
     16846 HOAC     270      HOAC     DC1      DRUD    -2.696200        0.4000           0   0.00000   0.00000
     16847 HOAC     270      HOAC     C2       CD33C    3.268200       11.6110           0   -2.11400   0.750000
     16848 HOAC     270      HOAC     DC2      DRUD    -3.568200        0.4000           0   0.00000   0.00000
     16849 HOAC     270      HOAC     H1       HDA3A    0.092000        1.0080           0   0.00000   0.00000
     16850 HOAC     270      HOAC     H2       HDA3A    0.092000        1.0080           0   0.00000   0.00000
     16851 HOAC     270      HOAC     H3       HDA3A    0.092000        1.0080           0   0.00000   0.00000
     16852 HOAC     270      HOAC     O1       OD2C3A   2.356500       15.5994           0   -0.922000   1.53900
     16853 HOAC     270      HOAC     DO1      DRUD    -2.356500        0.4000           0   0.00000   0.00000
     16854 HOAC     270      HOAC     O2       OD31F    2.776500       15.5990           0   -1.28000   1.12400
     16855 HOAC     270      HOAC     DO2      DRUD    -2.776500        0.4000           0   0.00000   0.00000
     16856 HOAC     270      HOAC     H        HDP1A    0.374000        1.0080           0   0.00000   0.00000
     16857 HOAC     270      HOAC     LPO11    LPD     -0.319000        0.0000           -1   0.00000   0.00000
     16858 HOAC     270      HOAC     LPO12    LPD     -0.319000        0.0000           -1   0.00000   0.00000
     16859 HOAC     270      HOAC     LPO21    LPD     -0.285000        0.0000           -1   0.00000   0.00000
     16860 HOAC     270      HOAC     LPO22    LPD     -0.285000        0.0000           -1   0.00000   0.00000
     16861 HOAC     271      HOAC     C1       CD2O3A   3.554200       11.6110           0   -1.20700   0.708000
     16862 HOAC     271      HOAC     DC1      DRUD    -2.696200        0.4000           0   0.00000   0.00000
     16863 HOAC     271      HOAC     C2       CD33C    3.268200       11.6110           0   -2.11400   0.750000
     16864 HOAC     271      HOAC     DC2      DRUD    -3.568200        0.4000           0   0.00000   0.00000
     16865 HOAC     271      HOAC     H1       HDA3A    0.092000        1.0080           0   0.00000   0.00000
     16866 HOAC     271      HOAC     H2       HDA3A    0.092000        1.0080           0   0.00000   0.00000
     16867 HOAC     271      HOAC     H3       HDA3A    0.092000        1.0080           0   0.00000   0.00000
     16868 HOAC     271      HOAC     O1       OD2C3A   2.356500       15.5994           0   -0.922000   1.53900
     16869 HOAC     271      HOAC     DO1      DRUD    -2.356500        0.4000           0   0.00000   0.00000
     16870 HOAC     271      HOAC     O2       OD31F    2.776500       15.5990           0   -1.28000   1.12400
     16871 HOAC     271      HOAC     DO2      DRUD    -2.776500        0.4000           0   0.00000   0.00000
     16872 HOAC     271      HOAC     H        HDP1A    0.374000        1.0080           0   0.00000   0.00000
     16873 HOAC     271      HOAC     LPO11    LPD     -0.319000        0.0000           -1   0.00000   0.00000
     16874 HOAC     271      HOAC     LPO12    LPD     -0.319000        0.0000           -1   0.00000   0.00000
     16875 HOAC     271      HOAC     LPO21    LPD     -0.285000        0.0000           -1   0.00000   0.00000
     16876 HOAC     271      HOAC     LPO22    LPD     -0.285000        0.0000           -1   0.00000   0.00000
     16877 HOAC     272      HOAC     C1       CD2O3A   3.554200       11.6110           0   -1.20700   0.708000
     16878 HOAC     272      HOAC     DC1      DRUD    -2.696200        0.4000           0   0.00000   0.00000
     16879 HOAC     272      HOAC     C2       CD33C    3.268200       11.6110           0   -2.11400   0.750000
     16880 HOAC     272      HOAC     DC2      DRUD    -3.568200        0.4000           0   0.00000   0.00000
     16881 HOAC     272      HOAC     H1       HDA3A    0.092000        1.0080           0   0.00000   0.00000
     16882 HOAC     272      HOAC     H2       HDA3A    0.092000        1.0080           0   0.00000   0.00000
     16883 HOAC     272      HOAC     H3       HDA3A    0.092000        1.0080           0   0.00000   0.00000
     16884 HOAC     272      HOAC     O1       OD2C3A   2.356500       15.5994           0   -0.922000   1.53900
     16885 HOAC     272      HOAC     DO1      DRUD    -2.356500        0.4000           0   0.00000   0.00000
     16886 HOAC     272      HOAC     O2       OD31F    2.776500       15.5990           0   -1.28000   1.12400
     16887 HOAC     272      HOAC     DO2      DRUD    -2.776500        0.4000           0   0.00000   0.00000
     16888 HOAC     272      HOAC     H        HDP1A    0.374000        1.0080           0   0.00000   0.00000
     16889 HOAC     272      HOAC     LPO11    LPD     -0.319000        0.0000           -1   0.00000   0.00000
     16890 HOAC     272      HOAC     LPO12    LPD     -0.319000        0.0000           -1   0.00000   0.00000
     16891 HOAC     272      HOAC     LPO21    LPD     -0.285000        0.0000           -1   0.00000   0.00000
     16892 HOAC     272      HOAC     LPO22    LPD     -0.285000        0.0000           -1   0.00000   0.00000
     16893 HOAC     273      HOAC     C1       CD2O3A   3.554200       11.6110           0   -1.20700   0.708000
     16894 HOAC     273      HOAC     DC1      DRUD    -2.696200        0.4000           0   0.00000   0.00000
     16895 HOAC     273      HOAC     C2       CD33C    3.268200       11.6110           0   -2.11400   0.750000
     16896 HOAC     273      HOAC     DC2      DRUD    -3.568200        0.4000           0   0.00000   0.00000
     16897 HOAC     273      HOAC     H1       HDA3A    0.092000        1.0080           0   0.00000   0.00000
     16898 HOAC     273      HOAC     H2       HDA3A    0.092000        1.0080           0   0.00000   0.00000
     16899 HOAC     273      HOAC     H3       HDA3A    0.092000        1.0080           0   0.00000   0.00000
     16900 HOAC     273      HOAC     O1       OD2C3A   2.356500       15.5994           0   -0.922000   1.53900
     16901 HOAC     273      HOAC     DO1      DRUD    -2.356500        0.4000           0   0.00000   0.00000
     16902 HOAC     273      HOAC     O2       OD31F    2.776500       15.5990           0   -1.28000   1.12400
     16903 HOAC     273      HOAC     DO2      DRUD    -2.776500        0.4000           0   0.00000   0.00000
     16904 HOAC     273      HOAC     H        HDP1A    0.374000        1.0080           0   0.00000   0.00000
     16905 HOAC     273      HOAC     LPO11    LPD     -0.319000        0.0000           -1   0.00000   0.00000
     16906 HOAC     273      HOAC     LPO12    LPD     -0.319000        0.0000           -1   0.00000   0.00000
     16907 HOAC     273      HOAC     LPO21    LPD     -0.285000        0.0000           -1   0.00000   0.00000
     16908 HOAC     273      HOAC     LPO22    LPD     -0.285000        0.0000           -1   0.00000   0.00000
     16909 HOAC     274      HOAC     C1       CD2O3A   3.554200       11.6110           0   -1.20700   0.708000
     16910 HOAC     274      HOAC     DC1      DRUD    -2.696200        0.4000           0   0.00000   0.00000
     16911 HOAC     274      HOAC     C2       CD33C    3.268200       11.6110           0   -2.11400   0.750000
     16912 HOAC     274      HOAC     DC2      DRUD    -3.568200        0.4000           0   0.00000   0.00000
     16913 HOAC     274      HOAC     H1       HDA3A    0.092000        1.0080           0   0.00000   0.00000
     16914 HOAC     274      HOAC     H2       HDA3A    0.092000        1.0080           0   0.00000   0.00000
     16915 HOAC     274      HOAC     H3       HDA3A    0.092000        1.0080           0   0.00000   0.00000
     16916 HOAC     274      HOAC     O1       OD2C3A   2.356500       15.5994           0   -0.922000   1.53900
     16917 HOAC     274      HOAC     DO1      DRUD    -2.356500        0.4000           0   0.00000   0.00000
     16918 HOAC     274      HOAC     O2       OD31F    2.776500       15.5990           0   -1.28000   1.12400
     16919 HOAC     274      HOAC     DO2      DRUD    -2.776500        0.4000           0   0.00000   0.00000
     16920 HOAC     274      HOAC     H        HDP1A    0.374000        1.0080           0   0.00000   0.00000
     16921 HOAC     274      HOAC     LPO11    LPD     -0.319000        0.0000           -1   0.00000   0.00000
     16922 HOAC     274      HOAC     LPO12    LPD     -0.319000        0.0000           -1   0.00000   0.00000
     16923 HOAC     274      HOAC     LPO21    LPD     -0.285000        0.0000           -1   0.00000   0.00000
     16924 HOAC     274      HOAC     LPO22    LPD     -0.285000        0.0000           -1   0.00000   0.00000
     16925 HOAC     275      HOAC     C1       CD2O3A   3.554200       11.6110           0   -1.20700   0.708000
     16926 HOAC     275      HOAC     DC1      DRUD    -2.696200        0.4000           0   0.00000   0.00000
     16927 HOAC     275      HOAC     C2       CD33C    3.268200       11.6110           0   -2.11400   0.750000
     16928 HOAC     275      HOAC     DC2      DRUD    -3.568200        0.4000           0   0.00000   0.00000
     16929 HOAC     275      HOAC     H1       HDA3A    0.092000        1.0080           0   0.00000   0.00000
     16930 HOAC     275      HOAC     H2       HDA3A    0.092000        1.0080           0   0.00000   0.00000
     16931 HOAC     275      HOAC     H3       HDA3A    0.092000        1.0080           0   0.00000   0.00000
     16932 HOAC     275      HOAC     O1       OD2C3A   2.356500       15.5994           0   -0.922000   1.53900
     16933 HOAC     275      HOAC     DO1      DRUD    -2.356500        0.4000           0   0.00000   0.00000
     16934 HOAC     275      HOAC     O2       OD31F    2.776500       15.5990           0   -1.28000   1.12400
     16935 HOAC     275      HOAC     DO2      DRUD    -2.776500        0.4000           0   0.00000   0.00000
     16936 HOAC     275      HOAC     H        HDP1A    0.374000        1.0080           0   0.00000   0.00000
     16937 HOAC     275      HOAC     LPO11    LPD     -0.319000        0.0000           -1   0.00000   0.00000
     16938 HOAC     275      HOAC     LPO12    LPD     -0.319000        0.0000           -1   0.00000   0.00000
     16939 HOAC     275      HOAC     LPO21    LPD     -0.285000        0.0000           -1   0.00000   0.00000
     16940 HOAC     275      HOAC     LPO22    LPD     -0.285000        0.0000           -1   0.00000   0.00000
     16941 HOAC     276      HOAC     C1       CD2O3A   3.554200       11.6110           0   -1.20700   0.708000
     16942 HOAC     276      HOAC     DC1      DRUD    -2.696200        0.4000           0   0.00000   0.00000
     16943 HOAC     276      HOAC     C2       CD33C    3.268200       11.6110           0   -2.11400   0.750000
     16944 HOAC     276      HOAC     DC2      DRUD    -3.568200        0.4000           0   0.00000   0.00000
     16945 HOAC     276      HOAC     H1       HDA3A    0.092000        1.0080           0   0.00000   0.00000
     16946 HOAC     276      HOAC     H2       HDA3A    0.092000        1.0080           0   0.00000   0.00000
     16947 HOAC     276      HOAC     H3       HDA3A    0.092000        1.0080           0   0.00000   0.00000
     16948 HOAC     276      HOAC     O1       OD2C3A   2.356500       15.5994           0   -0.922000   1.53900
     16949 HOAC     276      HOAC     DO1      DRUD    -2.356500        0.4000           0   0.00000   0.00000
     16950 HOAC     276      HOAC     O2       OD31F    2.776500       15.5990           0   -1.28000   1.12400
     16951 HOAC     276      HOAC     DO2      DRUD    -2.776500        0.4000           0   0.00000   0.00000
     16952 HOAC     276      HOAC     H        HDP1A    0.374000        1.0080           0   0.00000   0.00000
     16953 HOAC     276      HOAC     LPO11    LPD     -0.319000        0.0000           -1   0.00000   0.00000
     16954 HOAC     276      HOAC     LPO12    LPD     -0.319000        0.0000           -1   0.00000   0.00000
     16955 HOAC     276      HOAC     LPO21    LPD     -0.285000        0.0000           -1   0.00000   0.00000
     16956 HOAC     276      HOAC     LPO22    LPD     -0.285000        0.0000           -1   0.00000   0.00000
     16957 HOAC     277      HOAC     C1       CD2O3A   3.554200       11.6110           0   -1.20700   0.708000
     16958 HOAC     277      HOAC     DC1      DRUD    -2.696200        0.4000           0   0.00000   0.00000
     16959 HOAC     277      HOAC     C2       CD33C    3.268200       11.6110           0   -2.11400   0.750000
     16960 HOAC     277      HOAC     DC2      DRUD    -3.568200        0.4000           0   0.00000   0.00000
     16961 HOAC     277      HOAC     H1       HDA3A    0.092000        1.0080           0   0.00000   0.00000
     16962 HOAC     277      HOAC     H2       HDA3A    0.092000        1.0080           0   0.00000   0.00000
     16963 HOAC     277      HOAC     H3       HDA3A    0.092000        1.0080           0   0.00000   0.00000
     16964 HOAC     277      HOAC     O1       OD2C3A   2.356500       15.5994           0   -0.922000   1.53900
     16965 HOAC     277      HOAC     DO1      DRUD    -2.356500        0.4000           0   0.00000   0.00000
     16966 HOAC     277      HOAC     O2       OD31F    2.776500       15.5990           0   -1.28000   1.12400
     16967 HOAC     277      HOAC     DO2      DRUD    -2.776500        0.4000           0   0.00000   0.00000
     16968 HOAC     277      HOAC     H        HDP1A    0.374000        1.0080           0   0.00000   0.00000
     16969 HOAC     277      HOAC     LPO11    LPD     -0.319000        0.0000           -1   0.00000   0.00000
     16970 HOAC     277      HOAC     LPO12    LPD     -0.319000        0.0000           -1   0.00000   0.00000
     16971 HOAC     277      HOAC     LPO21    LPD     -0.285000        0.0000           -1   0.00000   0.00000
     16972 HOAC     277      HOAC     LPO22    LPD     -0.285000        0.0000           -1   0.00000   0.00000
     16973 HOAC     278      HOAC     C1       CD2O3A   3.554200       11.6110           0   -1.20700   0.708000
     16974 HOAC     278      HOAC     DC1      DRUD    -2.696200        0.4000           0   0.00000   0.00000
     16975 HOAC     278      HOAC     C2       CD33C    3.268200       11.6110           0   -2.11400   0.750000
     16976 HOAC     278      HOAC     DC2      DRUD    -3.568200        0.4000           0   0.00000   0.00000
     16977 HOAC     278      HOAC     H1       HDA3A    0.092000        1.0080           0   0.00000   0.00000
     16978 HOAC     278      HOAC     H2       HDA3A    0.092000        1.0080           0   0.00000   0.00000
     16979 HOAC     278      HOAC     H3       HDA3A    0.092000        1.0080           0   0.00000   0.00000
     16980 HOAC     278      HOAC     O1       OD2C3A   2.356500       15.5994           0   -0.922000   1.53900
     16981 HOAC     278      HOAC     DO1      DRUD    -2.356500        0.4000           0   0.00000   0.00000
     16982 HOAC     278      HOAC     O2       OD31F    2.776500       15.5990           0   -1.28000   1.12400
     16983 HOAC     278      HOAC     DO2      DRUD    -2.776500        0.4000           0   0.00000   0.00000
     16984 HOAC     278      HOAC     H        HDP1A    0.374000        1.0080           0   0.00000   0.00000
     16985 HOAC     278      HOAC     LPO11    LPD     -0.319000        0.0000           -1   0.00000   0.00000
     16986 HOAC     278      HOAC     LPO12    LPD     -0.319000        0.0000           -1   0.00000   0.00000
     16987 HOAC     278      HOAC     LPO21    LPD     -0.285000        0.0000           -1   0.00000   0.00000
     16988 HOAC     278      HOAC     LPO22    LPD     -0.285000        0.0000           -1   0.00000   0.00000
     16989 HOAC     279      HOAC     C1       CD2O3A   3.554200       11.6110           0   -1.20700   0.708000
     16990 HOAC     279      HOAC     DC1      DRUD    -2.696200        0.4000           0   0.00000   0.00000
     16991 HOAC     279      HOAC     C2       CD33C    3.268200       11.6110           0   -2.11400   0.750000
     16992 HOAC     279      HOAC     DC2      DRUD    -3.568200        0.4000           0   0.00000   0.00000
     16993 HOAC     279      HOAC     H1       HDA3A    0.092000        1.0080           0   0.00000   0.00000
     16994 HOAC     279      HOAC     H2       HDA3A    0.092000        1.0080           0   0.00000   0.00000
     16995 HOAC     279      HOAC     H3       HDA3A    0.092000        1.0080           0   0.00000   0.00000
     16996 HOAC     279      HOAC     O1       OD2C3A   2.356500       15.5994           0   -0.922000   1.53900
     16997 HOAC     279      HOAC     DO1      DRUD    -2.356500        0.4000           0   0.00000   0.00000
     16998 HOAC     279      HOAC     O2       OD31F    2.776500       15.5990           0   -1.28000   1.12400
     16999 HOAC     279      HOAC     DO2      DRUD    -2.776500        0.4000           0   0.00000   0.00000
     17000 HOAC     279      HOAC     H        HDP1A    0.374000        1.0080           0   0.00000   0.00000
     17001 HOAC     279      HOAC     LPO11    LPD     -0.319000        0.0000           -1   0.00000   0.00000
     17002 HOAC     279      HOAC     LPO12    LPD     -0.319000        0.0000           -1   0.00000   0.00000
     17003 HOAC     279      HOAC     LPO21    LPD     -0.285000        0.0000           -1   0.00000   0.00000
     17004 HOAC     279      HOAC     LPO22    LPD     -0.285000        0.0000           -1   0.00000   0.00000
     17005 HOAC     280      HOAC     C1       CD2O3A   3.554200       11.6110           0   -1.20700   0.708000
     17006 HOAC     280      HOAC     DC1      DRUD    -2.696200        0.4000           0   0.00000   0.00000
     17007 HOAC     280      HOAC     C2       CD33C    3.268200       11.6110           0   -2.11400   0.750000
     17008 HOAC     280      HOAC     DC2      DRUD    -3.568200        0.4000           0   0.00000   0.00000
     17009 HOAC     280      HOAC     H1       HDA3A    0.092000        1.0080           0   0.00000   0.00000
     17010 HOAC     280      HOAC     H2       HDA3A    0.092000        1.0080           0   0.00000   0.00000
     17011 HOAC     280      HOAC     H3       HDA3A    0.092000        1.0080           0   0.00000   0.00000
     17012 HOAC     280      HOAC     O1       OD2C3A   2.356500       15.5994           0   -0.922000   1.53900
     17013 HOAC     280      HOAC     DO1      DRUD    -2.356500        0.4000           0   0.00000   0.00000
     17014 HOAC     280      HOAC     O2       OD31F    2.776500       15.5990           0   -1.28000   1.12400
     17015 HOAC     280      HOAC     DO2      DRUD    -2.776500        0.4000           0   0.00000   0.00000
     17016 HOAC     280      HOAC     H        HDP1A    0.374000        1.0080           0   0.00000   0.00000
     17017 HOAC     280      HOAC     LPO11    LPD     -0.319000        0.0000           -1   0.00000   0.00000
     17018 HOAC     280      HOAC     LPO12    LPD     -0.319000        0.0000           -1   0.00000   0.00000
     17019 HOAC     280      HOAC     LPO21    LPD     -0.285000        0.0000           -1   0.00000   0.00000
     17020 HOAC     280      HOAC     LPO22    LPD     -0.285000        0.0000           -1   0.00000   0.00000
     17021 HOAC     281      HOAC     C1       CD2O3A   3.554200       11.6110           0   -1.20700   0.708000
     17022 HOAC     281      HOAC     DC1      DRUD    -2.696200        0.4000           0   0.00000   0.00000
     17023 HOAC     281      HOAC     C2       CD33C    3.268200       11.6110           0   -2.11400   0.750000
     17024 HOAC     281      HOAC     DC2      DRUD    -3.568200        0.4000           0   0.00000   0.00000
     17025 HOAC     281      HOAC     H1       HDA3A    0.092000        1.0080           0   0.00000   0.00000
     17026 HOAC     281      HOAC     H2       HDA3A    0.092000        1.0080           0   0.00000   0.00000
     17027 HOAC     281      HOAC     H3       HDA3A    0.092000        1.0080           0   0.00000   0.00000
     17028 HOAC     281      HOAC     O1       OD2C3A   2.356500       15.5994           0   -0.922000   1.53900
     17029 HOAC     281      HOAC     DO1      DRUD    -2.356500        0.4000           0   0.00000   0.00000
     17030 HOAC     281      HOAC     O2       OD31F    2.776500       15.5990           0   -1.28000   1.12400
     17031 HOAC     281      HOAC     DO2      DRUD    -2.776500        0.4000           0   0.00000   0.00000
     17032 HOAC     281      HOAC     H        HDP1A    0.374000        1.0080           0   0.00000   0.00000
     17033 HOAC     281      HOAC     LPO11    LPD     -0.319000        0.0000           -1   0.00000   0.00000
     17034 HOAC     281      HOAC     LPO12    LPD     -0.319000        0.0000           -1   0.00000   0.00000
     17035 HOAC     281      HOAC     LPO21    LPD     -0.285000        0.0000           -1   0.00000   0.00000
     17036 HOAC     281      HOAC     LPO22    LPD     -0.285000        0.0000           -1   0.00000   0.00000
     17037 HOAC     282      HOAC     C1       CD2O3A   3.554200       11.6110           0   -1.20700   0.708000
     17038 HOAC     282      HOAC     DC1      DRUD    -2.696200        0.4000           0   0.00000   0.00000
     17039 HOAC     282      HOAC     C2       CD33C    3.268200       11.6110           0   -2.11400   0.750000
     17040 HOAC     282      HOAC     DC2      DRUD    -3.568200        0.4000           0   0.00000   0.00000
     17041 HOAC     282      HOAC     H1       HDA3A    0.092000        1.0080           0   0.00000   0.00000
     17042 HOAC     282      HOAC     H2       HDA3A    0.092000        1.0080           0   0.00000   0.00000
     17043 HOAC     282      HOAC     H3       HDA3A    0.092000        1.0080           0   0.00000   0.00000
     17044 HOAC     282      HOAC     O1       OD2C3A   2.356500       15.5994           0   -0.922000   1.53900
     17045 HOAC     282      HOAC     DO1      DRUD    -2.356500        0.4000           0   0.00000   0.00000
     17046 HOAC     282      HOAC     O2       OD31F    2.776500       15.5990           0   -1.28000   1.12400
     17047 HOAC     282      HOAC     DO2      DRUD    -2.776500        0.4000           0   0.00000   0.00000
     17048 HOAC     282      HOAC     H        HDP1A    0.374000        1.0080           0   0.00000   0.00000
     17049 HOAC     282      HOAC     LPO11    LPD     -0.319000        0.0000           -1   0.00000   0.00000
     17050 HOAC     282      HOAC     LPO12    LPD     -0.319000        0.0000           -1   0.00000   0.00000
     17051 HOAC     282      HOAC     LPO21    LPD     -0.285000        0.0000           -1   0.00000   0.00000
     17052 HOAC     282      HOAC     LPO22    LPD     -0.285000        0.0000           -1   0.00000   0.00000
     17053 HOAC     283      HOAC     C1       CD2O3A   3.554200       11.6110           0   -1.20700   0.708000
     17054 HOAC     283      HOAC     DC1      DRUD    -2.696200        0.4000           0   0.00000   0.00000
     17055 HOAC     283      HOAC     C2       CD33C    3.268200       11.6110           0   -2.11400   0.750000
     17056 HOAC     283      HOAC     DC2      DRUD    -3.568200        0.4000           0   0.00000   0.00000
     17057 HOAC     283      HOAC     H1       HDA3A    0.092000        1.0080           0   0.00000   0.00000
     17058 HOAC     283      HOAC     H2       HDA3A    0.092000        1.0080           0   0.00000   0.00000
     17059 HOAC     283      HOAC     H3       HDA3A    0.092000        1.0080           0   0.00000   0.00000
     17060 HOAC     283      HOAC     O1       OD2C3A   2.356500       15.5994           0   -0.922000   1.53900
     17061 HOAC     283      HOAC     DO1      DRUD    -2.356500        0.4000           0   0.00000   0.00000
     17062 HOAC     283      HOAC     O2       OD31F    2.776500       15.5990           0   -1.28000   1.12400
     17063 HOAC     283      HOAC     DO2      DRUD    -2.776500        0.4000           0   0.00000   0.00000
     17064 HOAC     283      HOAC     H        HDP1A    0.374000        1.0080           0   0.00000   0.00000
     17065 HOAC     283      HOAC     LPO11    LPD     -0.319000        0.0000           -1   0.00000   0.00000
     17066 HOAC     283      HOAC     LPO12    LPD     -0.319000        0.0000           -1   0.00000   0.00000
     17067 HOAC     283      HOAC     LPO21    LPD     -0.285000        0.0000           -1   0.00000   0.00000
     17068 HOAC     283      HOAC     LPO22    LPD     -0.285000        0.0000           -1   0.00000   0.00000
     17069 HOAC     284      HOAC     C1       CD2O3A   3.554200       11.6110           0   -1.20700   0.708000
     17070 HOAC     284      HOAC     DC1      DRUD    -2.696200        0.4000           0   0.00000   0.00000
     17071 HOAC     284      HOAC     C2       CD33C    3.268200       11.6110           0   -2.11400   0.750000
     17072 HOAC     284      HOAC     DC2      DRUD    -3.568200        0.4000           0   0.00000   0.00000
     17073 HOAC     284      HOAC     H1       HDA3A    0.092000        1.0080           0   0.00000   0.00000
     17074 HOAC     284      HOAC     H2       HDA3A    0.092000        1.0080           0   0.00000   0.00000
     17075 HOAC     284      HOAC     H3       HDA3A    0.092000        1.0080           0   0.00000   0.00000
     17076 HOAC     284      HOAC     O1       OD2C3A   2.356500       15.5994           0   -0.922000   1.53900
     17077 HOAC     284      HOAC     DO1      DRUD    -2.356500        0.4000           0   0.00000   0.00000
     17078 HOAC     284      HOAC     O2       OD31F    2.776500       15.5990           0   -1.28000   1.12400
     17079 HOAC     284      HOAC     DO2      DRUD    -2.776500        0.4000           0   0.00000   0.00000
     17080 HOAC     284      HOAC     H        HDP1A    0.374000        1.0080           0   0.00000   0.00000
     17081 HOAC     284      HOAC     LPO11    LPD     -0.319000        0.0000           -1   0.00000   0.00000
     17082 HOAC     284      HOAC     LPO12    LPD     -0.319000        0.0000           -1   0.00000   0.00000
     17083 HOAC     284      HOAC     LPO21    LPD     -0.285000        0.0000           -1   0.00000   0.00000
     17084 HOAC     284      HOAC     LPO22    LPD     -0.285000        0.0000           -1   0.00000   0.00000
     17085 HOAC     285      HOAC     C1       CD2O3A   3.554200       11.6110           0   -1.20700   0.708000
     17086 HOAC     285      HOAC     DC1      DRUD    -2.696200        0.4000           0   0.00000   0.00000
     17087 HOAC     285      HOAC     C2       CD33C    3.268200       11.6110           0   -2.11400   0.750000
     17088 HOAC     285      HOAC     DC2      DRUD    -3.568200        0.4000           0   0.00000   0.00000
     17089 HOAC     285      HOAC     H1       HDA3A    0.092000        1.0080           0   0.00000   0.00000
     17090 HOAC     285      HOAC     H2       HDA3A    0.092000        1.0080           0   0.00000   0.00000
     17091 HOAC     285      HOAC     H3       HDA3A    0.092000        1.0080           0   0.00000   0.00000
     17092 HOAC     285      HOAC     O1       OD2C3A   2.356500       15.5994           0   -0.922000   1.53900
     17093 HOAC     285      HOAC     DO1      DRUD    -2.356500        0.4000           0   0.00000   0.00000
     17094 HOAC     285      HOAC     O2       OD31F    2.776500       15.5990           0   -1.28000   1.12400
     17095 HOAC     285      HOAC     DO2      DRUD    -2.776500        0.4000           0   0.00000   0.00000
     17096 HOAC     285      HOAC     H        HDP1A    0.374000        1.0080           0   0.00000   0.00000
     17097 HOAC     285      HOAC     LPO11    LPD     -0.319000        0.0000           -1   0.00000   0.00000
     17098 HOAC     285      HOAC     LPO12    LPD     -0.319000        0.0000           -1   0.00000   0.00000
     17099 HOAC     285      HOAC     LPO21    LPD     -0.285000        0.0000           -1   0.00000   0.00000
     17100 HOAC     285      HOAC     LPO22    LPD     -0.285000        0.0000           -1   0.00000   0.00000
     17101 HOAC     286      HOAC     C1       CD2O3A   3.554200       11.6110           0   -1.20700   0.708000
     17102 HOAC     286      HOAC     DC1      DRUD    -2.696200        0.4000           0   0.00000   0.00000
     17103 HOAC     286      HOAC     C2       CD33C    3.268200       11.6110           0   -2.11400   0.750000
     17104 HOAC     286      HOAC     DC2      DRUD    -3.568200        0.4000           0   0.00000   0.00000
     17105 HOAC     286      HOAC     H1       HDA3A    0.092000        1.0080           0   0.00000   0.00000
     17106 HOAC     286      HOAC     H2       HDA3A    0.092000        1.0080           0   0.00000   0.00000
     17107 HOAC     286      HOAC     H3       HDA3A    0.092000        1.0080           0   0.00000   0.00000
     17108 HOAC     286      HOAC     O1       OD2C3A   2.356500       15.5994           0   -0.922000   1.53900
     17109 HOAC     286      HOAC     DO1      DRUD    -2.356500        0.4000           0   0.00000   0.00000
     17110 HOAC     286      HOAC     O2       OD31F    2.776500       15.5990           0   -1.28000   1.12400
     17111 HOAC     286      HOAC     DO2      DRUD    -2.776500        0.4000           0   0.00000   0.00000
     17112 HOAC     286      HOAC     H        HDP1A    0.374000        1.0080           0   0.00000   0.00000
     17113 HOAC     286      HOAC     LPO11    LPD     -0.319000        0.0000           -1   0.00000   0.00000
     17114 HOAC     286      HOAC     LPO12    LPD     -0.319000        0.0000           -1   0.00000   0.00000
     17115 HOAC     286      HOAC     LPO21    LPD     -0.285000        0.0000           -1   0.00000   0.00000
     17116 HOAC     286      HOAC     LPO22    LPD     -0.285000        0.0000           -1   0.00000   0.00000
     17117 HOAC     287      HOAC     C1       CD2O3A   3.554200       11.6110           0   -1.20700   0.708000
     17118 HOAC     287      HOAC     DC1      DRUD    -2.696200        0.4000           0   0.00000   0.00000
     17119 HOAC     287      HOAC     C2       CD33C    3.268200       11.6110           0   -2.11400   0.750000
     17120 HOAC     287      HOAC     DC2      DRUD    -3.568200        0.4000           0   0.00000   0.00000
     17121 HOAC     287      HOAC     H1       HDA3A    0.092000        1.0080           0   0.00000   0.00000
     17122 HOAC     287      HOAC     H2       HDA3A    0.092000        1.0080           0   0.00000   0.00000
     17123 HOAC     287      HOAC     H3       HDA3A    0.092000        1.0080           0   0.00000   0.00000
     17124 HOAC     287      HOAC     O1       OD2C3A   2.356500       15.5994           0   -0.922000   1.53900
     17125 HOAC     287      HOAC     DO1      DRUD    -2.356500        0.4000           0   0.00000   0.00000
     17126 HOAC     287      HOAC     O2       OD31F    2.776500       15.5990           0   -1.28000   1.12400
     17127 HOAC     287      HOAC     DO2      DRUD    -2.776500        0.4000           0   0.00000   0.00000
     17128 HOAC     287      HOAC     H        HDP1A    0.374000        1.0080           0   0.00000   0.00000
     17129 HOAC     287      HOAC     LPO11    LPD     -0.319000        0.0000           -1   0.00000   0.00000
     17130 HOAC     287      HOAC     LPO12    LPD     -0.319000        0.0000           -1   0.00000   0.00000
     17131 HOAC     287      HOAC     LPO21    LPD     -0.285000        0.0000           -1   0.00000   0.00000
     17132 HOAC     287      HOAC     LPO22    LPD     -0.285000        0.0000           -1   0.00000   0.00000
     17133 HOAC     288      HOAC     C1       CD2O3A   3.554200       11.6110           0   -1.20700   0.708000
     17134 HOAC     288      HOAC     DC1      DRUD    -2.696200        0.4000           0   0.00000   0.00000
     17135 HOAC     288      HOAC     C2       CD33C    3.268200       11.6110           0   -2.11400   0.750000
     17136 HOAC     288      HOAC     DC2      DRUD    -3.568200        0.4000           0   0.00000   0.00000
     17137 HOAC     288      HOAC     H1       HDA3A    0.092000        1.0080           0   0.00000   0.00000
     17138 HOAC     288      HOAC     H2       HDA3A    0.092000        1.0080           0   0.00000   0.00000
     17139 HOAC     288      HOAC     H3       HDA3A    0.092000        1.0080           0   0.00000   0.00000
     17140 HOAC     288      HOAC     O1       OD2C3A   2.356500       15.5994           0   -0.922000   1.53900
     17141 HOAC     288      HOAC     DO1      DRUD    -2.356500        0.4000           0   0.00000   0.00000
     17142 HOAC     288      HOAC     O2       OD31F    2.776500       15.5990           0   -1.28000   1.12400
     17143 HOAC     288      HOAC     DO2      DRUD    -2.776500        0.4000           0   0.00000   0.00000
     17144 HOAC     288      HOAC     H        HDP1A    0.374000        1.0080           0   0.00000   0.00000
     17145 HOAC     288      HOAC     LPO11    LPD     -0.319000        0.0000           -1   0.00000   0.00000
     17146 HOAC     288      HOAC     LPO12    LPD     -0.319000        0.0000           -1   0.00000   0.00000
     17147 HOAC     288      HOAC     LPO21    LPD     -0.285000        0.0000           -1   0.00000   0.00000
     17148 HOAC     288      HOAC     LPO22    LPD     -0.285000        0.0000           -1   0.00000   0.00000
     17149 HOAC     289      HOAC     C1       CD2O3A   3.554200       11.6110           0   -1.20700   0.708000
     17150 HOAC     289      HOAC     DC1      DRUD    -2.696200        0.4000           0   0.00000   0.00000
     17151 HOAC     289      HOAC     C2       CD33C    3.268200       11.6110           0   -2.11400   0.750000
     17152 HOAC     289      HOAC     DC2      DRUD    -3.568200        0.4000           0   0.00000   0.00000
     17153 HOAC     289      HOAC     H1       HDA3A    0.092000        1.0080           0   0.00000   0.00000
     17154 HOAC     289      HOAC     H2       HDA3A    0.092000        1.0080           0   0.00000   0.00000
     17155 HOAC     289      HOAC     H3       HDA3A    0.092000        1.0080           0   0.00000   0.00000
     17156 HOAC     289      HOAC     O1       OD2C3A   2.356500       15.5994           0   -0.922000   1.53900
     17157 HOAC     289      HOAC     DO1      DRUD    -2.356500        0.4000           0   0.00000   0.00000
     17158 HOAC     289      HOAC     O2       OD31F    2.776500       15.5990           0   -1.28000   1.12400
     17159 HOAC     289      HOAC     DO2      DRUD    -2.776500        0.4000           0   0.00000   0.00000
     17160 HOAC     289      HOAC     H        HDP1A    0.374000        1.0080           0   0.00000   0.00000
     17161 HOAC     289      HOAC     LPO11    LPD     -0.319000        0.0000           -1   0.00000   0.00000
     17162 HOAC     289      HOAC     LPO12    LPD     -0.319000        0.0000           -1   0.00000   0.00000
     17163 HOAC     289      HOAC     LPO21    LPD     -0.285000        0.0000           -1   0.00000   0.00000
     17164 HOAC     289      HOAC     LPO22    LPD     -0.285000        0.0000           -1   0.00000   0.00000
     17165 HOAC     290      HOAC     C1       CD2O3A   3.554200       11.6110           0   -1.20700   0.708000
     17166 HOAC     290      HOAC     DC1      DRUD    -2.696200        0.4000           0   0.00000   0.00000
     17167 HOAC     290      HOAC     C2       CD33C    3.268200       11.6110           0   -2.11400   0.750000
     17168 HOAC     290      HOAC     DC2      DRUD    -3.568200        0.4000           0   0.00000   0.00000
     17169 HOAC     290      HOAC     H1       HDA3A    0.092000        1.0080           0   0.00000   0.00000
     17170 HOAC     290      HOAC     H2       HDA3A    0.092000        1.0080           0   0.00000   0.00000
     17171 HOAC     290      HOAC     H3       HDA3A    0.092000        1.0080           0   0.00000   0.00000
     17172 HOAC     290      HOAC     O1       OD2C3A   2.356500       15.5994           0   -0.922000   1.53900
     17173 HOAC     290      HOAC     DO1      DRUD    -2.356500        0.4000           0   0.00000   0.00000
     17174 HOAC     290      HOAC     O2       OD31F    2.776500       15.5990           0   -1.28000   1.12400
     17175 HOAC     290      HOAC     DO2      DRUD    -2.776500        0.4000           0   0.00000   0.00000
     17176 HOAC     290      HOAC     H        HDP1A    0.374000        1.0080           0   0.00000   0.00000
     17177 HOAC     290      HOAC     LPO11    LPD     -0.319000        0.0000           -1   0.00000   0.00000
     17178 HOAC     290      HOAC     LPO12    LPD     -0.319000        0.0000           -1   0.00000   0.00000
     17179 HOAC     290      HOAC     LPO21    LPD     -0.285000        0.0000           -1   0.00000   0.00000
     17180 HOAC     290      HOAC     LPO22    LPD     -0.285000        0.0000           -1   0.00000   0.00000
     17181 HOAC     291      HOAC     C1       CD2O3A   3.554200       11.6110           0   -1.20700   0.708000
     17182 HOAC     291      HOAC     DC1      DRUD    -2.696200        0.4000           0   0.00000   0.00000
     17183 HOAC     291      HOAC     C2       CD33C    3.268200       11.6110           0   -2.11400   0.750000
     17184 HOAC     291      HOAC     DC2      DRUD    -3.568200        0.4000           0   0.00000   0.00000
     17185 HOAC     291      HOAC     H1       HDA3A    0.092000        1.0080           0   0.00000   0.00000
     17186 HOAC     291      HOAC     H2       HDA3A    0.092000        1.0080           0   0.00000   0.00000
     17187 HOAC     291      HOAC     H3       HDA3A    0.092000        1.0080           0   0.00000   0.00000
     17188 HOAC     291      HOAC     O1       OD2C3A   2.356500       15.5994           0   -0.922000   1.53900
     17189 HOAC     291      HOAC     DO1      DRUD    -2.356500        0.4000           0   0.00000   0.00000
     17190 HOAC     291      HOAC     O2       OD31F    2.776500       15.5990           0   -1.28000   1.12400
     17191 HOAC     291      HOAC     DO2      DRUD    -2.776500        0.4000           0   0.00000   0.00000
     17192 HOAC     291      HOAC     H        HDP1A    0.374000        1.0080           0   0.00000   0.00000
     17193 HOAC     291      HOAC     LPO11    LPD     -0.319000        0.0000           -1   0.00000   0.00000
     17194 HOAC     291      HOAC     LPO12    LPD     -0.319000        0.0000           -1   0.00000   0.00000
     17195 HOAC     291      HOAC     LPO21    LPD     -0.285000        0.0000           -1   0.00000   0.00000
     17196 HOAC     291      HOAC     LPO22    LPD     -0.285000        0.0000           -1   0.00000   0.00000
     17197 HOAC     292      HOAC     C1       CD2O3A   3.554200       11.6110           0   -1.20700   0.708000
     17198 HOAC     292      HOAC     DC1      DRUD    -2.696200        0.4000           0   0.00000   0.00000
     17199 HOAC     292      HOAC     C2       CD33C    3.268200       11.6110           0   -2.11400   0.750000
     17200 HOAC     292      HOAC     DC2      DRUD    -3.568200        0.4000           0   0.00000   0.00000
     17201 HOAC     292      HOAC     H1       HDA3A    0.092000        1.0080           0   0.00000   0.00000
     17202 HOAC     292      HOAC     H2       HDA3A    0.092000        1.0080           0   0.00000   0.00000
     17203 HOAC     292      HOAC     H3       HDA3A    0.092000        1.0080           0   0.00000   0.00000
     17204 HOAC     292      HOAC     O1       OD2C3A   2.356500       15.5994           0   -0.922000   1.53900
     17205 HOAC     292      HOAC     DO1      DRUD    -2.356500        0.4000           0   0.00000   0.00000
     17206 HOAC     292      HOAC     O2       OD31F    2.776500       15.5990           0   -1.28000   1.12400
     17207 HOAC     292      HOAC     DO2      DRUD    -2.776500        0.4000           0   0.00000   0.00000
     17208 HOAC     292      HOAC     H        HDP1A    0.374000        1.0080           0   0.00000   0.00000
     17209 HOAC     292      HOAC     LPO11    LPD     -0.319000        0.0000           -1   0.00000   0.00000
     17210 HOAC     292      HOAC     LPO12    LPD     -0.319000        0.0000           -1   0.00000   0.00000
     17211 HOAC     292      HOAC     LPO21    LPD     -0.285000        0.0000           -1   0.00000   0.00000
     17212 HOAC     292      HOAC     LPO22    LPD     -0.285000        0.0000           -1   0.00000   0.00000
     17213 HOAC     293      HOAC     C1       CD2O3A   3.554200       11.6110           0   -1.20700   0.708000
     17214 HOAC     293      HOAC     DC1      DRUD    -2.696200        0.4000           0   0.00000   0.00000
     17215 HOAC     293      HOAC     C2       CD33C    3.268200       11.6110           0   -2.11400   0.750000
     17216 HOAC     293      HOAC     DC2      DRUD    -3.568200        0.4000           0   0.00000   0.00000
     17217 HOAC     293      HOAC     H1       HDA3A    0.092000        1.0080           0   0.00000   0.00000
     17218 HOAC     293      HOAC     H2       HDA3A    0.092000        1.0080           0   0.00000   0.00000
     17219 HOAC     293      HOAC     H3       HDA3A    0.092000        1.0080           0   0.00000   0.00000
     17220 HOAC     293      HOAC     O1       OD2C3A   2.356500       15.5994           0   -0.922000   1.53900
     17221 HOAC     293      HOAC     DO1      DRUD    -2.356500        0.4000           0   0.00000   0.00000
     17222 HOAC     293      HOAC     O2       OD31F    2.776500       15.5990           0   -1.28000   1.12400
     17223 HOAC     293      HOAC     DO2      DRUD    -2.776500        0.4000           0   0.00000   0.00000
     17224 HOAC     293      HOAC     H        HDP1A    0.374000        1.0080           0   0.00000   0.00000
     17225 HOAC     293      HOAC     LPO11    LPD     -0.319000        0.0000           -1   0.00000   0.00000
     17226 HOAC     293      HOAC     LPO12    LPD     -0.319000        0.0000           -1   0.00000   0.00000
     17227 HOAC     293      HOAC     LPO21    LPD     -0.285000        0.0000           -1   0.00000   0.00000
     17228 HOAC     293      HOAC     LPO22    LPD     -0.285000        0.0000           -1   0.00000   0.00000
     17229 HOAC     294      HOAC     C1       CD2O3A   3.554200       11.6110           0   -1.20700   0.708000
     17230 HOAC     294      HOAC     DC1      DRUD    -2.696200        0.4000           0   0.00000   0.00000
     17231 HOAC     294      HOAC     C2       CD33C    3.268200       11.6110           0   -2.11400   0.750000
     17232 HOAC     294      HOAC     DC2      DRUD    -3.568200        0.4000           0   0.00000   0.00000
     17233 HOAC     294      HOAC     H1       HDA3A    0.092000        1.0080           0   0.00000   0.00000
     17234 HOAC     294      HOAC     H2       HDA3A    0.092000        1.0080           0   0.00000   0.00000
     17235 HOAC     294      HOAC     H3       HDA3A    0.092000        1.0080           0   0.00000   0.00000
     17236 HOAC     294      HOAC     O1       OD2C3A   2.356500       15.5994           0   -0.922000   1.53900
     17237 HOAC     294      HOAC     DO1      DRUD    -2.356500        0.4000           0   0.00000   0.00000
     17238 HOAC     294      HOAC     O2       OD31F    2.776500       15.5990           0   -1.28000   1.12400
     17239 HOAC     294      HOAC     DO2      DRUD    -2.776500        0.4000           0   0.00000   0.00000
     17240 HOAC     294      HOAC     H        HDP1A    0.374000        1.0080           0   0.00000   0.00000
     17241 HOAC     294      HOAC     LPO11    LPD     -0.319000        0.0000           -1   0.00000   0.00000
     17242 HOAC     294      HOAC     LPO12    LPD     -0.319000        0.0000           -1   0.00000   0.00000
     17243 HOAC     294      HOAC     LPO21    LPD     -0.285000        0.0000           -1   0.00000   0.00000
     17244 HOAC     294      HOAC     LPO22    LPD     -0.285000        0.0000           -1   0.00000   0.00000
     17245 HOAC     295      HOAC     C1       CD2O3A   3.554200       11.6110           0   -1.20700   0.708000
     17246 HOAC     295      HOAC     DC1      DRUD    -2.696200        0.4000           0   0.00000   0.00000
     17247 HOAC     295      HOAC     C2       CD33C    3.268200       11.6110           0   -2.11400   0.750000
     17248 HOAC     295      HOAC     DC2      DRUD    -3.568200        0.4000           0   0.00000   0.00000
     17249 HOAC     295      HOAC     H1       HDA3A    0.092000        1.0080           0   0.00000   0.00000
     17250 HOAC     295      HOAC     H2       HDA3A    0.092000        1.0080           0   0.00000   0.00000
     17251 HOAC     295      HOAC     H3       HDA3A    0.092000        1.0080           0   0.00000   0.00000
     17252 HOAC     295      HOAC     O1       OD2C3A   2.356500       15.5994           0   -0.922000   1.53900
     17253 HOAC     295      HOAC     DO1      DRUD    -2.356500        0.4000           0   0.00000   0.00000
     17254 HOAC     295      HOAC     O2       OD31F    2.776500       15.5990           0   -1.28000   1.12400
     17255 HOAC     295      HOAC     DO2      DRUD    -2.776500        0.4000           0   0.00000   0.00000
     17256 HOAC     295      HOAC     H        HDP1A    0.374000        1.0080           0   0.00000   0.00000
     17257 HOAC     295      HOAC     LPO11    LPD     -0.319000        0.0000           -1   0.00000   0.00000
     17258 HOAC     295      HOAC     LPO12    LPD     -0.319000        0.0000           -1   0.00000   0.00000
     17259 HOAC     295      HOAC     LPO21    LPD     -0.285000        0.0000           -1   0.00000   0.00000
     17260 HOAC     295      HOAC     LPO22    LPD     -0.285000        0.0000           -1   0.00000   0.00000
     17261 HOAC     296      HOAC     C1       CD2O3A   3.554200       11.6110           0   -1.20700   0.708000
     17262 HOAC     296      HOAC     DC1      DRUD    -2.696200        0.4000           0   0.00000   0.00000
     17263 HOAC     296      HOAC     C2       CD33C    3.268200       11.6110           0   -2.11400   0.750000
     17264 HOAC     296      HOAC     DC2      DRUD    -3.568200        0.4000           0   0.00000   0.00000
     17265 HOAC     296      HOAC     H1       HDA3A    0.092000        1.0080           0   0.00000   0.00000
     17266 HOAC     296      HOAC     H2       HDA3A    0.092000        1.0080           0   0.00000   0.00000
     17267 HOAC     296      HOAC     H3       HDA3A    0.092000        1.0080           0   0.00000   0.00000
     17268 HOAC     296      HOAC     O1       OD2C3A   2.356500       15.5994           0   -0.922000   1.53900
     17269 HOAC     296      HOAC     DO1      DRUD    -2.356500        0.4000           0   0.00000   0.00000
     17270 HOAC     296      HOAC     O2       OD31F    2.776500       15.5990           0   -1.28000   1.12400
     17271 HOAC     296      HOAC     DO2      DRUD    -2.776500        0.4000           0   0.00000   0.00000
     17272 HOAC     296      HOAC     H        HDP1A    0.374000        1.0080           0   0.00000   0.00000
     17273 HOAC     296      HOAC     LPO11    LPD     -0.319000        0.0000           -1   0.00000   0.00000
     17274 HOAC     296      HOAC     LPO12    LPD     -0.319000        0.0000           -1   0.00000   0.00000
     17275 HOAC     296      HOAC     LPO21    LPD     -0.285000        0.0000           -1   0.00000   0.00000
     17276 HOAC     296      HOAC     LPO22    LPD     -0.285000        0.0000           -1   0.00000   0.00000
     17277 HOAC     297      HOAC     C1       CD2O3A   3.554200       11.6110           0   -1.20700   0.708000
     17278 HOAC     297      HOAC     DC1      DRUD    -2.696200        0.4000           0   0.00000   0.00000
     17279 HOAC     297      HOAC     C2       CD33C    3.268200       11.6110           0   -2.11400   0.750000
     17280 HOAC     297      HOAC     DC2      DRUD    -3.568200        0.4000           0   0.00000   0.00000
     17281 HOAC     297      HOAC     H1       HDA3A    0.092000        1.0080           0   0.00000   0.00000
     17282 HOAC     297      HOAC     H2       HDA3A    0.092000        1.0080           0   0.00000   0.00000
     17283 HOAC     297      HOAC     H3       HDA3A    0.092000        1.0080           0   0.00000   0.00000
     17284 HOAC     297      HOAC     O1       OD2C3A   2.356500       15.5994           0   -0.922000   1.53900
     17285 HOAC     297      HOAC     DO1      DRUD    -2.356500        0.4000           0   0.00000   0.00000
     17286 HOAC     297      HOAC     O2       OD31F    2.776500       15.5990           0   -1.28000   1.12400
     17287 HOAC     297      HOAC     DO2      DRUD    -2.776500        0.4000           0   0.00000   0.00000
     17288 HOAC     297      HOAC     H        HDP1A    0.374000        1.0080           0   0.00000   0.00000
     17289 HOAC     297      HOAC     LPO11    LPD     -0.319000        0.0000           -1   0.00000   0.00000
     17290 HOAC     297      HOAC     LPO12    LPD     -0.319000        0.0000           -1   0.00000   0.00000
     17291 HOAC     297      HOAC     LPO21    LPD     -0.285000        0.0000           -1   0.00000   0.00000
     17292 HOAC     297      HOAC     LPO22    LPD     -0.285000        0.0000           -1   0.00000   0.00000
     17293 HOAC     298      HOAC     C1       CD2O3A   3.554200       11.6110           0   -1.20700   0.708000
     17294 HOAC     298      HOAC     DC1      DRUD    -2.696200        0.4000           0   0.00000   0.00000
     17295 HOAC     298      HOAC     C2       CD33C    3.268200       11.6110           0   -2.11400   0.750000
     17296 HOAC     298      HOAC     DC2      DRUD    -3.568200        0.4000           0   0.00000   0.00000
     17297 HOAC     298      HOAC     H1       HDA3A    0.092000        1.0080           0   0.00000   0.00000
     17298 HOAC     298      HOAC     H2       HDA3A    0.092000        1.0080           0   0.00000   0.00000
     17299 HOAC     298      HOAC     H3       HDA3A    0.092000        1.0080           0   0.00000   0.00000
     17300 HOAC     298      HOAC     O1       OD2C3A   2.356500       15.5994           0   -0.922000   1.53900
     17301 HOAC     298      HOAC     DO1      DRUD    -2.356500        0.4000           0   0.00000   0.00000
     17302 HOAC     298      HOAC     O2       OD31F    2.776500       15.5990           0   -1.28000   1.12400
     17303 HOAC     298      HOAC     DO2      DRUD    -2.776500        0.4000           0   0.00000   0.00000
     17304 HOAC     298      HOAC     H        HDP1A    0.374000        1.0080           0   0.00000   0.00000
     17305 HOAC     298      HOAC     LPO11    LPD     -0.319000        0.0000           -1   0.00000   0.00000
     17306 HOAC     298      HOAC     LPO12    LPD     -0.319000        0.0000           -1   0.00000   0.00000
     17307 HOAC     298      HOAC     LPO21    LPD     -0.285000        0.0000           -1   0.00000   0.00000
     17308 HOAC     298      HOAC     LPO22    LPD     -0.285000        0.0000           -1   0.00000   0.00000
     17309 HOAC     299      HOAC     C1       CD2O3A   3.554200       11.6110           0   -1.20700   0.708000
     17310 HOAC     299      HOAC     DC1      DRUD    -2.696200        0.4000           0   0.00000   0.00000
     17311 HOAC     299      HOAC     C2       CD33C    3.268200       11.6110           0   -2.11400   0.750000
     17312 HOAC     299      HOAC     DC2      DRUD    -3.568200        0.4000           0   0.00000   0.00000
     17313 HOAC     299      HOAC     H1       HDA3A    0.092000        1.0080           0   0.00000   0.00000
     17314 HOAC     299      HOAC     H2       HDA3A    0.092000        1.0080           0   0.00000   0.00000
     17315 HOAC     299      HOAC     H3       HDA3A    0.092000        1.0080           0   0.00000   0.00000
     17316 HOAC     299      HOAC     O1       OD2C3A   2.356500       15.5994           0   -0.922000   1.53900
     17317 HOAC     299      HOAC     DO1      DRUD    -2.356500        0.4000           0   0.00000   0.00000
     17318 HOAC     299      HOAC     O2       OD31F    2.776500       15.5990           0   -1.28000   1.12400
     17319 HOAC     299      HOAC     DO2      DRUD    -2.776500        0.4000           0   0.00000   0.00000
     17320 HOAC     299      HOAC     H        HDP1A    0.374000        1.0080           0   0.00000   0.00000
     17321 HOAC     299      HOAC     LPO11    LPD     -0.319000        0.0000           -1   0.00000   0.00000
     17322 HOAC     299      HOAC     LPO12    LPD     -0.319000        0.0000           -1   0.00000   0.00000
     17323 HOAC     299      HOAC     LPO21    LPD     -0.285000        0.0000           -1   0.00000   0.00000
     17324 HOAC     299      HOAC     LPO22    LPD     -0.285000        0.0000           -1   0.00000   0.00000
     17325 HOAC     300      HOAC     C1       CD2O3A   3.554200       11.6110           0   -1.20700   0.708000
     17326 HOAC     300      HOAC     DC1      DRUD    -2.696200        0.4000           0   0.00000   0.00000
     17327 HOAC     300      HOAC     C2       CD33C    3.268200       11.6110           0   -2.11400   0.750000
     17328 HOAC     300      HOAC     DC2      DRUD    -3.568200        0.4000           0   0.00000   0.00000
     17329 HOAC     300      HOAC     H1       HDA3A    0.092000        1.0080           0   0.00000   0.00000
     17330 HOAC     300      HOAC     H2       HDA3A    0.092000        1.0080           0   0.00000   0.00000
     17331 HOAC     300      HOAC     H3       HDA3A    0.092000        1.0080           0   0.00000   0.00000
     17332 HOAC     300      HOAC     O1       OD2C3A   2.356500       15.5994           0   -0.922000   1.53900
     17333 HOAC     300      HOAC     DO1      DRUD    -2.356500        0.4000           0   0.00000   0.00000
     17334 HOAC     300      HOAC     O2       OD31F    2.776500       15.5990           0   -1.28000   1.12400
     17335 HOAC     300      HOAC     DO2      DRUD    -2.776500        0.4000           0   0.00000   0.00000
     17336 HOAC     300      HOAC     H        HDP1A    0.374000        1.0080           0   0.00000   0.00000
     17337 HOAC     300      HOAC     LPO11    LPD     -0.319000        0.0000           -1   0.00000   0.00000
     17338 HOAC     300      HOAC     LPO12    LPD     -0.319000        0.0000           -1   0.00000   0.00000
     17339 HOAC     300      HOAC     LPO21    LPD     -0.285000        0.0000           -1   0.00000   0.00000
     17340 HOAC     300      HOAC     LPO22    LPD     -0.285000        0.0000           -1   0.00000   0.00000
     17341 HOAC     301      HOAC     C1       CD2O3A   3.554200       11.6110           0   -1.20700   0.708000
     17342 HOAC     301      HOAC     DC1      DRUD    -2.696200        0.4000           0   0.00000   0.00000
     17343 HOAC     301      HOAC     C2       CD33C    3.268200       11.6110           0   -2.11400   0.750000
     17344 HOAC     301      HOAC     DC2      DRUD    -3.568200        0.4000           0   0.00000   0.00000
     17345 HOAC     301      HOAC     H1       HDA3A    0.092000        1.0080           0   0.00000   0.00000
     17346 HOAC     301      HOAC     H2       HDA3A    0.092000        1.0080           0   0.00000   0.00000
     17347 HOAC     301      HOAC     H3       HDA3A    0.092000        1.0080           0   0.00000   0.00000
     17348 HOAC     301      HOAC     O1       OD2C3A   2.356500       15.5994           0   -0.922000   1.53900
     17349 HOAC     301      HOAC     DO1      DRUD    -2.356500        0.4000           0   0.00000   0.00000
     17350 HOAC     301      HOAC     O2       OD31F    2.776500       15.5990           0   -1.28000   1.12400
     17351 HOAC     301      HOAC     DO2      DRUD    -2.776500        0.4000           0   0.00000   0.00000
     17352 HOAC     301      HOAC     H        HDP1A    0.374000        1.0080           0   0.00000   0.00000
     17353 HOAC     301      HOAC     LPO11    LPD     -0.319000        0.0000           -1   0.00000   0.00000
     17354 HOAC     301      HOAC     LPO12    LPD     -0.319000        0.0000           -1   0.00000   0.00000
     17355 HOAC     301      HOAC     LPO21    LPD     -0.285000        0.0000           -1   0.00000   0.00000
     17356 HOAC     301      HOAC     LPO22    LPD     -0.285000        0.0000           -1   0.00000   0.00000
     17357 HOAC     302      HOAC     C1       CD2O3A   3.554200       11.6110           0   -1.20700   0.708000
     17358 HOAC     302      HOAC     DC1      DRUD    -2.696200        0.4000           0   0.00000   0.00000
     17359 HOAC     302      HOAC     C2       CD33C    3.268200       11.6110           0   -2.11400   0.750000
     17360 HOAC     302      HOAC     DC2      DRUD    -3.568200        0.4000           0   0.00000   0.00000
     17361 HOAC     302      HOAC     H1       HDA3A    0.092000        1.0080           0   0.00000   0.00000
     17362 HOAC     302      HOAC     H2       HDA3A    0.092000        1.0080           0   0.00000   0.00000
     17363 HOAC     302      HOAC     H3       HDA3A    0.092000        1.0080           0   0.00000   0.00000
     17364 HOAC     302      HOAC     O1       OD2C3A   2.356500       15.5994           0   -0.922000   1.53900
     17365 HOAC     302      HOAC     DO1      DRUD    -2.356500        0.4000           0   0.00000   0.00000
     17366 HOAC     302      HOAC     O2       OD31F    2.776500       15.5990           0   -1.28000   1.12400
     17367 HOAC     302      HOAC     DO2      DRUD    -2.776500        0.4000           0   0.00000   0.00000
     17368 HOAC     302      HOAC     H        HDP1A    0.374000        1.0080           0   0.00000   0.00000
     17369 HOAC     302      HOAC     LPO11    LPD     -0.319000        0.0000           -1   0.00000   0.00000
     17370 HOAC     302      HOAC     LPO12    LPD     -0.319000        0.0000           -1   0.00000   0.00000
     17371 HOAC     302      HOAC     LPO21    LPD     -0.285000        0.0000           -1   0.00000   0.00000
     17372 HOAC     302      HOAC     LPO22    LPD     -0.285000        0.0000           -1   0.00000   0.00000
     17373 HOAC     303      HOAC     C1       CD2O3A   3.554200       11.6110           0   -1.20700   0.708000
     17374 HOAC     303      HOAC     DC1      DRUD    -2.696200        0.4000           0   0.00000   0.00000
     17375 HOAC     303      HOAC     C2       CD33C    3.268200       11.6110           0   -2.11400   0.750000
     17376 HOAC     303      HOAC     DC2      DRUD    -3.568200        0.4000           0   0.00000   0.00000
     17377 HOAC     303      HOAC     H1       HDA3A    0.092000        1.0080           0   0.00000   0.00000
     17378 HOAC     303      HOAC     H2       HDA3A    0.092000        1.0080           0   0.00000   0.00000
     17379 HOAC     303      HOAC     H3       HDA3A    0.092000        1.0080           0   0.00000   0.00000
     17380 HOAC     303      HOAC     O1       OD2C3A   2.356500       15.5994           0   -0.922000   1.53900
     17381 HOAC     303      HOAC     DO1      DRUD    -2.356500        0.4000           0   0.00000   0.00000
     17382 HOAC     303      HOAC     O2       OD31F    2.776500       15.5990           0   -1.28000   1.12400
     17383 HOAC     303      HOAC     DO2      DRUD    -2.776500        0.4000           0   0.00000   0.00000
     17384 HOAC     303      HOAC     H        HDP1A    0.374000        1.0080           0   0.00000   0.00000
     17385 HOAC     303      HOAC     LPO11    LPD     -0.319000        0.0000           -1   0.00000   0.00000
     17386 HOAC     303      HOAC     LPO12    LPD     -0.319000        0.0000           -1   0.00000   0.00000
     17387 HOAC     303      HOAC     LPO21    LPD     -0.285000        0.0000           -1   0.00000   0.00000
     17388 HOAC     303      HOAC     LPO22    LPD     -0.285000        0.0000           -1   0.00000   0.00000
     17389 HOAC     304      HOAC     C1       CD2O3A   3.554200       11.6110           0   -1.20700   0.708000
     17390 HOAC     304      HOAC     DC1      DRUD    -2.696200        0.4000           0   0.00000   0.00000
     17391 HOAC     304      HOAC     C2       CD33C    3.268200       11.6110           0   -2.11400   0.750000
     17392 HOAC     304      HOAC     DC2      DRUD    -3.568200        0.4000           0   0.00000   0.00000
     17393 HOAC     304      HOAC     H1       HDA3A    0.092000        1.0080           0   0.00000   0.00000
     17394 HOAC     304      HOAC     H2       HDA3A    0.092000        1.0080           0   0.00000   0.00000
     17395 HOAC     304      HOAC     H3       HDA3A    0.092000        1.0080           0   0.00000   0.00000
     17396 HOAC     304      HOAC     O1       OD2C3A   2.356500       15.5994           0   -0.922000   1.53900
     17397 HOAC     304      HOAC     DO1      DRUD    -2.356500        0.4000           0   0.00000   0.00000
     17398 HOAC     304      HOAC     O2       OD31F    2.776500       15.5990           0   -1.28000   1.12400
     17399 HOAC     304      HOAC     DO2      DRUD    -2.776500        0.4000           0   0.00000   0.00000
     17400 HOAC     304      HOAC     H        HDP1A    0.374000        1.0080           0   0.00000   0.00000
     17401 HOAC     304      HOAC     LPO11    LPD     -0.319000        0.0000           -1   0.00000   0.00000
     17402 HOAC     304      HOAC     LPO12    LPD     -0.319000        0.0000           -1   0.00000   0.00000
     17403 HOAC     304      HOAC     LPO21    LPD     -0.285000        0.0000           -1   0.00000   0.00000
     17404 HOAC     304      HOAC     LPO22    LPD     -0.285000        0.0000           -1   0.00000   0.00000
     17405 HOAC     305      HOAC     C1       CD2O3A   3.554200       11.6110           0   -1.20700   0.708000
     17406 HOAC     305      HOAC     DC1      DRUD    -2.696200        0.4000           0   0.00000   0.00000
     17407 HOAC     305      HOAC     C2       CD33C    3.268200       11.6110           0   -2.11400   0.750000
     17408 HOAC     305      HOAC     DC2      DRUD    -3.568200        0.4000           0   0.00000   0.00000
     17409 HOAC     305      HOAC     H1       HDA3A    0.092000        1.0080           0   0.00000   0.00000
     17410 HOAC     305      HOAC     H2       HDA3A    0.092000        1.0080           0   0.00000   0.00000
     17411 HOAC     305      HOAC     H3       HDA3A    0.092000        1.0080           0   0.00000   0.00000
     17412 HOAC     305      HOAC     O1       OD2C3A   2.356500       15.5994           0   -0.922000   1.53900
     17413 HOAC     305      HOAC     DO1      DRUD    -2.356500        0.4000           0   0.00000   0.00000
     17414 HOAC     305      HOAC     O2       OD31F    2.776500       15.5990           0   -1.28000   1.12400
     17415 HOAC     305      HOAC     DO2      DRUD    -2.776500        0.4000           0   0.00000   0.00000
     17416 HOAC     305      HOAC     H        HDP1A    0.374000        1.0080           0   0.00000   0.00000
     17417 HOAC     305      HOAC     LPO11    LPD     -0.319000        0.0000           -1   0.00000   0.00000
     17418 HOAC     305      HOAC     LPO12    LPD     -0.319000        0.0000           -1   0.00000   0.00000
     17419 HOAC     305      HOAC     LPO21    LPD     -0.285000        0.0000           -1   0.00000   0.00000
     17420 HOAC     305      HOAC     LPO22    LPD     -0.285000        0.0000           -1   0.00000   0.00000
     17421 HOAC     306      HOAC     C1       CD2O3A   3.554200       11.6110           0   -1.20700   0.708000
     17422 HOAC     306      HOAC     DC1      DRUD    -2.696200        0.4000           0   0.00000   0.00000
     17423 HOAC     306      HOAC     C2       CD33C    3.268200       11.6110           0   -2.11400   0.750000
     17424 HOAC     306      HOAC     DC2      DRUD    -3.568200        0.4000           0   0.00000   0.00000
     17425 HOAC     306      HOAC     H1       HDA3A    0.092000        1.0080           0   0.00000   0.00000
     17426 HOAC     306      HOAC     H2       HDA3A    0.092000        1.0080           0   0.00000   0.00000
     17427 HOAC     306      HOAC     H3       HDA3A    0.092000        1.0080           0   0.00000   0.00000
     17428 HOAC     306      HOAC     O1       OD2C3A   2.356500       15.5994           0   -0.922000   1.53900
     17429 HOAC     306      HOAC     DO1      DRUD    -2.356500        0.4000           0   0.00000   0.00000
     17430 HOAC     306      HOAC     O2       OD31F    2.776500       15.5990           0   -1.28000   1.12400
     17431 HOAC     306      HOAC     DO2      DRUD    -2.776500        0.4000           0   0.00000   0.00000
     17432 HOAC     306      HOAC     H        HDP1A    0.374000        1.0080           0   0.00000   0.00000
     17433 HOAC     306      HOAC     LPO11    LPD     -0.319000        0.0000           -1   0.00000   0.00000
     17434 HOAC     306      HOAC     LPO12    LPD     -0.319000        0.0000           -1   0.00000   0.00000
     17435 HOAC     306      HOAC     LPO21    LPD     -0.285000        0.0000           -1   0.00000   0.00000
     17436 HOAC     306      HOAC     LPO22    LPD     -0.285000        0.0000           -1   0.00000   0.00000
     17437 HOAC     307      HOAC     C1       CD2O3A   3.554200       11.6110           0   -1.20700   0.708000
     17438 HOAC     307      HOAC     DC1      DRUD    -2.696200        0.4000           0   0.00000   0.00000
     17439 HOAC     307      HOAC     C2       CD33C    3.268200       11.6110           0   -2.11400   0.750000
     17440 HOAC     307      HOAC     DC2      DRUD    -3.568200        0.4000           0   0.00000   0.00000
     17441 HOAC     307      HOAC     H1       HDA3A    0.092000        1.0080           0   0.00000   0.00000
     17442 HOAC     307      HOAC     H2       HDA3A    0.092000        1.0080           0   0.00000   0.00000
     17443 HOAC     307      HOAC     H3       HDA3A    0.092000        1.0080           0   0.00000   0.00000
     17444 HOAC     307      HOAC     O1       OD2C3A   2.356500       15.5994           0   -0.922000   1.53900
     17445 HOAC     307      HOAC     DO1      DRUD    -2.356500        0.4000           0   0.00000   0.00000
     17446 HOAC     307      HOAC     O2       OD31F    2.776500       15.5990           0   -1.28000   1.12400
     17447 HOAC     307      HOAC     DO2      DRUD    -2.776500        0.4000           0   0.00000   0.00000
     17448 HOAC     307      HOAC     H        HDP1A    0.374000        1.0080           0   0.00000   0.00000
     17449 HOAC     307      HOAC     LPO11    LPD     -0.319000        0.0000           -1   0.00000   0.00000
     17450 HOAC     307      HOAC     LPO12    LPD     -0.319000        0.0000           -1   0.00000   0.00000
     17451 HOAC     307      HOAC     LPO21    LPD     -0.285000        0.0000           -1   0.00000   0.00000
     17452 HOAC     307      HOAC     LPO22    LPD     -0.285000        0.0000           -1   0.00000   0.00000
     17453 HOAC     308      HOAC     C1       CD2O3A   3.554200       11.6110           0   -1.20700   0.708000
     17454 HOAC     308      HOAC     DC1      DRUD    -2.696200        0.4000           0   0.00000   0.00000
     17455 HOAC     308      HOAC     C2       CD33C    3.268200       11.6110           0   -2.11400   0.750000
     17456 HOAC     308      HOAC     DC2      DRUD    -3.568200        0.4000           0   0.00000   0.00000
     17457 HOAC     308      HOAC     H1       HDA3A    0.092000        1.0080           0   0.00000   0.00000
     17458 HOAC     308      HOAC     H2       HDA3A    0.092000        1.0080           0   0.00000   0.00000
     17459 HOAC     308      HOAC     H3       HDA3A    0.092000        1.0080           0   0.00000   0.00000
     17460 HOAC     308      HOAC     O1       OD2C3A   2.356500       15.5994           0   -0.922000   1.53900
     17461 HOAC     308      HOAC     DO1      DRUD    -2.356500        0.4000           0   0.00000   0.00000
     17462 HOAC     308      HOAC     O2       OD31F    2.776500       15.5990           0   -1.28000   1.12400
     17463 HOAC     308      HOAC     DO2      DRUD    -2.776500        0.4000           0   0.00000   0.00000
     17464 HOAC     308      HOAC     H        HDP1A    0.374000        1.0080           0   0.00000   0.00000
     17465 HOAC     308      HOAC     LPO11    LPD     -0.319000        0.0000           -1   0.00000   0.00000
     17466 HOAC     308      HOAC     LPO12    LPD     -0.319000        0.0000           -1   0.00000   0.00000
     17467 HOAC     308      HOAC     LPO21    LPD     -0.285000        0.0000           -1   0.00000   0.00000
     17468 HOAC     308      HOAC     LPO22    LPD     -0.285000        0.0000           -1   0.00000   0.00000
     17469 HOAC     309      HOAC     C1       CD2O3A   3.554200       11.6110           0   -1.20700   0.708000
     17470 HOAC     309      HOAC     DC1      DRUD    -2.696200        0.4000           0   0.00000   0.00000
     17471 HOAC     309      HOAC     C2       CD33C    3.268200       11.6110           0   -2.11400   0.750000
     17472 HOAC     309      HOAC     DC2      DRUD    -3.568200        0.4000           0   0.00000   0.00000
     17473 HOAC     309      HOAC     H1       HDA3A    0.092000        1.0080           0   0.00000   0.00000
     17474 HOAC     309      HOAC     H2       HDA3A    0.092000        1.0080           0   0.00000   0.00000
     17475 HOAC     309      HOAC     H3       HDA3A    0.092000        1.0080           0   0.00000   0.00000
     17476 HOAC     309      HOAC     O1       OD2C3A   2.356500       15.5994           0   -0.922000   1.53900
     17477 HOAC     309      HOAC     DO1      DRUD    -2.356500        0.4000           0   0.00000   0.00000
     17478 HOAC     309      HOAC     O2       OD31F    2.776500       15.5990           0   -1.28000   1.12400
     17479 HOAC     309      HOAC     DO2      DRUD    -2.776500        0.4000           0   0.00000   0.00000
     17480 HOAC     309      HOAC     H        HDP1A    0.374000        1.0080           0   0.00000   0.00000
     17481 HOAC     309      HOAC     LPO11    LPD     -0.319000        0.0000           -1   0.00000   0.00000
     17482 HOAC     309      HOAC     LPO12    LPD     -0.319000        0.0000           -1   0.00000   0.00000
     17483 HOAC     309      HOAC     LPO21    LPD     -0.285000        0.0000           -1   0.00000   0.00000
     17484 HOAC     309      HOAC     LPO22    LPD     -0.285000        0.0000           -1   0.00000   0.00000
     17485 HOAC     310      HOAC     C1       CD2O3A   3.554200       11.6110           0   -1.20700   0.708000
     17486 HOAC     310      HOAC     DC1      DRUD    -2.696200        0.4000           0   0.00000   0.00000
     17487 HOAC     310      HOAC     C2       CD33C    3.268200       11.6110           0   -2.11400   0.750000
     17488 HOAC     310      HOAC     DC2      DRUD    -3.568200        0.4000           0   0.00000   0.00000
     17489 HOAC     310      HOAC     H1       HDA3A    0.092000        1.0080           0   0.00000   0.00000
     17490 HOAC     310      HOAC     H2       HDA3A    0.092000        1.0080           0   0.00000   0.00000
     17491 HOAC     310      HOAC     H3       HDA3A    0.092000        1.0080           0   0.00000   0.00000
     17492 HOAC     310      HOAC     O1       OD2C3A   2.356500       15.5994           0   -0.922000   1.53900
     17493 HOAC     310      HOAC     DO1      DRUD    -2.356500        0.4000           0   0.00000   0.00000
     17494 HOAC     310      HOAC     O2       OD31F    2.776500       15.5990           0   -1.28000   1.12400
     17495 HOAC     310      HOAC     DO2      DRUD    -2.776500        0.4000           0   0.00000   0.00000
     17496 HOAC     310      HOAC     H        HDP1A    0.374000        1.0080           0   0.00000   0.00000
     17497 HOAC     310      HOAC     LPO11    LPD     -0.319000        0.0000           -1   0.00000   0.00000
     17498 HOAC     310      HOAC     LPO12    LPD     -0.319000        0.0000           -1   0.00000   0.00000
     17499 HOAC     310      HOAC     LPO21    LPD     -0.285000        0.0000           -1   0.00000   0.00000
     17500 HOAC     310      HOAC     LPO22    LPD     -0.285000        0.0000           -1   0.00000   0.00000
     17501 HOAC     311      HOAC     C1       CD2O3A   3.554200       11.6110           0   -1.20700   0.708000
     17502 HOAC     311      HOAC     DC1      DRUD    -2.696200        0.4000           0   0.00000   0.00000
     17503 HOAC     311      HOAC     C2       CD33C    3.268200       11.6110           0   -2.11400   0.750000
     17504 HOAC     311      HOAC     DC2      DRUD    -3.568200        0.4000           0   0.00000   0.00000
     17505 HOAC     311      HOAC     H1       HDA3A    0.092000        1.0080           0   0.00000   0.00000
     17506 HOAC     311      HOAC     H2       HDA3A    0.092000        1.0080           0   0.00000   0.00000
     17507 HOAC     311      HOAC     H3       HDA3A    0.092000        1.0080           0   0.00000   0.00000
     17508 HOAC     311      HOAC     O1       OD2C3A   2.356500       15.5994           0   -0.922000   1.53900
     17509 HOAC     311      HOAC     DO1      DRUD    -2.356500        0.4000           0   0.00000   0.00000
     17510 HOAC     311      HOAC     O2       OD31F    2.776500       15.5990           0   -1.28000   1.12400
     17511 HOAC     311      HOAC     DO2      DRUD    -2.776500        0.4000           0   0.00000   0.00000
     17512 HOAC     311      HOAC     H        HDP1A    0.374000        1.0080           0   0.00000   0.00000
     17513 HOAC     311      HOAC     LPO11    LPD     -0.319000        0.0000           -1   0.00000   0.00000
     17514 HOAC     311      HOAC     LPO12    LPD     -0.319000        0.0000           -1   0.00000   0.00000
     17515 HOAC     311      HOAC     LPO21    LPD     -0.285000        0.0000           -1   0.00000   0.00000
     17516 HOAC     311      HOAC     LPO22    LPD     -0.285000        0.0000           -1   0.00000   0.00000
     17517 HOAC     312      HOAC     C1       CD2O3A   3.554200       11.6110           0   -1.20700   0.708000
     17518 HOAC     312      HOAC     DC1      DRUD    -2.696200        0.4000           0   0.00000   0.00000
     17519 HOAC     312      HOAC     C2       CD33C    3.268200       11.6110           0   -2.11400   0.750000
     17520 HOAC     312      HOAC     DC2      DRUD    -3.568200        0.4000           0   0.00000   0.00000
     17521 HOAC     312      HOAC     H1       HDA3A    0.092000        1.0080           0   0.00000   0.00000
     17522 HOAC     312      HOAC     H2       HDA3A    0.092000        1.0080           0   0.00000   0.00000
     17523 HOAC     312      HOAC     H3       HDA3A    0.092000        1.0080           0   0.00000   0.00000
     17524 HOAC     312      HOAC     O1       OD2C3A   2.356500       15.5994           0   -0.922000   1.53900
     17525 HOAC     312      HOAC     DO1      DRUD    -2.356500        0.4000           0   0.00000   0.00000
     17526 HOAC     312      HOAC     O2       OD31F    2.776500       15.5990           0   -1.28000   1.12400
     17527 HOAC     312      HOAC     DO2      DRUD    -2.776500        0.4000           0   0.00000   0.00000
     17528 HOAC     312      HOAC     H        HDP1A    0.374000        1.0080           0   0.00000   0.00000
     17529 HOAC     312      HOAC     LPO11    LPD     -0.319000        0.0000           -1   0.00000   0.00000
     17530 HOAC     312      HOAC     LPO12    LPD     -0.319000        0.0000           -1   0.00000   0.00000
     17531 HOAC     312      HOAC     LPO21    LPD     -0.285000        0.0000           -1   0.00000   0.00000
     17532 HOAC     312      HOAC     LPO22    LPD     -0.285000        0.0000           -1   0.00000   0.00000
     17533 HOAC     313      HOAC     C1       CD2O3A   3.554200       11.6110           0   -1.20700   0.708000
     17534 HOAC     313      HOAC     DC1      DRUD    -2.696200        0.4000           0   0.00000   0.00000
     17535 HOAC     313      HOAC     C2       CD33C    3.268200       11.6110           0   -2.11400   0.750000
     17536 HOAC     313      HOAC     DC2      DRUD    -3.568200        0.4000           0   0.00000   0.00000
     17537 HOAC     313      HOAC     H1       HDA3A    0.092000        1.0080           0   0.00000   0.00000
     17538 HOAC     313      HOAC     H2       HDA3A    0.092000        1.0080           0   0.00000   0.00000
     17539 HOAC     313      HOAC     H3       HDA3A    0.092000        1.0080           0   0.00000   0.00000
     17540 HOAC     313      HOAC     O1       OD2C3A   2.356500       15.5994           0   -0.922000   1.53900
     17541 HOAC     313      HOAC     DO1      DRUD    -2.356500        0.4000           0   0.00000   0.00000
     17542 HOAC     313      HOAC     O2       OD31F    2.776500       15.5990           0   -1.28000   1.12400
     17543 HOAC     313      HOAC     DO2      DRUD    -2.776500        0.4000           0   0.00000   0.00000
     17544 HOAC     313      HOAC     H        HDP1A    0.374000        1.0080           0   0.00000   0.00000
     17545 HOAC     313      HOAC     LPO11    LPD     -0.319000        0.0000           -1   0.00000   0.00000
     17546 HOAC     313      HOAC     LPO12    LPD     -0.319000        0.0000           -1   0.00000   0.00000
     17547 HOAC     313      HOAC     LPO21    LPD     -0.285000        0.0000           -1   0.00000   0.00000
     17548 HOAC     313      HOAC     LPO22    LPD     -0.285000        0.0000           -1   0.00000   0.00000
     17549 HOAC     314      HOAC     C1       CD2O3A   3.554200       11.6110           0   -1.20700   0.708000
     17550 HOAC     314      HOAC     DC1      DRUD    -2.696200        0.4000           0   0.00000   0.00000
     17551 HOAC     314      HOAC     C2       CD33C    3.268200       11.6110           0   -2.11400   0.750000
     17552 HOAC     314      HOAC     DC2      DRUD    -3.568200        0.4000           0   0.00000   0.00000
     17553 HOAC     314      HOAC     H1       HDA3A    0.092000        1.0080           0   0.00000   0.00000
     17554 HOAC     314      HOAC     H2       HDA3A    0.092000        1.0080           0   0.00000   0.00000
     17555 HOAC     314      HOAC     H3       HDA3A    0.092000        1.0080           0   0.00000   0.00000
     17556 HOAC     314      HOAC     O1       OD2C3A   2.356500       15.5994           0   -0.922000   1.53900
     17557 HOAC     314      HOAC     DO1      DRUD    -2.356500        0.4000           0   0.00000   0.00000
     17558 HOAC     314      HOAC     O2       OD31F    2.776500       15.5990           0   -1.28000   1.12400
     17559 HOAC     314      HOAC     DO2      DRUD    -2.776500        0.4000           0   0.00000   0.00000
     17560 HOAC     314      HOAC     H        HDP1A    0.374000        1.0080           0   0.00000   0.00000
     17561 HOAC     314      HOAC     LPO11    LPD     -0.319000        0.0000           -1   0.00000   0.00000
     17562 HOAC     314      HOAC     LPO12    LPD     -0.319000        0.0000           -1   0.00000   0.00000
     17563 HOAC     314      HOAC     LPO21    LPD     -0.285000        0.0000           -1   0.00000   0.00000
     17564 HOAC     314      HOAC     LPO22    LPD     -0.285000        0.0000           -1   0.00000   0.00000
     17565 HOAC     315      HOAC     C1       CD2O3A   3.554200       11.6110           0   -1.20700   0.708000
     17566 HOAC     315      HOAC     DC1      DRUD    -2.696200        0.4000           0   0.00000   0.00000
     17567 HOAC     315      HOAC     C2       CD33C    3.268200       11.6110           0   -2.11400   0.750000
     17568 HOAC     315      HOAC     DC2      DRUD    -3.568200        0.4000           0   0.00000   0.00000
     17569 HOAC     315      HOAC     H1       HDA3A    0.092000        1.0080           0   0.00000   0.00000
     17570 HOAC     315      HOAC     H2       HDA3A    0.092000        1.0080           0   0.00000   0.00000
     17571 HOAC     315      HOAC     H3       HDA3A    0.092000        1.0080           0   0.00000   0.00000
     17572 HOAC     315      HOAC     O1       OD2C3A   2.356500       15.5994           0   -0.922000   1.53900
     17573 HOAC     315      HOAC     DO1      DRUD    -2.356500        0.4000           0   0.00000   0.00000
     17574 HOAC     315      HOAC     O2       OD31F    2.776500       15.5990           0   -1.28000   1.12400
     17575 HOAC     315      HOAC     DO2      DRUD    -2.776500        0.4000           0   0.00000   0.00000
     17576 HOAC     315      HOAC     H        HDP1A    0.374000        1.0080           0   0.00000   0.00000
     17577 HOAC     315      HOAC     LPO11    LPD     -0.319000        0.0000           -1   0.00000   0.00000
     17578 HOAC     315      HOAC     LPO12    LPD     -0.319000        0.0000           -1   0.00000   0.00000
     17579 HOAC     315      HOAC     LPO21    LPD     -0.285000        0.0000           -1   0.00000   0.00000
     17580 HOAC     315      HOAC     LPO22    LPD     -0.285000        0.0000           -1   0.00000   0.00000
     17581 HOAC     316      HOAC     C1       CD2O3A   3.554200       11.6110           0   -1.20700   0.708000
     17582 HOAC     316      HOAC     DC1      DRUD    -2.696200        0.4000           0   0.00000   0.00000
     17583 HOAC     316      HOAC     C2       CD33C    3.268200       11.6110           0   -2.11400   0.750000
     17584 HOAC     316      HOAC     DC2      DRUD    -3.568200        0.4000           0   0.00000   0.00000
     17585 HOAC     316      HOAC     H1       HDA3A    0.092000        1.0080           0   0.00000   0.00000
     17586 HOAC     316      HOAC     H2       HDA3A    0.092000        1.0080           0   0.00000   0.00000
     17587 HOAC     316      HOAC     H3       HDA3A    0.092000        1.0080           0   0.00000   0.00000
     17588 HOAC     316      HOAC     O1       OD2C3A   2.356500       15.5994           0   -0.922000   1.53900
     17589 HOAC     316      HOAC     DO1      DRUD    -2.356500        0.4000           0   0.00000   0.00000
     17590 HOAC     316      HOAC     O2       OD31F    2.776500       15.5990           0   -1.28000   1.12400
     17591 HOAC     316      HOAC     DO2      DRUD    -2.776500        0.4000           0   0.00000   0.00000
     17592 HOAC     316      HOAC     H        HDP1A    0.374000        1.0080           0   0.00000   0.00000
     17593 HOAC     316      HOAC     LPO11    LPD     -0.319000        0.0000           -1   0.00000   0.00000
     17594 HOAC     316      HOAC     LPO12    LPD     -0.319000        0.0000           -1   0.00000   0.00000
     17595 HOAC     316      HOAC     LPO21    LPD     -0.285000        0.0000           -1   0.00000   0.00000
     17596 HOAC     316      HOAC     LPO22    LPD     -0.285000        0.0000           -1   0.00000   0.00000
     17597 HOAC     317      HOAC     C1       CD2O3A   3.554200       11.6110           0   -1.20700   0.708000
     17598 HOAC     317      HOAC     DC1      DRUD    -2.696200        0.4000           0   0.00000   0.00000
     17599 HOAC     317      HOAC     C2       CD33C    3.268200       11.6110           0   -2.11400   0.750000
     17600 HOAC     317      HOAC     DC2      DRUD    -3.568200        0.4000           0   0.00000   0.00000
     17601 HOAC     317      HOAC     H1       HDA3A    0.092000        1.0080           0   0.00000   0.00000
     17602 HOAC     317      HOAC     H2       HDA3A    0.092000        1.0080           0   0.00000   0.00000
     17603 HOAC     317      HOAC     H3       HDA3A    0.092000        1.0080           0   0.00000   0.00000
     17604 HOAC     317      HOAC     O1       OD2C3A   2.356500       15.5994           0   -0.922000   1.53900
     17605 HOAC     317      HOAC     DO1      DRUD    -2.356500        0.4000           0   0.00000   0.00000
     17606 HOAC     317      HOAC     O2       OD31F    2.776500       15.5990           0   -1.28000   1.12400
     17607 HOAC     317      HOAC     DO2      DRUD    -2.776500        0.4000           0   0.00000   0.00000
     17608 HOAC     317      HOAC     H        HDP1A    0.374000        1.0080           0   0.00000   0.00000
     17609 HOAC     317      HOAC     LPO11    LPD     -0.319000        0.0000           -1   0.00000   0.00000
     17610 HOAC     317      HOAC     LPO12    LPD     -0.319000        0.0000           -1   0.00000   0.00000
     17611 HOAC     317      HOAC     LPO21    LPD     -0.285000        0.0000           -1   0.00000   0.00000
     17612 HOAC     317      HOAC     LPO22    LPD     -0.285000        0.0000           -1   0.00000   0.00000
     17613 HOAC     318      HOAC     C1       CD2O3A   3.554200       11.6110           0   -1.20700   0.708000
     17614 HOAC     318      HOAC     DC1      DRUD    -2.696200        0.4000           0   0.00000   0.00000
     17615 HOAC     318      HOAC     C2       CD33C    3.268200       11.6110           0   -2.11400   0.750000
     17616 HOAC     318      HOAC     DC2      DRUD    -3.568200        0.4000           0   0.00000   0.00000
     17617 HOAC     318      HOAC     H1       HDA3A    0.092000        1.0080           0   0.00000   0.00000
     17618 HOAC     318      HOAC     H2       HDA3A    0.092000        1.0080           0   0.00000   0.00000
     17619 HOAC     318      HOAC     H3       HDA3A    0.092000        1.0080           0   0.00000   0.00000
     17620 HOAC     318      HOAC     O1       OD2C3A   2.356500       15.5994           0   -0.922000   1.53900
     17621 HOAC     318      HOAC     DO1      DRUD    -2.356500        0.4000           0   0.00000   0.00000
     17622 HOAC     318      HOAC     O2       OD31F    2.776500       15.5990           0   -1.28000   1.12400
     17623 HOAC     318      HOAC     DO2      DRUD    -2.776500        0.4000           0   0.00000   0.00000
     17624 HOAC     318      HOAC     H        HDP1A    0.374000        1.0080           0   0.00000   0.00000
     17625 HOAC     318      HOAC     LPO11    LPD     -0.319000        0.0000           -1   0.00000   0.00000
     17626 HOAC     318      HOAC     LPO12    LPD     -0.319000        0.0000           -1   0.00000   0.00000
     17627 HOAC     318      HOAC     LPO21    LPD     -0.285000        0.0000           -1   0.00000   0.00000
     17628 HOAC     318      HOAC     LPO22    LPD     -0.285000        0.0000           -1   0.00000   0.00000
     17629 HOAC     319      HOAC     C1       CD2O3A   3.554200       11.6110           0   -1.20700   0.708000
     17630 HOAC     319      HOAC     DC1      DRUD    -2.696200        0.4000           0   0.00000   0.00000
     17631 HOAC     319      HOAC     C2       CD33C    3.268200       11.6110           0   -2.11400   0.750000
     17632 HOAC     319      HOAC     DC2      DRUD    -3.568200        0.4000           0   0.00000   0.00000
     17633 HOAC     319      HOAC     H1       HDA3A    0.092000        1.0080           0   0.00000   0.00000
     17634 HOAC     319      HOAC     H2       HDA3A    0.092000        1.0080           0   0.00000   0.00000
     17635 HOAC     319      HOAC     H3       HDA3A    0.092000        1.0080           0   0.00000   0.00000
     17636 HOAC     319      HOAC     O1       OD2C3A   2.356500       15.5994           0   -0.922000   1.53900
     17637 HOAC     319      HOAC     DO1      DRUD    -2.356500        0.4000           0   0.00000   0.00000
     17638 HOAC     319      HOAC     O2       OD31F    2.776500       15.5990           0   -1.28000   1.12400
     17639 HOAC     319      HOAC     DO2      DRUD    -2.776500        0.4000           0   0.00000   0.00000
     17640 HOAC     319      HOAC     H        HDP1A    0.374000        1.0080           0   0.00000   0.00000
     17641 HOAC     319      HOAC     LPO11    LPD     -0.319000        0.0000           -1   0.00000   0.00000
     17642 HOAC     319      HOAC     LPO12    LPD     -0.319000        0.0000           -1   0.00000   0.00000
     17643 HOAC     319      HOAC     LPO21    LPD     -0.285000        0.0000           -1   0.00000   0.00000
     17644 HOAC     319      HOAC     LPO22    LPD     -0.285000        0.0000           -1   0.00000   0.00000
     17645 HOAC     320      HOAC     C1       CD2O3A   3.554200       11.6110           0   -1.20700   0.708000
     17646 HOAC     320      HOAC     DC1      DRUD    -2.696200        0.4000           0   0.00000   0.00000
     17647 HOAC     320      HOAC     C2       CD33C    3.268200       11.6110           0   -2.11400   0.750000
     17648 HOAC     320      HOAC     DC2      DRUD    -3.568200        0.4000           0   0.00000   0.00000
     17649 HOAC     320      HOAC     H1       HDA3A    0.092000        1.0080           0   0.00000   0.00000
     17650 HOAC     320      HOAC     H2       HDA3A    0.092000        1.0080           0   0.00000   0.00000
     17651 HOAC     320      HOAC     H3       HDA3A    0.092000        1.0080           0   0.00000   0.00000
     17652 HOAC     320      HOAC     O1       OD2C3A   2.356500       15.5994           0   -0.922000   1.53900
     17653 HOAC     320      HOAC     DO1      DRUD    -2.356500        0.4000           0   0.00000   0.00000
     17654 HOAC     320      HOAC     O2       OD31F    2.776500       15.5990           0   -1.28000   1.12400
     17655 HOAC     320      HOAC     DO2      DRUD    -2.776500        0.4000           0   0.00000   0.00000
     17656 HOAC     320      HOAC     H        HDP1A    0.374000        1.0080           0   0.00000   0.00000
     17657 HOAC     320      HOAC     LPO11    LPD     -0.319000        0.0000           -1   0.00000   0.00000
     17658 HOAC     320      HOAC     LPO12    LPD     -0.319000        0.0000           -1   0.00000   0.00000
     17659 HOAC     320      HOAC     LPO21    LPD     -0.285000        0.0000           -1   0.00000   0.00000
     17660 HOAC     320      HOAC     LPO22    LPD     -0.285000        0.0000           -1   0.00000   0.00000
     17661 HOAC     321      HOAC     C1       CD2O3A   3.554200       11.6110           0   -1.20700   0.708000
     17662 HOAC     321      HOAC     DC1      DRUD    -2.696200        0.4000           0   0.00000   0.00000
     17663 HOAC     321      HOAC     C2       CD33C    3.268200       11.6110           0   -2.11400   0.750000
     17664 HOAC     321      HOAC     DC2      DRUD    -3.568200        0.4000           0   0.00000   0.00000
     17665 HOAC     321      HOAC     H1       HDA3A    0.092000        1.0080           0   0.00000   0.00000
     17666 HOAC     321      HOAC     H2       HDA3A    0.092000        1.0080           0   0.00000   0.00000
     17667 HOAC     321      HOAC     H3       HDA3A    0.092000        1.0080           0   0.00000   0.00000
     17668 HOAC     321      HOAC     O1       OD2C3A   2.356500       15.5994           0   -0.922000   1.53900
     17669 HOAC     321      HOAC     DO1      DRUD    -2.356500        0.4000           0   0.00000   0.00000
     17670 HOAC     321      HOAC     O2       OD31F    2.776500       15.5990           0   -1.28000   1.12400
     17671 HOAC     321      HOAC     DO2      DRUD    -2.776500        0.4000           0   0.00000   0.00000
     17672 HOAC     321      HOAC     H        HDP1A    0.374000        1.0080           0   0.00000   0.00000
     17673 HOAC     321      HOAC     LPO11    LPD     -0.319000        0.0000           -1   0.00000   0.00000
     17674 HOAC     321      HOAC     LPO12    LPD     -0.319000        0.0000           -1   0.00000   0.00000
     17675 HOAC     321      HOAC     LPO21    LPD     -0.285000        0.0000           -1   0.00000   0.00000
     17676 HOAC     321      HOAC     LPO22    LPD     -0.285000        0.0000           -1   0.00000   0.00000
     17677 HOAC     322      HOAC     C1       CD2O3A   3.554200       11.6110           0   -1.20700   0.708000
     17678 HOAC     322      HOAC     DC1      DRUD    -2.696200        0.4000           0   0.00000   0.00000
     17679 HOAC     322      HOAC     C2       CD33C    3.268200       11.6110           0   -2.11400   0.750000
     17680 HOAC     322      HOAC     DC2      DRUD    -3.568200        0.4000           0   0.00000   0.00000
     17681 HOAC     322      HOAC     H1       HDA3A    0.092000        1.0080           0   0.00000   0.00000
     17682 HOAC     322      HOAC     H2       HDA3A    0.092000        1.0080           0   0.00000   0.00000
     17683 HOAC     322      HOAC     H3       HDA3A    0.092000        1.0080           0   0.00000   0.00000
     17684 HOAC     322      HOAC     O1       OD2C3A   2.356500       15.5994           0   -0.922000   1.53900
     17685 HOAC     322      HOAC     DO1      DRUD    -2.356500        0.4000           0   0.00000   0.00000
     17686 HOAC     322      HOAC     O2       OD31F    2.776500       15.5990           0   -1.28000   1.12400
     17687 HOAC     322      HOAC     DO2      DRUD    -2.776500        0.4000           0   0.00000   0.00000
     17688 HOAC     322      HOAC     H        HDP1A    0.374000        1.0080           0   0.00000   0.00000
     17689 HOAC     322      HOAC     LPO11    LPD     -0.319000        0.0000           -1   0.00000   0.00000
     17690 HOAC     322      HOAC     LPO12    LPD     -0.319000        0.0000           -1   0.00000   0.00000
     17691 HOAC     322      HOAC     LPO21    LPD     -0.285000        0.0000           -1   0.00000   0.00000
     17692 HOAC     322      HOAC     LPO22    LPD     -0.285000        0.0000           -1   0.00000   0.00000
     17693 HOAC     323      HOAC     C1       CD2O3A   3.554200       11.6110           0   -1.20700   0.708000
     17694 HOAC     323      HOAC     DC1      DRUD    -2.696200        0.4000           0   0.00000   0.00000
     17695 HOAC     323      HOAC     C2       CD33C    3.268200       11.6110           0   -2.11400   0.750000
     17696 HOAC     323      HOAC     DC2      DRUD    -3.568200        0.4000           0   0.00000   0.00000
     17697 HOAC     323      HOAC     H1       HDA3A    0.092000        1.0080           0   0.00000   0.00000
     17698 HOAC     323      HOAC     H2       HDA3A    0.092000        1.0080           0   0.00000   0.00000
     17699 HOAC     323      HOAC     H3       HDA3A    0.092000        1.0080           0   0.00000   0.00000
     17700 HOAC     323      HOAC     O1       OD2C3A   2.356500       15.5994           0   -0.922000   1.53900
     17701 HOAC     323      HOAC     DO1      DRUD    -2.356500        0.4000           0   0.00000   0.00000
     17702 HOAC     323      HOAC     O2       OD31F    2.776500       15.5990           0   -1.28000   1.12400
     17703 HOAC     323      HOAC     DO2      DRUD    -2.776500        0.4000           0   0.00000   0.00000
     17704 HOAC     323      HOAC     H        HDP1A    0.374000        1.0080           0   0.00000   0.00000
     17705 HOAC     323      HOAC     LPO11    LPD     -0.319000        0.0000           -1   0.00000   0.00000
     17706 HOAC     323      HOAC     LPO12    LPD     -0.319000        0.0000           -1   0.00000   0.00000
     17707 HOAC     323      HOAC     LPO21    LPD     -0.285000        0.0000           -1   0.00000   0.00000
     17708 HOAC     323      HOAC     LPO22    LPD     -0.285000        0.0000           -1   0.00000   0.00000
     17709 HOAC     324      HOAC     C1       CD2O3A   3.554200       11.6110           0   -1.20700   0.708000
     17710 HOAC     324      HOAC     DC1      DRUD    -2.696200        0.4000           0   0.00000   0.00000
     17711 HOAC     324      HOAC     C2       CD33C    3.268200       11.6110           0   -2.11400   0.750000
     17712 HOAC     324      HOAC     DC2      DRUD    -3.568200        0.4000           0   0.00000   0.00000
     17713 HOAC     324      HOAC     H1       HDA3A    0.092000        1.0080           0   0.00000   0.00000
     17714 HOAC     324      HOAC     H2       HDA3A    0.092000        1.0080           0   0.00000   0.00000
     17715 HOAC     324      HOAC     H3       HDA3A    0.092000        1.0080           0   0.00000   0.00000
     17716 HOAC     324      HOAC     O1       OD2C3A   2.356500       15.5994           0   -0.922000   1.53900
     17717 HOAC     324      HOAC     DO1      DRUD    -2.356500        0.4000           0   0.00000   0.00000
     17718 HOAC     324      HOAC     O2       OD31F    2.776500       15.5990           0   -1.28000   1.12400
     17719 HOAC     324      HOAC     DO2      DRUD    -2.776500        0.4000           0   0.00000   0.00000
     17720 HOAC     324      HOAC     H        HDP1A    0.374000        1.0080           0   0.00000   0.00000
     17721 HOAC     324      HOAC     LPO11    LPD     -0.319000        0.0000           -1   0.00000   0.00000
     17722 HOAC     324      HOAC     LPO12    LPD     -0.319000        0.0000           -1   0.00000   0.00000
     17723 HOAC     324      HOAC     LPO21    LPD     -0.285000        0.0000           -1   0.00000   0.00000
     17724 HOAC     324      HOAC     LPO22    LPD     -0.285000        0.0000           -1   0.00000   0.00000
     17725 HOAC     325      HOAC     C1       CD2O3A   3.554200       11.6110           0   -1.20700   0.708000
     17726 HOAC     325      HOAC     DC1      DRUD    -2.696200        0.4000           0   0.00000   0.00000
     17727 HOAC     325      HOAC     C2       CD33C    3.268200       11.6110           0   -2.11400   0.750000
     17728 HOAC     325      HOAC     DC2      DRUD    -3.568200        0.4000           0   0.00000   0.00000
     17729 HOAC     325      HOAC     H1       HDA3A    0.092000        1.0080           0   0.00000   0.00000
     17730 HOAC     325      HOAC     H2       HDA3A    0.092000        1.0080           0   0.00000   0.00000
     17731 HOAC     325      HOAC     H3       HDA3A    0.092000        1.0080           0   0.00000   0.00000
     17732 HOAC     325      HOAC     O1       OD2C3A   2.356500       15.5994           0   -0.922000   1.53900
     17733 HOAC     325      HOAC     DO1      DRUD    -2.356500        0.4000           0   0.00000   0.00000
     17734 HOAC     325      HOAC     O2       OD31F    2.776500       15.5990           0   -1.28000   1.12400
     17735 HOAC     325      HOAC     DO2      DRUD    -2.776500        0.4000           0   0.00000   0.00000
     17736 HOAC     325      HOAC     H        HDP1A    0.374000        1.0080           0   0.00000   0.00000
     17737 HOAC     325      HOAC     LPO11    LPD     -0.319000        0.0000           -1   0.00000   0.00000
     17738 HOAC     325      HOAC     LPO12    LPD     -0.319000        0.0000           -1   0.00000   0.00000
     17739 HOAC     325      HOAC     LPO21    LPD     -0.285000        0.0000           -1   0.00000   0.00000
     17740 HOAC     325      HOAC     LPO22    LPD     -0.285000        0.0000           -1   0.00000   0.00000
     17741 HOAC     326      HOAC     C1       CD2O3A   3.554200       11.6110           0   -1.20700   0.708000
     17742 HOAC     326      HOAC     DC1      DRUD    -2.696200        0.4000           0   0.00000   0.00000
     17743 HOAC     326      HOAC     C2       CD33C    3.268200       11.6110           0   -2.11400   0.750000
     17744 HOAC     326      HOAC     DC2      DRUD    -3.568200        0.4000           0   0.00000   0.00000
     17745 HOAC     326      HOAC     H1       HDA3A    0.092000        1.0080           0   0.00000   0.00000
     17746 HOAC     326      HOAC     H2       HDA3A    0.092000        1.0080           0   0.00000   0.00000
     17747 HOAC     326      HOAC     H3       HDA3A    0.092000        1.0080           0   0.00000   0.00000
     17748 HOAC     326      HOAC     O1       OD2C3A   2.356500       15.5994           0   -0.922000   1.53900
     17749 HOAC     326      HOAC     DO1      DRUD    -2.356500        0.4000           0   0.00000   0.00000
     17750 HOAC     326      HOAC     O2       OD31F    2.776500       15.5990           0   -1.28000   1.12400
     17751 HOAC     326      HOAC     DO2      DRUD    -2.776500        0.4000           0   0.00000   0.00000
     17752 HOAC     326      HOAC     H        HDP1A    0.374000        1.0080           0   0.00000   0.00000
     17753 HOAC     326      HOAC     LPO11    LPD     -0.319000        0.0000           -1   0.00000   0.00000
     17754 HOAC     326      HOAC     LPO12    LPD     -0.319000        0.0000           -1   0.00000   0.00000
     17755 HOAC     326      HOAC     LPO21    LPD     -0.285000        0.0000           -1   0.00000   0.00000
     17756 HOAC     326      HOAC     LPO22    LPD     -0.285000        0.0000           -1   0.00000   0.00000
     17757 HOAC     327      HOAC     C1       CD2O3A   3.554200       11.6110           0   -1.20700   0.708000
     17758 HOAC     327      HOAC     DC1      DRUD    -2.696200        0.4000           0   0.00000   0.00000
     17759 HOAC     327      HOAC     C2       CD33C    3.268200       11.6110           0   -2.11400   0.750000
     17760 HOAC     327      HOAC     DC2      DRUD    -3.568200        0.4000           0   0.00000   0.00000
     17761 HOAC     327      HOAC     H1       HDA3A    0.092000        1.0080           0   0.00000   0.00000
     17762 HOAC     327      HOAC     H2       HDA3A    0.092000        1.0080           0   0.00000   0.00000
     17763 HOAC     327      HOAC     H3       HDA3A    0.092000        1.0080           0   0.00000   0.00000
     17764 HOAC     327      HOAC     O1       OD2C3A   2.356500       15.5994           0   -0.922000   1.53900
     17765 HOAC     327      HOAC     DO1      DRUD    -2.356500        0.4000           0   0.00000   0.00000
     17766 HOAC     327      HOAC     O2       OD31F    2.776500       15.5990           0   -1.28000   1.12400
     17767 HOAC     327      HOAC     DO2      DRUD    -2.776500        0.4000           0   0.00000   0.00000
     17768 HOAC     327      HOAC     H        HDP1A    0.374000        1.0080           0   0.00000   0.00000
     17769 HOAC     327      HOAC     LPO11    LPD     -0.319000        0.0000           -1   0.00000   0.00000
     17770 HOAC     327      HOAC     LPO12    LPD     -0.319000        0.0000           -1   0.00000   0.00000
     17771 HOAC     327      HOAC     LPO21    LPD     -0.285000        0.0000           -1   0.00000   0.00000
     17772 HOAC     327      HOAC     LPO22    LPD     -0.285000        0.0000           -1   0.00000   0.00000
     17773 HOAC     328      HOAC     C1       CD2O3A   3.554200       11.6110           0   -1.20700   0.708000
     17774 HOAC     328      HOAC     DC1      DRUD    -2.696200        0.4000           0   0.00000   0.00000
     17775 HOAC     328      HOAC     C2       CD33C    3.268200       11.6110           0   -2.11400   0.750000
     17776 HOAC     328      HOAC     DC2      DRUD    -3.568200        0.4000           0   0.00000   0.00000
     17777 HOAC     328      HOAC     H1       HDA3A    0.092000        1.0080           0   0.00000   0.00000
     17778 HOAC     328      HOAC     H2       HDA3A    0.092000        1.0080           0   0.00000   0.00000
     17779 HOAC     328      HOAC     H3       HDA3A    0.092000        1.0080           0   0.00000   0.00000
     17780 HOAC     328      HOAC     O1       OD2C3A   2.356500       15.5994           0   -0.922000   1.53900
     17781 HOAC     328      HOAC     DO1      DRUD    -2.356500        0.4000           0   0.00000   0.00000
     17782 HOAC     328      HOAC     O2       OD31F    2.776500       15.5990           0   -1.28000   1.12400
     17783 HOAC     328      HOAC     DO2      DRUD    -2.776500        0.4000           0   0.00000   0.00000
     17784 HOAC     328      HOAC     H        HDP1A    0.374000        1.0080           0   0.00000   0.00000
     17785 HOAC     328      HOAC     LPO11    LPD     -0.319000        0.0000           -1   0.00000   0.00000
     17786 HOAC     328      HOAC     LPO12    LPD     -0.319000        0.0000           -1   0.00000   0.00000
     17787 HOAC     328      HOAC     LPO21    LPD     -0.285000        0.0000           -1   0.00000   0.00000
     17788 HOAC     328      HOAC     LPO22    LPD     -0.285000        0.0000           -1   0.00000   0.00000
     17789 HOAC     329      HOAC     C1       CD2O3A   3.554200       11.6110           0   -1.20700   0.708000
     17790 HOAC     329      HOAC     DC1      DRUD    -2.696200        0.4000           0   0.00000   0.00000
     17791 HOAC     329      HOAC     C2       CD33C    3.268200       11.6110           0   -2.11400   0.750000
     17792 HOAC     329      HOAC     DC2      DRUD    -3.568200        0.4000           0   0.00000   0.00000
     17793 HOAC     329      HOAC     H1       HDA3A    0.092000        1.0080           0   0.00000   0.00000
     17794 HOAC     329      HOAC     H2       HDA3A    0.092000        1.0080           0   0.00000   0.00000
     17795 HOAC     329      HOAC     H3       HDA3A    0.092000        1.0080           0   0.00000   0.00000
     17796 HOAC     329      HOAC     O1       OD2C3A   2.356500       15.5994           0   -0.922000   1.53900
     17797 HOAC     329      HOAC     DO1      DRUD    -2.356500        0.4000           0   0.00000   0.00000
     17798 HOAC     329      HOAC     O2       OD31F    2.776500       15.5990           0   -1.28000   1.12400
     17799 HOAC     329      HOAC     DO2      DRUD    -2.776500        0.4000           0   0.00000   0.00000
     17800 HOAC     329      HOAC     H        HDP1A    0.374000        1.0080           0   0.00000   0.00000
     17801 HOAC     329      HOAC     LPO11    LPD     -0.319000        0.0000           -1   0.00000   0.00000
     17802 HOAC     329      HOAC     LPO12    LPD     -0.319000        0.0000           -1   0.00000   0.00000
     17803 HOAC     329      HOAC     LPO21    LPD     -0.285000        0.0000           -1   0.00000   0.00000
     17804 HOAC     329      HOAC     LPO22    LPD     -0.285000        0.0000           -1   0.00000   0.00000
     17805 HOAC     330      HOAC     C1       CD2O3A   3.554200       11.6110           0   -1.20700   0.708000
     17806 HOAC     330      HOAC     DC1      DRUD    -2.696200        0.4000           0   0.00000   0.00000
     17807 HOAC     330      HOAC     C2       CD33C    3.268200       11.6110           0   -2.11400   0.750000
     17808 HOAC     330      HOAC     DC2      DRUD    -3.568200        0.4000           0   0.00000   0.00000
     17809 HOAC     330      HOAC     H1       HDA3A    0.092000        1.0080           0   0.00000   0.00000
     17810 HOAC     330      HOAC     H2       HDA3A    0.092000        1.0080           0   0.00000   0.00000
     17811 HOAC     330      HOAC     H3       HDA3A    0.092000        1.0080           0   0.00000   0.00000
     17812 HOAC     330      HOAC     O1       OD2C3A   2.356500       15.5994           0   -0.922000   1.53900
     17813 HOAC     330      HOAC     DO1      DRUD    -2.356500        0.4000           0   0.00000   0.00000
     17814 HOAC     330      HOAC     O2       OD31F    2.776500       15.5990           0   -1.28000   1.12400
     17815 HOAC     330      HOAC     DO2      DRUD    -2.776500        0.4000           0   0.00000   0.00000
     17816 HOAC     330      HOAC     H        HDP1A    0.374000        1.0080           0   0.00000   0.00000
     17817 HOAC     330      HOAC     LPO11    LPD     -0.319000        0.0000           -1   0.00000   0.00000
     17818 HOAC     330      HOAC     LPO12    LPD     -0.319000        0.0000           -1   0.00000   0.00000
     17819 HOAC     330      HOAC     LPO21    LPD     -0.285000        0.0000           -1   0.00000   0.00000
     17820 HOAC     330      HOAC     LPO22    LPD     -0.285000        0.0000           -1   0.00000   0.00000
     17821 HOAC     331      HOAC     C1       CD2O3A   3.554200       11.6110           0   -1.20700   0.708000
     17822 HOAC     331      HOAC     DC1      DRUD    -2.696200        0.4000           0   0.00000   0.00000
     17823 HOAC     331      HOAC     C2       CD33C    3.268200       11.6110           0   -2.11400   0.750000
     17824 HOAC     331      HOAC     DC2      DRUD    -3.568200        0.4000           0   0.00000   0.00000
     17825 HOAC     331      HOAC     H1       HDA3A    0.092000        1.0080           0   0.00000   0.00000
     17826 HOAC     331      HOAC     H2       HDA3A    0.092000        1.0080           0   0.00000   0.00000
     17827 HOAC     331      HOAC     H3       HDA3A    0.092000        1.0080           0   0.00000   0.00000
     17828 HOAC     331      HOAC     O1       OD2C3A   2.356500       15.5994           0   -0.922000   1.53900
     17829 HOAC     331      HOAC     DO1      DRUD    -2.356500        0.4000           0   0.00000   0.00000
     17830 HOAC     331      HOAC     O2       OD31F    2.776500       15.5990           0   -1.28000   1.12400
     17831 HOAC     331      HOAC     DO2      DRUD    -2.776500        0.4000           0   0.00000   0.00000
     17832 HOAC     331      HOAC     H        HDP1A    0.374000        1.0080           0   0.00000   0.00000
     17833 HOAC     331      HOAC     LPO11    LPD     -0.319000        0.0000           -1   0.00000   0.00000
     17834 HOAC     331      HOAC     LPO12    LPD     -0.319000        0.0000           -1   0.00000   0.00000
     17835 HOAC     331      HOAC     LPO21    LPD     -0.285000        0.0000           -1   0.00000   0.00000
     17836 HOAC     331      HOAC     LPO22    LPD     -0.285000        0.0000           -1   0.00000   0.00000
     17837 HOAC     332      HOAC     C1       CD2O3A   3.554200       11.6110           0   -1.20700   0.708000
     17838 HOAC     332      HOAC     DC1      DRUD    -2.696200        0.4000           0   0.00000   0.00000
     17839 HOAC     332      HOAC     C2       CD33C    3.268200       11.6110           0   -2.11400   0.750000
     17840 HOAC     332      HOAC     DC2      DRUD    -3.568200        0.4000           0   0.00000   0.00000
     17841 HOAC     332      HOAC     H1       HDA3A    0.092000        1.0080           0   0.00000   0.00000
     17842 HOAC     332      HOAC     H2       HDA3A    0.092000        1.0080           0   0.00000   0.00000
     17843 HOAC     332      HOAC     H3       HDA3A    0.092000        1.0080           0   0.00000   0.00000
     17844 HOAC     332      HOAC     O1       OD2C3A   2.356500       15.5994           0   -0.922000   1.53900
     17845 HOAC     332      HOAC     DO1      DRUD    -2.356500        0.4000           0   0.00000   0.00000
     17846 HOAC     332      HOAC     O2       OD31F    2.776500       15.5990           0   -1.28000   1.12400
     17847 HOAC     332      HOAC     DO2      DRUD    -2.776500        0.4000           0   0.00000   0.00000
     17848 HOAC     332      HOAC     H        HDP1A    0.374000        1.0080           0   0.00000   0.00000
     17849 HOAC     332      HOAC     LPO11    LPD     -0.319000        0.0000           -1   0.00000   0.00000
     17850 HOAC     332      HOAC     LPO12    LPD     -0.319000        0.0000           -1   0.00000   0.00000
     17851 HOAC     332      HOAC     LPO21    LPD     -0.285000        0.0000           -1   0.00000   0.00000
     17852 HOAC     332      HOAC     LPO22    LPD     -0.285000        0.0000           -1   0.00000   0.00000
     17853 HOAC     333      HOAC     C1       CD2O3A   3.554200       11.6110           0   -1.20700   0.708000
     17854 HOAC     333      HOAC     DC1      DRUD    -2.696200        0.4000           0   0.00000   0.00000
     17855 HOAC     333      HOAC     C2       CD33C    3.268200       11.6110           0   -2.11400   0.750000
     17856 HOAC     333      HOAC     DC2      DRUD    -3.568200        0.4000           0   0.00000   0.00000
     17857 HOAC     333      HOAC     H1       HDA3A    0.092000        1.0080           0   0.00000   0.00000
     17858 HOAC     333      HOAC     H2       HDA3A    0.092000        1.0080           0   0.00000   0.00000
     17859 HOAC     333      HOAC     H3       HDA3A    0.092000        1.0080           0   0.00000   0.00000
     17860 HOAC     333      HOAC     O1       OD2C3A   2.356500       15.5994           0   -0.922000   1.53900
     17861 HOAC     333      HOAC     DO1      DRUD    -2.356500        0.4000           0   0.00000   0.00000
     17862 HOAC     333      HOAC     O2       OD31F    2.776500       15.5990           0   -1.28000   1.12400
     17863 HOAC     333      HOAC     DO2      DRUD    -2.776500        0.4000           0   0.00000   0.00000
     17864 HOAC     333      HOAC     H        HDP1A    0.374000        1.0080           0   0.00000   0.00000
     17865 HOAC     333      HOAC     LPO11    LPD     -0.319000        0.0000           -1   0.00000   0.00000
     17866 HOAC     333      HOAC     LPO12    LPD     -0.319000        0.0000           -1   0.00000   0.00000
     17867 HOAC     333      HOAC     LPO21    LPD     -0.285000        0.0000           -1   0.00000   0.00000
     17868 HOAC     333      HOAC     LPO22    LPD     -0.285000        0.0000           -1   0.00000   0.00000
     17869 HOAC     334      HOAC     C1       CD2O3A   3.554200       11.6110           0   -1.20700   0.708000
     17870 HOAC     334      HOAC     DC1      DRUD    -2.696200        0.4000           0   0.00000   0.00000
     17871 HOAC     334      HOAC     C2       CD33C    3.268200       11.6110           0   -2.11400   0.750000
     17872 HOAC     334      HOAC     DC2      DRUD    -3.568200        0.4000           0   0.00000   0.00000
     17873 HOAC     334      HOAC     H1       HDA3A    0.092000        1.0080           0   0.00000   0.00000
     17874 HOAC     334      HOAC     H2       HDA3A    0.092000        1.0080           0   0.00000   0.00000
     17875 HOAC     334      HOAC     H3       HDA3A    0.092000        1.0080           0   0.00000   0.00000
     17876 HOAC     334      HOAC     O1       OD2C3A   2.356500       15.5994           0   -0.922000   1.53900
     17877 HOAC     334      HOAC     DO1      DRUD    -2.356500        0.4000           0   0.00000   0.00000
     17878 HOAC     334      HOAC     O2       OD31F    2.776500       15.5990           0   -1.28000   1.12400
     17879 HOAC     334      HOAC     DO2      DRUD    -2.776500        0.4000           0   0.00000   0.00000
     17880 HOAC     334      HOAC     H        HDP1A    0.374000        1.0080           0   0.00000   0.00000
     17881 HOAC     334      HOAC     LPO11    LPD     -0.319000        0.0000           -1   0.00000   0.00000
     17882 HOAC     334      HOAC     LPO12    LPD     -0.319000        0.0000           -1   0.00000   0.00000
     17883 HOAC     334      HOAC     LPO21    LPD     -0.285000        0.0000           -1   0.00000   0.00000
     17884 HOAC     334      HOAC     LPO22    LPD     -0.285000        0.0000           -1   0.00000   0.00000
     17885 HOAC     335      HOAC     C1       CD2O3A   3.554200       11.6110           0   -1.20700   0.708000
     17886 HOAC     335      HOAC     DC1      DRUD    -2.696200        0.4000           0   0.00000   0.00000
     17887 HOAC     335      HOAC     C2       CD33C    3.268200       11.6110           0   -2.11400   0.750000
     17888 HOAC     335      HOAC     DC2      DRUD    -3.568200        0.4000           0   0.00000   0.00000
     17889 HOAC     335      HOAC     H1       HDA3A    0.092000        1.0080           0   0.00000   0.00000
     17890 HOAC     335      HOAC     H2       HDA3A    0.092000        1.0080           0   0.00000   0.00000
     17891 HOAC     335      HOAC     H3       HDA3A    0.092000        1.0080           0   0.00000   0.00000
     17892 HOAC     335      HOAC     O1       OD2C3A   2.356500       15.5994           0   -0.922000   1.53900
     17893 HOAC     335      HOAC     DO1      DRUD    -2.356500        0.4000           0   0.00000   0.00000
     17894 HOAC     335      HOAC     O2       OD31F    2.776500       15.5990           0   -1.28000   1.12400
     17895 HOAC     335      HOAC     DO2      DRUD    -2.776500        0.4000           0   0.00000   0.00000
     17896 HOAC     335      HOAC     H        HDP1A    0.374000        1.0080           0   0.00000   0.00000
     17897 HOAC     335      HOAC     LPO11    LPD     -0.319000        0.0000           -1   0.00000   0.00000
     17898 HOAC     335      HOAC     LPO12    LPD     -0.319000        0.0000           -1   0.00000   0.00000
     17899 HOAC     335      HOAC     LPO21    LPD     -0.285000        0.0000           -1   0.00000   0.00000
     17900 HOAC     335      HOAC     LPO22    LPD     -0.285000        0.0000           -1   0.00000   0.00000
     17901 HOAC     336      HOAC     C1       CD2O3A   3.554200       11.6110           0   -1.20700   0.708000
     17902 HOAC     336      HOAC     DC1      DRUD    -2.696200        0.4000           0   0.00000   0.00000
     17903 HOAC     336      HOAC     C2       CD33C    3.268200       11.6110           0   -2.11400   0.750000
     17904 HOAC     336      HOAC     DC2      DRUD    -3.568200        0.4000           0   0.00000   0.00000
     17905 HOAC     336      HOAC     H1       HDA3A    0.092000        1.0080           0   0.00000   0.00000
     17906 HOAC     336      HOAC     H2       HDA3A    0.092000        1.0080           0   0.00000   0.00000
     17907 HOAC     336      HOAC     H3       HDA3A    0.092000        1.0080           0   0.00000   0.00000
     17908 HOAC     336      HOAC     O1       OD2C3A   2.356500       15.5994           0   -0.922000   1.53900
     17909 HOAC     336      HOAC     DO1      DRUD    -2.356500        0.4000           0   0.00000   0.00000
     17910 HOAC     336      HOAC     O2       OD31F    2.776500       15.5990           0   -1.28000   1.12400
     17911 HOAC     336      HOAC     DO2      DRUD    -2.776500        0.4000           0   0.00000   0.00000
     17912 HOAC     336      HOAC     H        HDP1A    0.374000        1.0080           0   0.00000   0.00000
     17913 HOAC     336      HOAC     LPO11    LPD     -0.319000        0.0000           -1   0.00000   0.00000
     17914 HOAC     336      HOAC     LPO12    LPD     -0.319000        0.0000           -1   0.00000   0.00000
     17915 HOAC     336      HOAC     LPO21    LPD     -0.285000        0.0000           -1   0.00000   0.00000
     17916 HOAC     336      HOAC     LPO22    LPD     -0.285000        0.0000           -1   0.00000   0.00000
     17917 HOAC     337      HOAC     C1       CD2O3A   3.554200       11.6110           0   -1.20700   0.708000
     17918 HOAC     337      HOAC     DC1      DRUD    -2.696200        0.4000           0   0.00000   0.00000
     17919 HOAC     337      HOAC     C2       CD33C    3.268200       11.6110           0   -2.11400   0.750000
     17920 HOAC     337      HOAC     DC2      DRUD    -3.568200        0.4000           0   0.00000   0.00000
     17921 HOAC     337      HOAC     H1       HDA3A    0.092000        1.0080           0   0.00000   0.00000
     17922 HOAC     337      HOAC     H2       HDA3A    0.092000        1.0080           0   0.00000   0.00000
     17923 HOAC     337      HOAC     H3       HDA3A    0.092000        1.0080           0   0.00000   0.00000
     17924 HOAC     337      HOAC     O1       OD2C3A   2.356500       15.5994           0   -0.922000   1.53900
     17925 HOAC     337      HOAC     DO1      DRUD    -2.356500        0.4000           0   0.00000   0.00000
     17926 HOAC     337      HOAC     O2       OD31F    2.776500       15.5990           0   -1.28000   1.12400
     17927 HOAC     337      HOAC     DO2      DRUD    -2.776500        0.4000           0   0.00000   0.00000
     17928 HOAC     337      HOAC     H        HDP1A    0.374000        1.0080           0   0.00000   0.00000
     17929 HOAC     337      HOAC     LPO11    LPD     -0.319000        0.0000           -1   0.00000   0.00000
     17930 HOAC     337      HOAC     LPO12    LPD     -0.319000        0.0000           -1   0.00000   0.00000
     17931 HOAC     337      HOAC     LPO21    LPD     -0.285000        0.0000           -1   0.00000   0.00000
     17932 HOAC     337      HOAC     LPO22    LPD     -0.285000        0.0000           -1   0.00000   0.00000
     17933 HOAC     338      HOAC     C1       CD2O3A   3.554200       11.6110           0   -1.20700   0.708000
     17934 HOAC     338      HOAC     DC1      DRUD    -2.696200        0.4000           0   0.00000   0.00000
     17935 HOAC     338      HOAC     C2       CD33C    3.268200       11.6110           0   -2.11400   0.750000
     17936 HOAC     338      HOAC     DC2      DRUD    -3.568200        0.4000           0   0.00000   0.00000
     17937 HOAC     338      HOAC     H1       HDA3A    0.092000        1.0080           0   0.00000   0.00000
     17938 HOAC     338      HOAC     H2       HDA3A    0.092000        1.0080           0   0.00000   0.00000
     17939 HOAC     338      HOAC     H3       HDA3A    0.092000        1.0080           0   0.00000   0.00000
     17940 HOAC     338      HOAC     O1       OD2C3A   2.356500       15.5994           0   -0.922000   1.53900
     17941 HOAC     338      HOAC     DO1      DRUD    -2.356500        0.4000           0   0.00000   0.00000
     17942 HOAC     338      HOAC     O2       OD31F    2.776500       15.5990           0   -1.28000   1.12400
     17943 HOAC     338      HOAC     DO2      DRUD    -2.776500        0.4000           0   0.00000   0.00000
     17944 HOAC     338      HOAC     H        HDP1A    0.374000        1.0080           0   0.00000   0.00000
     17945 HOAC     338      HOAC     LPO11    LPD     -0.319000        0.0000           -1   0.00000   0.00000
     17946 HOAC     338      HOAC     LPO12    LPD     -0.319000        0.0000           -1   0.00000   0.00000
     17947 HOAC     338      HOAC     LPO21    LPD     -0.285000        0.0000           -1   0.00000   0.00000
     17948 HOAC     338      HOAC     LPO22    LPD     -0.285000        0.0000           -1   0.00000   0.00000
     17949 HOAC     339      HOAC     C1       CD2O3A   3.554200       11.6110           0   -1.20700   0.708000
     17950 HOAC     339      HOAC     DC1      DRUD    -2.696200        0.4000           0   0.00000   0.00000
     17951 HOAC     339      HOAC     C2       CD33C    3.268200       11.6110           0   -2.11400   0.750000
     17952 HOAC     339      HOAC     DC2      DRUD    -3.568200        0.4000           0   0.00000   0.00000
     17953 HOAC     339      HOAC     H1       HDA3A    0.092000        1.0080           0   0.00000   0.00000
     17954 HOAC     339      HOAC     H2       HDA3A    0.092000        1.0080           0   0.00000   0.00000
     17955 HOAC     339      HOAC     H3       HDA3A    0.092000        1.0080           0   0.00000   0.00000
     17956 HOAC     339      HOAC     O1       OD2C3A   2.356500       15.5994           0   -0.922000   1.53900
     17957 HOAC     339      HOAC     DO1      DRUD    -2.356500        0.4000           0   0.00000   0.00000
     17958 HOAC     339      HOAC     O2       OD31F    2.776500       15.5990           0   -1.28000   1.12400
     17959 HOAC     339      HOAC     DO2      DRUD    -2.776500        0.4000           0   0.00000   0.00000
     17960 HOAC     339      HOAC     H        HDP1A    0.374000        1.0080           0   0.00000   0.00000
     17961 HOAC     339      HOAC     LPO11    LPD     -0.319000        0.0000           -1   0.00000   0.00000
     17962 HOAC     339      HOAC     LPO12    LPD     -0.319000        0.0000           -1   0.00000   0.00000
     17963 HOAC     339      HOAC     LPO21    LPD     -0.285000        0.0000           -1   0.00000   0.00000
     17964 HOAC     339      HOAC     LPO22    LPD     -0.285000        0.0000           -1   0.00000   0.00000
     17965 HOAC     340      HOAC     C1       CD2O3A   3.554200       11.6110           0   -1.20700   0.708000
     17966 HOAC     340      HOAC     DC1      DRUD    -2.696200        0.4000           0   0.00000   0.00000
     17967 HOAC     340      HOAC     C2       CD33C    3.268200       11.6110           0   -2.11400   0.750000
     17968 HOAC     340      HOAC     DC2      DRUD    -3.568200        0.4000           0   0.00000   0.00000
     17969 HOAC     340      HOAC     H1       HDA3A    0.092000        1.0080           0   0.00000   0.00000
     17970 HOAC     340      HOAC     H2       HDA3A    0.092000        1.0080           0   0.00000   0.00000
     17971 HOAC     340      HOAC     H3       HDA3A    0.092000        1.0080           0   0.00000   0.00000
     17972 HOAC     340      HOAC     O1       OD2C3A   2.356500       15.5994           0   -0.922000   1.53900
     17973 HOAC     340      HOAC     DO1      DRUD    -2.356500        0.4000           0   0.00000   0.00000
     17974 HOAC     340      HOAC     O2       OD31F    2.776500       15.5990           0   -1.28000   1.12400
     17975 HOAC     340      HOAC     DO2      DRUD    -2.776500        0.4000           0   0.00000   0.00000
     17976 HOAC     340      HOAC     H        HDP1A    0.374000        1.0080           0   0.00000   0.00000
     17977 HOAC     340      HOAC     LPO11    LPD     -0.319000        0.0000           -1   0.00000   0.00000
     17978 HOAC     340      HOAC     LPO12    LPD     -0.319000        0.0000           -1   0.00000   0.00000
     17979 HOAC     340      HOAC     LPO21    LPD     -0.285000        0.0000           -1   0.00000   0.00000
     17980 HOAC     340      HOAC     LPO22    LPD     -0.285000        0.0000           -1   0.00000   0.00000
     17981 HOAC     341      HOAC     C1       CD2O3A   3.554200       11.6110           0   -1.20700   0.708000
     17982 HOAC     341      HOAC     DC1      DRUD    -2.696200        0.4000           0   0.00000   0.00000
     17983 HOAC     341      HOAC     C2       CD33C    3.268200       11.6110           0   -2.11400   0.750000
     17984 HOAC     341      HOAC     DC2      DRUD    -3.568200        0.4000           0   0.00000   0.00000
     17985 HOAC     341      HOAC     H1       HDA3A    0.092000        1.0080           0   0.00000   0.00000
     17986 HOAC     341      HOAC     H2       HDA3A    0.092000        1.0080           0   0.00000   0.00000
     17987 HOAC     341      HOAC     H3       HDA3A    0.092000        1.0080           0   0.00000   0.00000
     17988 HOAC     341      HOAC     O1       OD2C3A   2.356500       15.5994           0   -0.922000   1.53900
     17989 HOAC     341      HOAC     DO1      DRUD    -2.356500        0.4000           0   0.00000   0.00000
     17990 HOAC     341      HOAC     O2       OD31F    2.776500       15.5990           0   -1.28000   1.12400
     17991 HOAC     341      HOAC     DO2      DRUD    -2.776500        0.4000           0   0.00000   0.00000
     17992 HOAC     341      HOAC     H        HDP1A    0.374000        1.0080           0   0.00000   0.00000
     17993 HOAC     341      HOAC     LPO11    LPD     -0.319000        0.0000           -1   0.00000   0.00000
     17994 HOAC     341      HOAC     LPO12    LPD     -0.319000        0.0000           -1   0.00000   0.00000
     17995 HOAC     341      HOAC     LPO21    LPD     -0.285000        0.0000           -1   0.00000   0.00000
     17996 HOAC     341      HOAC     LPO22    LPD     -0.285000        0.0000           -1   0.00000   0.00000
     17997 HOAC     342      HOAC     C1       CD2O3A   3.554200       11.6110           0   -1.20700   0.708000
     17998 HOAC     342      HOAC     DC1      DRUD    -2.696200        0.4000           0   0.00000   0.00000
     17999 HOAC     342      HOAC     C2       CD33C    3.268200       11.6110           0   -2.11400   0.750000
     18000 HOAC     342      HOAC     DC2      DRUD    -3.568200        0.4000           0   0.00000   0.00000
     18001 HOAC     342      HOAC     H1       HDA3A    0.092000        1.0080           0   0.00000   0.00000
     18002 HOAC     342      HOAC     H2       HDA3A    0.092000        1.0080           0   0.00000   0.00000
     18003 HOAC     342      HOAC     H3       HDA3A    0.092000        1.0080           0   0.00000   0.00000
     18004 HOAC     342      HOAC     O1       OD2C3A   2.356500       15.5994           0   -0.922000   1.53900
     18005 HOAC     342      HOAC     DO1      DRUD    -2.356500        0.4000           0   0.00000   0.00000
     18006 HOAC     342      HOAC     O2       OD31F    2.776500       15.5990           0   -1.28000   1.12400
     18007 HOAC     342      HOAC     DO2      DRUD    -2.776500        0.4000           0   0.00000   0.00000
     18008 HOAC     342      HOAC     H        HDP1A    0.374000        1.0080           0   0.00000   0.00000
     18009 HOAC     342      HOAC     LPO11    LPD     -0.319000        0.0000           -1   0.00000   0.00000
     18010 HOAC     342      HOAC     LPO12    LPD     -0.319000        0.0000           -1   0.00000   0.00000
     18011 HOAC     342      HOAC     LPO21    LPD     -0.285000        0.0000           -1   0.00000   0.00000
     18012 HOAC     342      HOAC     LPO22    LPD     -0.285000        0.0000           -1   0.00000   0.00000
     18013 HOAC     343      HOAC     C1       CD2O3A   3.554200       11.6110           0   -1.20700   0.708000
     18014 HOAC     343      HOAC     DC1      DRUD    -2.696200        0.4000           0   0.00000   0.00000
     18015 HOAC     343      HOAC     C2       CD33C    3.268200       11.6110           0   -2.11400   0.750000
     18016 HOAC     343      HOAC     DC2      DRUD    -3.568200        0.4000           0   0.00000   0.00000
     18017 HOAC     343      HOAC     H1       HDA3A    0.092000        1.0080           0   0.00000   0.00000
     18018 HOAC     343      HOAC     H2       HDA3A    0.092000        1.0080           0   0.00000   0.00000
     18019 HOAC     343      HOAC     H3       HDA3A    0.092000        1.0080           0   0.00000   0.00000
     18020 HOAC     343      HOAC     O1       OD2C3A   2.356500       15.5994           0   -0.922000   1.53900
     18021 HOAC     343      HOAC     DO1      DRUD    -2.356500        0.4000           0   0.00000   0.00000
     18022 HOAC     343      HOAC     O2       OD31F    2.776500       15.5990           0   -1.28000   1.12400
     18023 HOAC     343      HOAC     DO2      DRUD    -2.776500        0.4000           0   0.00000   0.00000
     18024 HOAC     343      HOAC     H        HDP1A    0.374000        1.0080           0   0.00000   0.00000
     18025 HOAC     343      HOAC     LPO11    LPD     -0.319000        0.0000           -1   0.00000   0.00000
     18026 HOAC     343      HOAC     LPO12    LPD     -0.319000        0.0000           -1   0.00000   0.00000
     18027 HOAC     343      HOAC     LPO21    LPD     -0.285000        0.0000           -1   0.00000   0.00000
     18028 HOAC     343      HOAC     LPO22    LPD     -0.285000        0.0000           -1   0.00000   0.00000
     18029 HOAC     344      HOAC     C1       CD2O3A   3.554200       11.6110           0   -1.20700   0.708000
     18030 HOAC     344      HOAC     DC1      DRUD    -2.696200        0.4000           0   0.00000   0.00000
     18031 HOAC     344      HOAC     C2       CD33C    3.268200       11.6110           0   -2.11400   0.750000
     18032 HOAC     344      HOAC     DC2      DRUD    -3.568200        0.4000           0   0.00000   0.00000
     18033 HOAC     344      HOAC     H1       HDA3A    0.092000        1.0080           0   0.00000   0.00000
     18034 HOAC     344      HOAC     H2       HDA3A    0.092000        1.0080           0   0.00000   0.00000
     18035 HOAC     344      HOAC     H3       HDA3A    0.092000        1.0080           0   0.00000   0.00000
     18036 HOAC     344      HOAC     O1       OD2C3A   2.356500       15.5994           0   -0.922000   1.53900
     18037 HOAC     344      HOAC     DO1      DRUD    -2.356500        0.4000           0   0.00000   0.00000
     18038 HOAC     344      HOAC     O2       OD31F    2.776500       15.5990           0   -1.28000   1.12400
     18039 HOAC     344      HOAC     DO2      DRUD    -2.776500        0.4000           0   0.00000   0.00000
     18040 HOAC     344      HOAC     H        HDP1A    0.374000        1.0080           0   0.00000   0.00000
     18041 HOAC     344      HOAC     LPO11    LPD     -0.319000        0.0000           -1   0.00000   0.00000
     18042 HOAC     344      HOAC     LPO12    LPD     -0.319000        0.0000           -1   0.00000   0.00000
     18043 HOAC     344      HOAC     LPO21    LPD     -0.285000        0.0000           -1   0.00000   0.00000
     18044 HOAC     344      HOAC     LPO22    LPD     -0.285000        0.0000           -1   0.00000   0.00000
     18045 HOAC     345      HOAC     C1       CD2O3A   3.554200       11.6110           0   -1.20700   0.708000
     18046 HOAC     345      HOAC     DC1      DRUD    -2.696200        0.4000           0   0.00000   0.00000
     18047 HOAC     345      HOAC     C2       CD33C    3.268200       11.6110           0   -2.11400   0.750000
     18048 HOAC     345      HOAC     DC2      DRUD    -3.568200        0.4000           0   0.00000   0.00000
     18049 HOAC     345      HOAC     H1       HDA3A    0.092000        1.0080           0   0.00000   0.00000
     18050 HOAC     345      HOAC     H2       HDA3A    0.092000        1.0080           0   0.00000   0.00000
     18051 HOAC     345      HOAC     H3       HDA3A    0.092000        1.0080           0   0.00000   0.00000
     18052 HOAC     345      HOAC     O1       OD2C3A   2.356500       15.5994           0   -0.922000   1.53900
     18053 HOAC     345      HOAC     DO1      DRUD    -2.356500        0.4000           0   0.00000   0.00000
     18054 HOAC     345      HOAC     O2       OD31F    2.776500       15.5990           0   -1.28000   1.12400
     18055 HOAC     345      HOAC     DO2      DRUD    -2.776500        0.4000           0   0.00000   0.00000
     18056 HOAC     345      HOAC     H        HDP1A    0.374000        1.0080           0   0.00000   0.00000
     18057 HOAC     345      HOAC     LPO11    LPD     -0.319000        0.0000           -1   0.00000   0.00000
     18058 HOAC     345      HOAC     LPO12    LPD     -0.319000        0.0000           -1   0.00000   0.00000
     18059 HOAC     345      HOAC     LPO21    LPD     -0.285000        0.0000           -1   0.00000   0.00000
     18060 HOAC     345      HOAC     LPO22    LPD     -0.285000        0.0000           -1   0.00000   0.00000
     18061 HOAC     346      HOAC     C1       CD2O3A   3.554200       11.6110           0   -1.20700   0.708000
     18062 HOAC     346      HOAC     DC1      DRUD    -2.696200        0.4000           0   0.00000   0.00000
     18063 HOAC     346      HOAC     C2       CD33C    3.268200       11.6110           0   -2.11400   0.750000
     18064 HOAC     346      HOAC     DC2      DRUD    -3.568200        0.4000           0   0.00000   0.00000
     18065 HOAC     346      HOAC     H1       HDA3A    0.092000        1.0080           0   0.00000   0.00000
     18066 HOAC     346      HOAC     H2       HDA3A    0.092000        1.0080           0   0.00000   0.00000
     18067 HOAC     346      HOAC     H3       HDA3A    0.092000        1.0080           0   0.00000   0.00000
     18068 HOAC     346      HOAC     O1       OD2C3A   2.356500       15.5994           0   -0.922000   1.53900
     18069 HOAC     346      HOAC     DO1      DRUD    -2.356500        0.4000           0   0.00000   0.00000
     18070 HOAC     346      HOAC     O2       OD31F    2.776500       15.5990           0   -1.28000   1.12400
     18071 HOAC     346      HOAC     DO2      DRUD    -2.776500        0.4000           0   0.00000   0.00000
     18072 HOAC     346      HOAC     H        HDP1A    0.374000        1.0080           0   0.00000   0.00000
     18073 HOAC     346      HOAC     LPO11    LPD     -0.319000        0.0000           -1   0.00000   0.00000
     18074 HOAC     346      HOAC     LPO12    LPD     -0.319000        0.0000           -1   0.00000   0.00000
     18075 HOAC     346      HOAC     LPO21    LPD     -0.285000        0.0000           -1   0.00000   0.00000
     18076 HOAC     346      HOAC     LPO22    LPD     -0.285000        0.0000           -1   0.00000   0.00000
     18077 HOAC     347      HOAC     C1       CD2O3A   3.554200       11.6110           0   -1.20700   0.708000
     18078 HOAC     347      HOAC     DC1      DRUD    -2.696200        0.4000           0   0.00000   0.00000
     18079 HOAC     347      HOAC     C2       CD33C    3.268200       11.6110           0   -2.11400   0.750000
     18080 HOAC     347      HOAC     DC2      DRUD    -3.568200        0.4000           0   0.00000   0.00000
     18081 HOAC     347      HOAC     H1       HDA3A    0.092000        1.0080           0   0.00000   0.00000
     18082 HOAC     347      HOAC     H2       HDA3A    0.092000        1.0080           0   0.00000   0.00000
     18083 HOAC     347      HOAC     H3       HDA3A    0.092000        1.0080           0   0.00000   0.00000
     18084 HOAC     347      HOAC     O1       OD2C3A   2.356500       15.5994           0   -0.922000   1.53900
     18085 HOAC     347      HOAC     DO1      DRUD    -2.356500        0.4000           0   0.00000   0.00000
     18086 HOAC     347      HOAC     O2       OD31F    2.776500       15.5990           0   -1.28000   1.12400
     18087 HOAC     347      HOAC     DO2      DRUD    -2.776500        0.4000           0   0.00000   0.00000
     18088 HOAC     347      HOAC     H        HDP1A    0.374000        1.0080           0   0.00000   0.00000
     18089 HOAC     347      HOAC     LPO11    LPD     -0.319000        0.0000           -1   0.00000   0.00000
     18090 HOAC     347      HOAC     LPO12    LPD     -0.319000        0.0000           -1   0.00000   0.00000
     18091 HOAC     347      HOAC     LPO21    LPD     -0.285000        0.0000           -1   0.00000   0.00000
     18092 HOAC     347      HOAC     LPO22    LPD     -0.285000        0.0000           -1   0.00000   0.00000
     18093 HOAC     348      HOAC     C1       CD2O3A   3.554200       11.6110           0   -1.20700   0.708000
     18094 HOAC     348      HOAC     DC1      DRUD    -2.696200        0.4000           0   0.00000   0.00000
     18095 HOAC     348      HOAC     C2       CD33C    3.268200       11.6110           0   -2.11400   0.750000
     18096 HOAC     348      HOAC     DC2      DRUD    -3.568200        0.4000           0   0.00000   0.00000
     18097 HOAC     348      HOAC     H1       HDA3A    0.092000        1.0080           0   0.00000   0.00000
     18098 HOAC     348      HOAC     H2       HDA3A    0.092000        1.0080           0   0.00000   0.00000
     18099 HOAC     348      HOAC     H3       HDA3A    0.092000        1.0080           0   0.00000   0.00000
     18100 HOAC     348      HOAC     O1       OD2C3A   2.356500       15.5994           0   -0.922000   1.53900
     18101 HOAC     348      HOAC     DO1      DRUD    -2.356500        0.4000           0   0.00000   0.00000
     18102 HOAC     348      HOAC     O2       OD31F    2.776500       15.5990           0   -1.28000   1.12400
     18103 HOAC     348      HOAC     DO2      DRUD    -2.776500        0.4000           0   0.00000   0.00000
     18104 HOAC     348      HOAC     H        HDP1A    0.374000        1.0080           0   0.00000   0.00000
     18105 HOAC     348      HOAC     LPO11    LPD     -0.319000        0.0000           -1   0.00000   0.00000
     18106 HOAC     348      HOAC     LPO12    LPD     -0.319000        0.0000           -1   0.00000   0.00000
     18107 HOAC     348      HOAC     LPO21    LPD     -0.285000        0.0000           -1   0.00000   0.00000
     18108 HOAC     348      HOAC     LPO22    LPD     -0.285000        0.0000           -1   0.00000   0.00000
     18109 HOAC     349      HOAC     C1       CD2O3A   3.554200       11.6110           0   -1.20700   0.708000
     18110 HOAC     349      HOAC     DC1      DRUD    -2.696200        0.4000           0   0.00000   0.00000
     18111 HOAC     349      HOAC     C2       CD33C    3.268200       11.6110           0   -2.11400   0.750000
     18112 HOAC     349      HOAC     DC2      DRUD    -3.568200        0.4000           0   0.00000   0.00000
     18113 HOAC     349      HOAC     H1       HDA3A    0.092000        1.0080           0   0.00000   0.00000
     18114 HOAC     349      HOAC     H2       HDA3A    0.092000        1.0080           0   0.00000   0.00000
     18115 HOAC     349      HOAC     H3       HDA3A    0.092000        1.0080           0   0.00000   0.00000
     18116 HOAC     349      HOAC     O1       OD2C3A   2.356500       15.5994           0   -0.922000   1.53900
     18117 HOAC     349      HOAC     DO1      DRUD    -2.356500        0.4000           0   0.00000   0.00000
     18118 HOAC     349      HOAC     O2       OD31F    2.776500       15.5990           0   -1.28000   1.12400
     18119 HOAC     349      HOAC     DO2      DRUD    -2.776500        0.4000           0   0.00000   0.00000
     18120 HOAC     349      HOAC     H        HDP1A    0.374000        1.0080           0   0.00000   0.00000
     18121 HOAC     349      HOAC     LPO11    LPD     -0.319000        0.0000           -1   0.00000   0.00000
     18122 HOAC     349      HOAC     LPO12    LPD     -0.319000        0.0000           -1   0.00000   0.00000
     18123 HOAC     349      HOAC     LPO21    LPD     -0.285000        0.0000           -1   0.00000   0.00000
     18124 HOAC     349      HOAC     LPO22    LPD     -0.285000        0.0000           -1   0.00000   0.00000
     18125 HOAC     350      HOAC     C1       CD2O3A   3.554200       11.6110           0   -1.20700   0.708000
     18126 HOAC     350      HOAC     DC1      DRUD    -2.696200        0.4000           0   0.00000   0.00000
     18127 HOAC     350      HOAC     C2       CD33C    3.268200       11.6110           0   -2.11400   0.750000
     18128 HOAC     350      HOAC     DC2      DRUD    -3.568200        0.4000           0   0.00000   0.00000
     18129 HOAC     350      HOAC     H1       HDA3A    0.092000        1.0080           0   0.00000   0.00000
     18130 HOAC     350      HOAC     H2       HDA3A    0.092000        1.0080           0   0.00000   0.00000
     18131 HOAC     350      HOAC     H3       HDA3A    0.092000        1.0080           0   0.00000   0.00000
     18132 HOAC     350      HOAC     O1       OD2C3A   2.356500       15.5994           0   -0.922000   1.53900
     18133 HOAC     350      HOAC     DO1      DRUD    -2.356500        0.4000           0   0.00000   0.00000
     18134 HOAC     350      HOAC     O2       OD31F    2.776500       15.5990           0   -1.28000   1.12400
     18135 HOAC     350      HOAC     DO2      DRUD    -2.776500        0.4000           0   0.00000   0.00000
     18136 HOAC     350      HOAC     H        HDP1A    0.374000        1.0080           0   0.00000   0.00000
     18137 HOAC     350      HOAC     LPO11    LPD     -0.319000        0.0000           -1   0.00000   0.00000
     18138 HOAC     350      HOAC     LPO12    LPD     -0.319000        0.0000           -1   0.00000   0.00000
     18139 HOAC     350      HOAC     LPO21    LPD     -0.285000        0.0000           -1   0.00000   0.00000
     18140 HOAC     350      HOAC     LPO22    LPD     -0.285000        0.0000           -1   0.00000   0.00000
     18141 HPTSH    1        HPTSH    C1       CD2R6A   2.899200       11.6110           0   -1.50750   1.27010
     18142 HPTSH    1        HPTSH    DC1      DRUD    -3.013200        0.4000           0   0.00000   0.00000
     18143 HPTSH    1        HPTSH    C2       CD2R6A   2.898200       11.6110           0   -1.50750   1.27010
     18144 HPTSH    1        HPTSH    DC2      DRUD    -3.013200        0.4000           0   0.00000   0.00000
     18145 HPTSH    1        HPTSH    C3       CD2R6A   3.024200       11.6110           0   -1.50750   1.27010
     18146 HPTSH    1        HPTSH    DC3      DRUD    -3.013200        0.4000           0   0.00000   0.00000
     18147 HPTSH    1        HPTSH    C4       CD2R6A   2.993200       11.6110           0   -1.50750   1.27010
     18148 HPTSH    1        HPTSH    DC4      DRUD    -3.013200        0.4000           0   0.00000   0.00000
     18149 HPTSH    1        HPTSH    C5       CD2R6A   3.024200       11.6110           0   -1.50750   1.27010
     18150 HPTSH    1        HPTSH    DC5      DRUD    -3.013200        0.4000           0   0.00000   0.00000
     18151 HPTSH    1        HPTSH    C6       CD2R6A   2.607200       11.6110           0   -1.50750   1.27010
     18152 HPTSH    1        HPTSH    DC6      DRUD    -3.013200        0.4000           0   0.00000   0.00000
     18153 HPTSH    1        HPTSH    C7       CD2R6A   2.720200       11.6110           0   -1.50750   1.27010
     18154 HPTSH    1        HPTSH    DC7      DRUD    -3.013200        0.4000           0   0.00000   0.00000
     18155 HPTSH    1        HPTSH    C8       CD2R6A   2.607200       11.6110           0   -1.50750   1.27010
     18156 HPTSH    1        HPTSH    DC8      DRUD    -3.013200        0.4000           0   0.00000   0.00000
     18157 HPTSH    1        HPTSH    S1       SD30A    3.803100       31.6600           0   -1.00000   1.30000
     18158 HPTSH    1        HPTSH    DS1      DRUD    -2.454100        0.4000           0   0.00000   0.00000
     18159 HPTSH    1        HPTSH    O1       OD2C2B   2.368000       15.5994           0   -0.931000   1.08300
     18160 HPTSH    1        HPTSH    DO1      DRUD    -2.368000        0.4000           0   0.00000   0.00000
     18161 HPTSH    1        HPTSH    O2       OD2C2B   2.368000       15.5994           0   -0.931000   1.08300
     18162 HPTSH    1        HPTSH    DO2      DRUD    -2.368000        0.4000           0   0.00000   0.00000
     18163 HPTSH    1        HPTSH    O3       OD2C2B   2.368000       15.5994           0   -0.931000   1.08300
     18164 HPTSH    1        HPTSH    DO3      DRUD    -2.368000        0.4000           0   0.00000   0.00000
     18165 HPTSH    1        HPTSH    S2       SD30A    3.803100       31.6600           0   -1.00000   1.30000
     18166 HPTSH    1        HPTSH    DS2      DRUD    -2.454100        0.4000           0   0.00000   0.00000
     18167 HPTSH    1        HPTSH    O4       OD2C2B   2.368000       15.5994           0   -0.931000   1.08300
     18168 HPTSH    1        HPTSH    DO4      DRUD    -2.368000        0.4000           0   0.00000   0.00000
     18169 HPTSH    1        HPTSH    O5       OD2C2B   2.368000       15.5994           0   -0.931000   1.08300
     18170 HPTSH    1        HPTSH    DO5      DRUD    -2.368000        0.4000           0   0.00000   0.00000
     18171 HPTSH    1        HPTSH    O6       OD2C2B   2.368000       15.5994           0   -0.931000   1.08300
     18172 HPTSH    1        HPTSH    DO6      DRUD    -2.368000        0.4000           0   0.00000   0.00000
     18173 HPTSH    1        HPTSH    C9       CD2R6A   2.898200       11.6110           0   -1.50750   1.27010
     18174 HPTSH    1        HPTSH    DC9      DRUD    -3.013200        0.4000           0   0.00000   0.00000
     18175 HPTSH    1        HPTSH    C10      CD2R6A   2.898200       11.6110           0   -1.50750   1.27010
     18176 HPTSH    1        HPTSH    DC10     DRUD    -3.013200        0.4000           0   0.00000   0.00000
     18177 HPTSH    1        HPTSH    C11      CD2R6A   3.024200       11.6110           0   -1.50750   1.27010
     18178 HPTSH    1        HPTSH    DC11     DRUD    -3.013200        0.4000           0   0.00000   0.00000
     18179 HPTSH    1        HPTSH    C12      CD2R6A   2.608200       11.6110           0   -1.50750   1.27010
     18180 HPTSH    1        HPTSH    DC12     DRUD    -3.013200        0.4000           0   0.00000   0.00000
     18181 HPTSH    1        HPTSH    C13      CD2R6A   2.816200       11.6110           0   -1.50750   1.27010
     18182 HPTSH    1        HPTSH    DC13     DRUD    -3.013200        0.4000           0   0.00000   0.00000
     18183 HPTSH    1        HPTSH    C14      CD2R6A   3.116200       11.6110           0   -1.50750   1.27010
     18184 HPTSH    1        HPTSH    DC14     DRUD    -3.013200        0.4000           0   0.00000   0.00000
     18185 HPTSH    1        HPTSH    C15      CD2R6A   3.027200       11.6110           0   -1.50750   1.27010
     18186 HPTSH    1        HPTSH    DC15     DRUD    -3.013200        0.4000           0   0.00000   0.00000
     18187 HPTSH    1        HPTSH    C16      CD2R6A   2.994200       11.6110           0   -1.50750   1.27010
     18188 HPTSH    1        HPTSH    DC16     DRUD    -3.013200        0.4000           0   0.00000   0.00000
     18189 HPTSH    1        HPTSH    O7       OD31A    2.237800       15.5990           0   -0.831500   0.749400
     18190 HPTSH    1        HPTSH    DO7      DRUD    -2.237800        0.4000           0   0.00000   0.00000
     18191 HPTSH    1        HPTSH    S3       SD30A    3.803100       31.6600           0   -1.00000   1.30000
     18192 HPTSH    1        HPTSH    DS3      DRUD    -2.454100        0.4000           0   0.00000   0.00000
     18193 HPTSH    1        HPTSH    O8       OD2C2B   2.368000       15.5994           0   -0.931000   1.08300
     18194 HPTSH    1        HPTSH    DO8      DRUD    -2.368000        0.4000           0   0.00000   0.00000
     18195 HPTSH    1        HPTSH    O9       OD2C2B   2.368000       15.5994           0   -0.931000   1.08300
     18196 HPTSH    1        HPTSH    DO9      DRUD    -2.368000        0.4000           0   0.00000   0.00000
     18197 HPTSH    1        HPTSH    O10      OD2C2B   2.368000       15.5994           0   -0.931000   1.08300
     18198 HPTSH    1        HPTSH    DO10     DRUD    -2.368000        0.4000           0   0.00000   0.00000
     18199 HPTSH    1        HPTSH    H1       HDR6A    0.115000        1.0080           0   0.00000   0.00000
     18200 HPTSH    1        HPTSH    H2       HDR6A    0.115000        1.0080           0   0.00000   0.00000
     18201 HPTSH    1        HPTSH    H3       HDR6A    0.305000        1.0080           0   0.00000   0.00000
     18202 HPTSH    1        HPTSH    H4       HDR6A    0.115000        1.0080           0   0.00000   0.00000
     18203 HPTSH    1        HPTSH    H5       HDR6A    0.115000        1.0080           0   0.00000   0.00000
     18204 HPTSH    1        HPTSH    H6       HDR6A    0.210000        1.0080           0   0.00000   0.00000
     18205 HPTSH    1        HPTSH    H7       HDP1A    0.420000        1.0080           0   0.00000   0.00000
     18206 HPTSH    1        HPTSH    LPO11    LPDO1   -0.325000        0.0000           -1   0.00000   0.00000
     18207 HPTSH    1        HPTSH    LPO12    LPDO1   -0.325000        0.0000           -1   0.00000   0.00000
     18208 HPTSH    1        HPTSH    LPO21    LPDO1   -0.325000        0.0000           -1   0.00000   0.00000
     18209 HPTSH    1        HPTSH    LPO22    LPDO1   -0.325000        0.0000           -1   0.00000   0.00000
     18210 HPTSH    1        HPTSH    LPO31    LPDO1   -0.325000        0.0000           -1   0.00000   0.00000
     18211 HPTSH    1        HPTSH    LPO32    LPDO1   -0.325000        0.0000           -1   0.00000   0.00000
     18212 HPTSH    1        HPTSH    LPO41    LPDO1   -0.325000        0.0000           -1   0.00000   0.00000
     18213 HPTSH    1        HPTSH    LPO42    LPDO1   -0.325000        0.0000           -1   0.00000   0.00000
     18214 HPTSH    1        HPTSH    LPO51    LPDO1   -0.325000        0.0000           -1   0.00000   0.00000
     18215 HPTSH    1        HPTSH    LPO52    LPDO1   -0.325000        0.0000           -1   0.00000   0.00000
     18216 HPTSH    1        HPTSH    LPO61    LPDO1   -0.325000        0.0000           -1   0.00000   0.00000
     18217 HPTSH    1        HPTSH    LPO62    LPDO1   -0.325000        0.0000           -1   0.00000   0.00000
     18218 HPTSH    1        HPTSH    LPO71    LPD     -0.269000        0.0000           -1   0.00000   0.00000
     18219 HPTSH    1        HPTSH    LPO72    LPD     -0.268000        0.0000           -1   0.00000   0.00000
     18220 HPTSH    1        HPTSH    LPO81    LPDO1   -0.325000        0.0000           -1   0.00000   0.00000
     18221 HPTSH    1        HPTSH    LPO82    LPDO1   -0.325000        0.0000           -1   0.00000   0.00000
     18222 HPTSH    1        HPTSH    LPO91    LPDO1   -0.325000        0.0000           -1   0.00000   0.00000
     18223 HPTSH    1        HPTSH    LPO92    LPDO1   -0.325000        0.0000           -1   0.00000   0.00000
     18224 HPTSH    1        HPTSH    LPO101   LPDO1   -0.325000        0.0000           -1   0.00000   0.00000
     18225 HPTSH    1        HPTSH    LPO102   LPDO1   -0.325000        0.0000           -1   0.00000   0.00000
     18226 HPTSH    1        HPTSH    C1       CD2R6A   2.899200       11.6110           0   -1.50750   1.27010
     18227 HPTSH    1        HPTSH    DC1      DRUD    -3.013200        0.4000           0   0.00000   0.00000
     18228 HPTSH    1        HPTSH    C2       CD2R6A   2.898200       11.6110           0   -1.50750   1.27010
     18229 HPTSH    1        HPTSH    DC2      DRUD    -3.013200        0.4000           0   0.00000   0.00000
     18230 HPTSH    1        HPTSH    C3       CD2R6A   3.024200       11.6110           0   -1.50750   1.27010
     18231 HPTSH    1        HPTSH    DC3      DRUD    -3.013200        0.4000           0   0.00000   0.00000
     18232 HPTSH    1        HPTSH    C4       CD2R6A   2.993200       11.6110           0   -1.50750   1.27010
     18233 HPTSH    1        HPTSH    DC4      DRUD    -3.013200        0.4000           0   0.00000   0.00000
     18234 HPTSH    1        HPTSH    C5       CD2R6A   3.024200       11.6110           0   -1.50750   1.27010
     18235 HPTSH    1        HPTSH    DC5      DRUD    -3.013200        0.4000           0   0.00000   0.00000
     18236 HPTSH    1        HPTSH    C6       CD2R6A   2.607200       11.6110           0   -1.50750   1.27010
     18237 HPTSH    1        HPTSH    DC6      DRUD    -3.013200        0.4000           0   0.00000   0.00000
     18238 HPTSH    1        HPTSH    C7       CD2R6A   2.720200       11.6110           0   -1.50750   1.27010
     18239 HPTSH    1        HPTSH    DC7      DRUD    -3.013200        0.4000           0   0.00000   0.00000
     18240 HPTSH    1        HPTSH    C8       CD2R6A   2.607200       11.6110           0   -1.50750   1.27010
     18241 HPTSH    1        HPTSH    DC8      DRUD    -3.013200        0.4000           0   0.00000   0.00000
     18242 HPTSH    1        HPTSH    S1       SD30A    3.803100       31.6600           0   -1.00000   1.30000
     18243 HPTSH    1        HPTSH    DS1      DRUD    -2.454100        0.4000           0   0.00000   0.00000
     18244 HPTSH    1        HPTSH    O1       OD2C2B   2.368000       15.5994           0   -0.931000   1.08300
     18245 HPTSH    1        HPTSH    DO1      DRUD    -2.368000        0.4000           0   0.00000   0.00000
     18246 HPTSH    1        HPTSH    O2       OD2C2B   2.368000       15.5994           0   -0.931000   1.08300
     18247 HPTSH    1        HPTSH    DO2      DRUD    -2.368000        0.4000           0   0.00000   0.00000
     18248 HPTSH    1        HPTSH    O3       OD2C2B   2.368000       15.5994           0   -0.931000   1.08300
     18249 HPTSH    1        HPTSH    DO3      DRUD    -2.368000        0.4000           0   0.00000   0.00000
     18250 HPTSH    1        HPTSH    S2       SD30A    3.803100       31.6600           0   -1.00000   1.30000
     18251 HPTSH    1        HPTSH    DS2      DRUD    -2.454100        0.4000           0   0.00000   0.00000
     18252 HPTSH    1        HPTSH    O4       OD2C2B   2.368000       15.5994           0   -0.931000   1.08300
     18253 HPTSH    1        HPTSH    DO4      DRUD    -2.368000        0.4000           0   0.00000   0.00000
     18254 HPTSH    1        HPTSH    O5       OD2C2B   2.368000       15.5994           0   -0.931000   1.08300
     18255 HPTSH    1        HPTSH    DO5      DRUD    -2.368000        0.4000           0   0.00000   0.00000
     18256 HPTSH    1        HPTSH    O6       OD2C2B   2.368000       15.5994           0   -0.931000   1.08300
     18257 HPTSH    1        HPTSH    DO6      DRUD    -2.368000        0.4000           0   0.00000   0.00000
     18258 HPTSH    1        HPTSH    C9       CD2R6A   2.898200       11.6110           0   -1.50750   1.27010
     18259 HPTSH    1        HPTSH    DC9      DRUD    -3.013200        0.4000           0   0.00000   0.00000
     18260 HPTSH    1        HPTSH    C10      CD2R6A   2.898200       11.6110           0   -1.50750   1.27010
     18261 HPTSH    1        HPTSH    DC10     DRUD    -3.013200        0.4000           0   0.00000   0.00000
     18262 HPTSH    1        HPTSH    C11      CD2R6A   3.024200       11.6110           0   -1.50750   1.27010
     18263 HPTSH    1        HPTSH    DC11     DRUD    -3.013200        0.4000           0   0.00000   0.00000
     18264 HPTSH    1        HPTSH    C12      CD2R6A   2.608200       11.6110           0   -1.50750   1.27010
     18265 HPTSH    1        HPTSH    DC12     DRUD    -3.013200        0.4000           0   0.00000   0.00000
     18266 HPTSH    1        HPTSH    C13      CD2R6A   2.816200       11.6110           0   -1.50750   1.27010
     18267 HPTSH    1        HPTSH    DC13     DRUD    -3.013200        0.4000           0   0.00000   0.00000
     18268 HPTSH    1        HPTSH    C14      CD2R6A   3.116200       11.6110           0   -1.50750   1.27010
     18269 HPTSH    1        HPTSH    DC14     DRUD    -3.013200        0.4000           0   0.00000   0.00000
     18270 HPTSH    1        HPTSH    C15      CD2R6A   3.027200       11.6110           0   -1.50750   1.27010
     18271 HPTSH    1        HPTSH    DC15     DRUD    -3.013200        0.4000           0   0.00000   0.00000
     18272 HPTSH    1        HPTSH    C16      CD2R6A   2.994200       11.6110           0   -1.50750   1.27010
     18273 HPTSH    1        HPTSH    DC16     DRUD    -3.013200        0.4000           0   0.00000   0.00000
     18274 HPTSH    1        HPTSH    O7       OD31A    2.237800       15.5990           0   -0.831500   0.749400
     18275 HPTSH    1        HPTSH    DO7      DRUD    -2.237800        0.4000           0   0.00000   0.00000
     18276 HPTSH    1        HPTSH    S3       SD30A    3.803100       31.6600           0   -1.00000   1.30000
     18277 HPTSH    1        HPTSH    DS3      DRUD    -2.454100        0.4000           0   0.00000   0.00000
     18278 HPTSH    1        HPTSH    O8       OD2C2B   2.368000       15.5994           0   -0.931000   1.08300
     18279 HPTSH    1        HPTSH    DO8      DRUD    -2.368000        0.4000           0   0.00000   0.00000
     18280 HPTSH    1        HPTSH    O9       OD2C2B   2.368000       15.5994           0   -0.931000   1.08300
     18281 HPTSH    1        HPTSH    DO9      DRUD    -2.368000        0.4000           0   0.00000   0.00000
     18282 HPTSH    1        HPTSH    O10      OD2C2B   2.368000       15.5994           0   -0.931000   1.08300
     18283 HPTSH    1        HPTSH    DO10     DRUD    -2.368000        0.4000           0   0.00000   0.00000
     18284 HPTSH    1        HPTSH    H1       HDR6A    0.115000        1.0080           0   0.00000   0.00000
     18285 HPTSH    1        HPTSH    H2       HDR6A    0.115000        1.0080           0   0.00000   0.00000
     18286 HPTSH    1        HPTSH    H3       HDR6A    0.305000        1.0080           0   0.00000   0.00000
     18287 HPTSH    1        HPTSH    H4       HDR6A    0.115000        1.0080           0   0.00000   0.00000
     18288 HPTSH    1        HPTSH    H5       HDR6A    0.115000        1.0080           0   0.00000   0.00000
     18289 HPTSH    1        HPTSH    H6       HDR6A    0.210000        1.0080           0   0.00000   0.00000
     18290 HPTSH    1        HPTSH    H7       HDP1A    0.420000        1.0080           0   0.00000   0.00000
     18291 HPTSH    1        HPTSH    LPO11    LPDO1   -0.325000        0.0000           -1   0.00000   0.00000
     18292 HPTSH    1        HPTSH    LPO12    LPDO1   -0.325000        0.0000           -1   0.00000   0.00000
     18293 HPTSH    1        HPTSH    LPO21    LPDO1   -0.325000        0.0000           -1   0.00000   0.00000
     18294 HPTSH    1        HPTSH    LPO22    LPDO1   -0.325000        0.0000           -1   0.00000   0.00000
     18295 HPTSH    1        HPTSH    LPO31    LPDO1   -0.325000        0.0000           -1   0.00000   0.00000
     18296 HPTSH    1        HPTSH    LPO32    LPDO1   -0.325000        0.0000           -1   0.00000   0.00000
     18297 HPTSH    1        HPTSH    LPO41    LPDO1   -0.325000        0.0000           -1   0.00000   0.00000
     18298 HPTSH    1        HPTSH    LPO42    LPDO1   -0.325000        0.0000           -1   0.00000   0.00000
     18299 HPTSH    1        HPTSH    LPO51    LPDO1   -0.325000        0.0000           -1   0.00000   0.00000
     18300 HPTSH    1        HPTSH    LPO52    LPDO1   -0.325000        0.0000           -1   0.00000   0.00000
     18301 HPTSH    1        HPTSH    LPO61    LPDO1   -0.325000        0.0000           -1   0.00000   0.00000
     18302 HPTSH    1        HPTSH    LPO62    LPDO1   -0.325000        0.0000           -1   0.00000   0.00000
     18303 HPTSH    1        HPTSH    LPO71    LPD     -0.269000        0.0000           -1   0.00000   0.00000
     18304 HPTSH    1        HPTSH    LPO72    LPD     -0.268000        0.0000           -1   0.00000   0.00000
     18305 HPTSH    1        HPTSH    LPO81    LPDO1   -0.325000        0.0000           -1   0.00000   0.00000
     18306 HPTSH    1        HPTSH    LPO82    LPDO1   -0.325000        0.0000           -1   0.00000   0.00000
     18307 HPTSH    1        HPTSH    LPO91    LPDO1   -0.325000        0.0000           -1   0.00000   0.00000
     18308 HPTSH    1        HPTSH    LPO92    LPDO1   -0.325000        0.0000           -1   0.00000   0.00000
     18309 HPTSH    1        HPTSH    LPO101   LPDO1   -0.325000        0.0000           -1   0.00000   0.00000
     18310 HPTSH    1        HPTSH    LPO102   LPDO1   -0.325000        0.0000           -1   0.00000   0.00000

     17816 !NBOND: bonds
         1         2         6         7         8         9        11        12
        14        15        17        18         1         6         1         3
         1         4         1         5         6         8         6        14
         8        11         8        10        11        13        11        17
        17        14        14        16        17        19        20        17
        21        22        26        27        28        29        31        32
        34        35        37        38        21        26        21        23
        21        24        21        25        26        28        26        34
        28        31        28        30        31        33        31        37
        37        34        34        36        37        39        40        37
        41        42        46        47        48        49        51        52
        54        55        57        58        41        46        41        43
        41        44        41        45        46        48        46        54
        48        51        48        50        51        53        51        57
        57        54        54        56        57        59        60        57
        61        62        66        67        68        69        71        72
        74        75        77        78        61        66        61        63
        61        64        61        65        66        68        66        74
        68        71        68        70        71        73        71        77
        77        74        74        76        77        79        80        77
        81        82        86        87        88        89        91        92
        94        95        97        98        81        86        81        83
        81        84        81        85        86        88        86        94
        88        91        88        90        91        93        91        97
        97        94        94        96        97        99       100        97
       101       102       106       107       108       109       111       112
       114       115       117       118       101       106       101       103
       101       104       101       105       106       108       106       114
       108       111       108       110       111       113       111       117
       117       114       114       116       117       119       120       117
       121       122       126       127       128       129       131       132
       134       135       137       138       121       126       121       123
       121       124       121       125       126       128       126       134
       128       131       128       130       131       133       131       137
       137       134       134       136       137       139       140       137
       141       142       146       147       148       149       151       152
       154       155       157       158       141       146       141       143
       141       144       141       145       146       148       146       154
       148       151       148       150       151       153       151       157
       157       154       154       156       157       159       160       157
       161       162       166       167       168       169       171       172
       174       175       177       178       161       166       161       163
       161       164       161       165       166       168       166       174
       168       171       168       170       171       173       171       177
       177       174       174       176       177       179       180       177
       181       182       186       187       188       189       191       192
       194       195       197       198       181       186       181       183
       181       184       181       185       186       188       186       194
       188       191       188       190       191       193       191       197
       197       194       194       196       197       199       200       197
       201       202       206       207       208       209       211       212
       214       215       217       218       201       206       201       203
       201       204       201       205       206       208       206       214
       208       211       208       210       211       213       211       217
       217       214       214       216       217       219       220       217
       221       222       226       227       228       229       231       232
       234       235       237       238       221       226       221       223
       221       224       221       225       226       228       226       234
       228       231       228       230       231       233       231       237
       237       234       234       236       237       239       240       237
       241       242       246       247       248       249       251       252
       254       255       257       258       241       246       241       243
       241       244       241       245       246       248       246       254
       248       251       248       250       251       253       251       257
       257       254       254       256       257       259       260       257
       261       262       266       267       268       269       271       272
       274       275       277       278       261       266       261       263
       261       264       261       265       266       268       266       274
       268       271       268       270       271       273       271       277
       277       274       274       276       277       279       280       277
       281       282       286       287       288       289       291       292
       294       295       297       298       281       286       281       283
       281       284       281       285       286       288       286       294
       288       291       288       290       291       293       291       297
       297       294       294       296       297       299       300       297
       301       302       306       307       308       309       311       312
       314       315       317       318       301       306       301       303
       301       304       301       305       306       308       306       314
       308       311       308       310       311       313       311       317
       317       314       314       316       317       319       320       317
       321       322       326       327       328       329       331       332
       334       335       337       338       321       326       321       323
       321       324       321       325       326       328       326       334
       328       331       328       330       331       333       331       337
       337       334       334       336       337       339       340       337
       341       342       346       347       348       349       351       352
       354       355       357       358       341       346       341       343
       341       344       341       345       346       348       346       354
       348       351       348       350       351       353       351       357
       357       354       354       356       357       359       360       357
       361       362       366       367       368       369       371       372
       374       375       377       378       361       366       361       363
       361       364       361       365       366       368       366       374
       368       371       368       370       371       373       371       377
       377       374       374       376       377       379       380       377
       381       382       386       387       388       389       391       392
       394       395       397       398       381       386       381       383
       381       384       381       385       386       388       386       394
       388       391       388       390       391       393       391       397
       397       394       394       396       397       399       400       397
       401       402       406       407       408       409       411       412
       414       415       417       418       401       406       401       403
       401       404       401       405       406       408       406       414
       408       411       408       410       411       413       411       417
       417       414       414       416       417       419       420       417
       421       422       426       427       428       429       431       432
       434       435       437       438       421       426       421       423
       421       424       421       425       426       428       426       434
       428       431       428       430       431       433       431       437
       437       434       434       436       437       439       440       437
       441       442       446       447       448       449       451       452
       454       455       457       458       441       446       441       443
       441       444       441       445       446       448       446       454
       448       451       448       450       451       453       451       457
       457       454       454       456       457       459       460       457
       461       462       466       467       468       469       471       472
       474       475       477       478       461       466       461       463
       461       464       461       465       466       468       466       474
       468       471       468       470       471       473       471       477
       477       474       474       476       477       479       480       477
       481       482       486       487       488       489       491       492
       494       495       497       498       481       486       481       483
       481       484       481       485       486       488       486       494
       488       491       488       490       491       493       491       497
       497       494       494       496       497       499       500       497
       501       502       506       507       508       509       511       512
       514       515       517       518       501       506       501       503
       501       504       501       505       506       508       506       514
       508       511       508       510       511       513       511       517
       517       514       514       516       517       519       520       517
       521       522       526       527       528       529       531       532
       534       535       537       538       521       526       521       523
       521       524       521       525       526       528       526       534
       528       531       528       530       531       533       531       537
       537       534       534       536       537       539       540       537
       541       542       546       547       548       549       551       552
       554       555       557       558       541       546       541       543
       541       544       541       545       546       548       546       554
       548       551       548       550       551       553       551       557
       557       554       554       556       557       559       560       557
       561       562       566       567       568       569       571       572
       574       575       577       578       561       566       561       563
       561       564       561       565       566       568       566       574
       568       571       568       570       571       573       571       577
       577       574       574       576       577       579       580       577
       581       582       586       587       588       589       591       592
       594       595       597       598       581       586       581       583
       581       584       581       585       586       588       586       594
       588       591       588       590       591       593       591       597
       597       594       594       596       597       599       600       597
       601       602       606       607       608       609       611       612
       614       615       617       618       601       606       601       603
       601       604       601       605       606       608       606       614
       608       611       608       610       611       613       611       617
       617       614       614       616       617       619       620       617
       621       622       626       627       628       629       631       632
       634       635       637       638       621       626       621       623
       621       624       621       625       626       628       626       634
       628       631       628       630       631       633       631       637
       637       634       634       636       637       639       640       637
       641       642       646       647       648       649       651       652
       654       655       657       658       641       646       641       643
       641       644       641       645       646       648       646       654
       648       651       648       650       651       653       651       657
       657       654       654       656       657       659       660       657
       661       662       666       667       668       669       671       672
       674       675       677       678       661       666       661       663
       661       664       661       665       666       668       666       674
       668       671       668       670       671       673       671       677
       677       674       674       676       677       679       680       677
       681       682       686       687       688       689       691       692
       694       695       697       698       681       686       681       683
       681       684       681       685       686       688       686       694
       688       691       688       690       691       693       691       697
       697       694       694       696       697       699       700       697
       701       702       706       707       708       709       711       712
       714       715       717       718       701       706       701       703
       701       704       701       705       706       708       706       714
       708       711       708       710       711       713       711       717
       717       714       714       716       717       719       720       717
       721       722       726       727       728       729       731       732
       734       735       737       738       721       726       721       723
       721       724       721       725       726       728       726       734
       728       731       728       730       731       733       731       737
       737       734       734       736       737       739       740       737
       741       742       746       747       748       749       751       752
       754       755       757       758       741       746       741       743
       741       744       741       745       746       748       746       754
       748       751       748       750       751       753       751       757
       757       754       754       756       757       759       760       757
       761       762       766       767       768       769       771       772
       774       775       777       778       761       766       761       763
       761       764       761       765       766       768       766       774
       768       771       768       770       771       773       771       777
       777       774       774       776       777       779       780       777
       781       782       786       787       788       789       791       792
       794       795       797       798       781       786       781       783
       781       784       781       785       786       788       786       794
       788       791       788       790       791       793       791       797
       797       794       794       796       797       799       800       797
       801       802       806       807       808       809       811       812
       814       815       817       818       801       806       801       803
       801       804       801       805       806       808       806       814
       808       811       808       810       811       813       811       817
       817       814       814       816       817       819       820       817
       821       822       826       827       828       829       831       832
       834       835       837       838       821       826       821       823
       821       824       821       825       826       828       826       834
       828       831       828       830       831       833       831       837
       837       834       834       836       837       839       840       837
       841       842       846       847       848       849       851       852
       854       855       857       858       841       846       841       843
       841       844       841       845       846       848       846       854
       848       851       848       850       851       853       851       857
       857       854       854       856       857       859       860       857
       861       862       866       867       868       869       871       872
       874       875       877       878       861       866       861       863
       861       864       861       865       866       868       866       874
       868       871       868       870       871       873       871       877
       877       874       874       876       877       879       880       877
       881       882       886       887       888       889       891       892
       894       895       897       898       881       886       881       883
       881       884       881       885       886       888       886       894
       888       891       888       890       891       893       891       897
       897       894       894       896       897       899       900       897
       901       902       906       907       908       909       911       912
       914       915       917       918       901       906       901       903
       901       904       901       905       906       908       906       914
       908       911       908       910       911       913       911       917
       917       914       914       916       917       919       920       917
       921       922       926       927       928       929       931       932
       934       935       937       938       921       926       921       923
       921       924       921       925       926       928       926       934
       928       931       928       930       931       933       931       937
       937       934       934       936       937       939       940       937
       941       942       946       947       948       949       951       952
       954       955       957       958       941       946       941       943
       941       944       941       945       946       948       946       954
       948       951       948       950       951       953       951       957
       957       954       954       956       957       959       960       957
       961       962       966       967       968       969       971       972
       974       975       977       978       961       966       961       963
       961       964       961       965       966       968       966       974
       968       971       968       970       971       973       971       977
       977       974       974       976       977       979       980       977
       981       982       986       987       988       989       991       992
       994       995       997       998       981       986       981       983
       981       984       981       985       986       988       986       994
       988       991       988       990       991       993       991       997
       997       994       994       996       997       999      1000       997
      1001      1002      1006      1007      1008      1009      1011      1012
      1014      1015      1017      1018      1001      1006      1001      1003
      1001      1004      1001      1005      1006      1008      1006      1014
      1008      1011      1008      1010      1011      1013      1011      1017
      1017      1014      1014      1016      1017      1019      1020      1017
      1021      1022      1026      1027      1028      1029      1031      1032
      1034      1035      1037      1038      1021      1026      1021      1023
      1021      1024      1021      1025      1026      1028      1026      1034
      1028      1031      1028      1030      1031      1033      1031      1037
      1037      1034      1034      1036      1037      1039      1040      1037
      1041      1042      1046      1047      1048      1049      1051      1052
      1054      1055      1057      1058      1041      1046      1041      1043
      1041      1044      1041      1045      1046      1048      1046      1054
      1048      1051      1048      1050      1051      1053      1051      1057
      1057      1054      1054      1056      1057      1059      1060      1057
      1061      1062      1066      1067      1068      1069      1071      1072
      1074      1075      1077      1078      1061      1066      1061      1063
      1061      1064      1061      1065      1066      1068      1066      1074
      1068      1071      1068      1070      1071      1073      1071      1077
      1077      1074      1074      1076      1077      1079      1080      1077
      1081      1082      1086      1087      1088      1089      1091      1092
      1094      1095      1097      1098      1081      1086      1081      1083
      1081      1084      1081      1085      1086      1088      1086      1094
      1088      1091      1088      1090      1091      1093      1091      1097
      1097      1094      1094      1096      1097      1099      1100      1097
      1101      1102      1106      1107      1108      1109      1111      1112
      1114      1115      1117      1118      1101      1106      1101      1103
      1101      1104      1101      1105      1106      1108      1106      1114
      1108      1111      1108      1110      1111      1113      1111      1117
      1117      1114      1114      1116      1117      1119      1120      1117
      1121      1122      1126      1127      1128      1129      1131      1132
      1134      1135      1137      1138      1121      1126      1121      1123
      1121      1124      1121      1125      1126      1128      1126      1134
      1128      1131      1128      1130      1131      1133      1131      1137
      1137      1134      1134      1136      1137      1139      1140      1137
      1141      1142      1146      1147      1148      1149      1151      1152
      1154      1155      1157      1158      1141      1146      1141      1143
      1141      1144      1141      1145      1146      1148      1146      1154
      1148      1151      1148      1150      1151      1153      1151      1157
      1157      1154      1154      1156      1157      1159      1160      1157
      1161      1162      1166      1167      1168      1169      1171      1172
      1174      1175      1177      1178      1161      1166      1161      1163
      1161      1164      1161      1165      1166      1168      1166      1174
      1168      1171      1168      1170      1171      1173      1171      1177
      1177      1174      1174      1176      1177      1179      1180      1177
      1181      1182      1186      1187      1188      1189      1191      1192
      1194      1195      1197      1198      1181      1186      1181      1183
      1181      1184      1181      1185      1186      1188      1186      1194
      1188      1191      1188      1190      1191      1193      1191      1197
      1197      1194      1194      1196      1197      1199      1200      1197
      1201      1202      1206      1207      1208      1209      1211      1212
      1214      1215      1217      1218      1201      1206      1201      1203
      1201      1204      1201      1205      1206      1208      1206      1214
      1208      1211      1208      1210      1211      1213      1211      1217
      1217      1214      1214      1216      1217      1219      1220      1217
      1221      1222      1226      1227      1228      1229      1231      1232
      1234      1235      1237      1238      1221      1226      1221      1223
      1221      1224      1221      1225      1226      1228      1226      1234
      1228      1231      1228      1230      1231      1233      1231      1237
      1237      1234      1234      1236      1237      1239      1240      1237
      1241      1242      1246      1247      1248      1249      1251      1252
      1254      1255      1257      1258      1241      1246      1241      1243
      1241      1244      1241      1245      1246      1248      1246      1254
      1248      1251      1248      1250      1251      1253      1251      1257
      1257      1254      1254      1256      1257      1259      1260      1257
      1261      1262      1266      1267      1268      1269      1271      1272
      1274      1275      1277      1278      1261      1266      1261      1263
      1261      1264      1261      1265      1266      1268      1266      1274
      1268      1271      1268      1270      1271      1273      1271      1277
      1277      1274      1274      1276      1277      1279      1280      1277
      1281      1282      1286      1287      1288      1289      1291      1292
      1294      1295      1297      1298      1281      1286      1281      1283
      1281      1284      1281      1285      1286      1288      1286      1294
      1288      1291      1288      1290      1291      1293      1291      1297
      1297      1294      1294      1296      1297      1299      1300      1297
      1301      1302      1306      1307      1308      1309      1311      1312
      1314      1315      1317      1318      1301      1306      1301      1303
      1301      1304      1301      1305      1306      1308      1306      1314
      1308      1311      1308      1310      1311      1313      1311      1317
      1317      1314      1314      1316      1317      1319      1320      1317
      1321      1322      1326      1327      1328      1329      1331      1332
      1334      1335      1337      1338      1321      1326      1321      1323
      1321      1324      1321      1325      1326      1328      1326      1334
      1328      1331      1328      1330      1331      1333      1331      1337
      1337      1334      1334      1336      1337      1339      1340      1337
      1341      1342      1346      1347      1348      1349      1351      1352
      1354      1355      1357      1358      1341      1346      1341      1343
      1341      1344      1341      1345      1346      1348      1346      1354
      1348      1351      1348      1350      1351      1353      1351      1357
      1357      1354      1354      1356      1357      1359      1360      1357
      1361      1362      1366      1367      1368      1369      1371      1372
      1374      1375      1377      1378      1361      1366      1361      1363
      1361      1364      1361      1365      1366      1368      1366      1374
      1368      1371      1368      1370      1371      1373      1371      1377
      1377      1374      1374      1376      1377      1379      1380      1377
      1381      1382      1386      1387      1388      1389      1391      1392
      1394      1395      1397      1398      1381      1386      1381      1383
      1381      1384      1381      1385      1386      1388      1386      1394
      1388      1391      1388      1390      1391      1393      1391      1397
      1397      1394      1394      1396      1397      1399      1400      1397
      1401      1402      1406      1407      1408      1409      1411      1412
      1414      1415      1417      1418      1401      1406      1401      1403
      1401      1404      1401      1405      1406      1408      1406      1414
      1408      1411      1408      1410      1411      1413      1411      1417
      1417      1414      1414      1416      1417      1419      1420      1417
      1421      1422      1426      1427      1428      1429      1431      1432
      1434      1435      1437      1438      1421      1426      1421      1423
      1421      1424      1421      1425      1426      1428      1426      1434
      1428      1431      1428      1430      1431      1433      1431      1437
      1437      1434      1434      1436      1437      1439      1440      1437
      1441      1442      1446      1447      1448      1449      1451      1452
      1454      1455      1457      1458      1441      1446      1441      1443
      1441      1444      1441      1445      1446      1448      1446      1454
      1448      1451      1448      1450      1451      1453      1451      1457
      1457      1454      1454      1456      1457      1459      1460      1457
      1461      1462      1466      1467      1468      1469      1471      1472
      1474      1475      1477      1478      1461      1466      1461      1463
      1461      1464      1461      1465      1466      1468      1466      1474
      1468      1471      1468      1470      1471      1473      1471      1477
      1477      1474      1474      1476      1477      1479      1480      1477
      1481      1482      1486      1487      1488      1489      1491      1492
      1494      1495      1497      1498      1481      1486      1481      1483
      1481      1484      1481      1485      1486      1488      1486      1494
      1488      1491      1488      1490      1491      1493      1491      1497
      1497      1494      1494      1496      1497      1499      1500      1497
      1501      1502      1506      1507      1508      1509      1511      1512
      1514      1515      1517      1518      1501      1506      1501      1503
      1501      1504      1501      1505      1506      1508      1506      1514
      1508      1511      1508      1510      1511      1513      1511      1517
      1517      1514      1514      1516      1517      1519      1520      1517
      1521      1522      1526      1527      1528      1529      1531      1532
      1534      1535      1537      1538      1521      1526      1521      1523
      1521      1524      1521      1525      1526      1528      1526      1534
      1528      1531      1528      1530      1531      1533      1531      1537
      1537      1534      1534      1536      1537      1539      1540      1537
      1541      1542      1546      1547      1548      1549      1551      1552
      1554      1555      1557      1558      1541      1546      1541      1543
      1541      1544      1541      1545      1546      1548      1546      1554
      1548      1551      1548      1550      1551      1553      1551      1557
      1557      1554      1554      1556      1557      1559      1560      1557
      1561      1562      1566      1567      1568      1569      1571      1572
      1574      1575      1577      1578      1561      1566      1561      1563
      1561      1564      1561      1565      1566      1568      1566      1574
      1568      1571      1568      1570      1571      1573      1571      1577
      1577      1574      1574      1576      1577      1579      1580      1577
      1581      1582      1586      1587      1588      1589      1591      1592
      1594      1595      1597      1598      1581      1586      1581      1583
      1581      1584      1581      1585      1586      1588      1586      1594
      1588      1591      1588      1590      1591      1593      1591      1597
      1597      1594      1594      1596      1597      1599      1600      1597
      1601      1602      1606      1607      1608      1609      1611      1612
      1614      1615      1617      1618      1601      1606      1601      1603
      1601      1604      1601      1605      1606      1608      1606      1614
      1608      1611      1608      1610      1611      1613      1611      1617
      1617      1614      1614      1616      1617      1619      1620      1617
      1621      1622      1626      1627      1628      1629      1631      1632
      1634      1635      1637      1638      1621      1626      1621      1623
      1621      1624      1621      1625      1626      1628      1626      1634
      1628      1631      1628      1630      1631      1633      1631      1637
      1637      1634      1634      1636      1637      1639      1640      1637
      1641      1642      1646      1647      1648      1649      1651      1652
      1654      1655      1657      1658      1641      1646      1641      1643
      1641      1644      1641      1645      1646      1648      1646      1654
      1648      1651      1648      1650      1651      1653      1651      1657
      1657      1654      1654      1656      1657      1659      1660      1657
      1661      1662      1666      1667      1668      1669      1671      1672
      1674      1675      1677      1678      1661      1666      1661      1663
      1661      1664      1661      1665      1666      1668      1666      1674
      1668      1671      1668      1670      1671      1673      1671      1677
      1677      1674      1674      1676      1677      1679      1680      1677
      1681      1682      1686      1687      1688      1689      1691      1692
      1694      1695      1697      1698      1681      1686      1681      1683
      1681      1684      1681      1685      1686      1688      1686      1694
      1688      1691      1688      1690      1691      1693      1691      1697
      1697      1694      1694      1696      1697      1699      1700      1697
      1701      1702      1706      1707      1708      1709      1711      1712
      1714      1715      1717      1718      1701      1706      1701      1703
      1701      1704      1701      1705      1706      1708      1706      1714
      1708      1711      1708      1710      1711      1713      1711      1717
      1717      1714      1714      1716      1717      1719      1720      1717
      1721      1722      1726      1727      1728      1729      1731      1732
      1734      1735      1737      1738      1721      1726      1721      1723
      1721      1724      1721      1725      1726      1728      1726      1734
      1728      1731      1728      1730      1731      1733      1731      1737
      1737      1734      1734      1736      1737      1739      1740      1737
      1741      1742      1746      1747      1748      1749      1751      1752
      1754      1755      1757      1758      1741      1746      1741      1743
      1741      1744      1741      1745      1746      1748      1746      1754
      1748      1751      1748      1750      1751      1753      1751      1757
      1757      1754      1754      1756      1757      1759      1760      1757
      1761      1762      1766      1767      1768      1769      1771      1772
      1774      1775      1777      1778      1761      1766      1761      1763
      1761      1764      1761      1765      1766      1768      1766      1774
      1768      1771      1768      1770      1771      1773      1771      1777
      1777      1774      1774      1776      1777      1779      1780      1777
      1781      1782      1786      1787      1788      1789      1791      1792
      1794      1795      1797      1798      1781      1786      1781      1783
      1781      1784      1781      1785      1786      1788      1786      1794
      1788      1791      1788      1790      1791      1793      1791      1797
      1797      1794      1794      1796      1797      1799      1800      1797
      1801      1802      1806      1807      1808      1809      1811      1812
      1814      1815      1817      1818      1801      1806      1801      1803
      1801      1804      1801      1805      1806      1808      1806      1814
      1808      1811      1808      1810      1811      1813      1811      1817
      1817      1814      1814      1816      1817      1819      1820      1817
      1821      1822      1826      1827      1828      1829      1831      1832
      1834      1835      1837      1838      1821      1826      1821      1823
      1821      1824      1821      1825      1826      1828      1826      1834
      1828      1831      1828      1830      1831      1833      1831      1837
      1837      1834      1834      1836      1837      1839      1840      1837
      1841      1842      1846      1847      1848      1849      1851      1852
      1854      1855      1857      1858      1841      1846      1841      1843
      1841      1844      1841      1845      1846      1848      1846      1854
      1848      1851      1848      1850      1851      1853      1851      1857
      1857      1854      1854      1856      1857      1859      1860      1857
      1861      1862      1866      1867      1868      1869      1871      1872
      1874      1875      1877      1878      1861      1866      1861      1863
      1861      1864      1861      1865      1866      1868      1866      1874
      1868      1871      1868      1870      1871      1873      1871      1877
      1877      1874      1874      1876      1877      1879      1880      1877
      1881      1882      1886      1887      1888      1889      1891      1892
      1894      1895      1897      1898      1881      1886      1881      1883
      1881      1884      1881      1885      1886      1888      1886      1894
      1888      1891      1888      1890      1891      1893      1891      1897
      1897      1894      1894      1896      1897      1899      1900      1897
      1901      1902      1906      1907      1908      1909      1911      1912
      1914      1915      1917      1918      1901      1906      1901      1903
      1901      1904      1901      1905      1906      1908      1906      1914
      1908      1911      1908      1910      1911      1913      1911      1917
      1917      1914      1914      1916      1917      1919      1920      1917
      1921      1922      1926      1927      1928      1929      1931      1932
      1934      1935      1937      1938      1921      1926      1921      1923
      1921      1924      1921      1925      1926      1928      1926      1934
      1928      1931      1928      1930      1931      1933      1931      1937
      1937      1934      1934      1936      1937      1939      1940      1937
      1941      1942      1946      1947      1948      1949      1951      1952
      1954      1955      1957      1958      1941      1946      1941      1943
      1941      1944      1941      1945      1946      1948      1946      1954
      1948      1951      1948      1950      1951      1953      1951      1957
      1957      1954      1954      1956      1957      1959      1960      1957
      1961      1962      1966      1967      1968      1969      1971      1972
      1974      1975      1977      1978      1961      1966      1961      1963
      1961      1964      1961      1965      1966      1968      1966      1974
      1968      1971      1968      1970      1971      1973      1971      1977
      1977      1974      1974      1976      1977      1979      1980      1977
      1981      1982      1986      1987      1988      1989      1991      1992
      1994      1995      1997      1998      1981      1986      1981      1983
      1981      1984      1981      1985      1986      1988      1986      1994
      1988      1991      1988      1990      1991      1993      1991      1997
      1997      1994      1994      1996      1997      1999      2000      1997
      2001      2002      2006      2007      2008      2009      2011      2012
      2014      2015      2017      2018      2001      2006      2001      2003
      2001      2004      2001      2005      2006      2008      2006      2014
      2008      2011      2008      2010      2011      2013      2011      2017
      2017      2014      2014      2016      2017      2019      2020      2017
      2021      2022      2026      2027      2028      2029      2031      2032
      2034      2035      2037      2038      2021      2026      2021      2023
      2021      2024      2021      2025      2026      2028      2026      2034
      2028      2031      2028      2030      2031      2033      2031      2037
      2037      2034      2034      2036      2037      2039      2040      2037
      2041      2042      2046      2047      2048      2049      2051      2052
      2054      2055      2057      2058      2041      2046      2041      2043
      2041      2044      2041      2045      2046      2048      2046      2054
      2048      2051      2048      2050      2051      2053      2051      2057
      2057      2054      2054      2056      2057      2059      2060      2057
      2061      2062      2066      2067      2068      2069      2071      2072
      2074      2075      2077      2078      2061      2066      2061      2063
      2061      2064      2061      2065      2066      2068      2066      2074
      2068      2071      2068      2070      2071      2073      2071      2077
      2077      2074      2074      2076      2077      2079      2080      2077
      2081      2082      2086      2087      2088      2089      2091      2092
      2094      2095      2097      2098      2081      2086      2081      2083
      2081      2084      2081      2085      2086      2088      2086      2094
      2088      2091      2088      2090      2091      2093      2091      2097
      2097      2094      2094      2096      2097      2099      2100      2097
      2101      2102      2106      2107      2108      2109      2111      2112
      2114      2115      2117      2118      2101      2106      2101      2103
      2101      2104      2101      2105      2106      2108      2106      2114
      2108      2111      2108      2110      2111      2113      2111      2117
      2117      2114      2114      2116      2117      2119      2120      2117
      2121      2122      2126      2127      2128      2129      2131      2132
      2134      2135      2137      2138      2121      2126      2121      2123
      2121      2124      2121      2125      2126      2128      2126      2134
      2128      2131      2128      2130      2131      2133      2131      2137
      2137      2134      2134      2136      2137      2139      2140      2137
      2141      2142      2146      2147      2148      2149      2151      2152
      2154      2155      2157      2158      2141      2146      2141      2143
      2141      2144      2141      2145      2146      2148      2146      2154
      2148      2151      2148      2150      2151      2153      2151      2157
      2157      2154      2154      2156      2157      2159      2160      2157
      2161      2162      2166      2167      2168      2169      2171      2172
      2174      2175      2177      2178      2161      2166      2161      2163
      2161      2164      2161      2165      2166      2168      2166      2174
      2168      2171      2168      2170      2171      2173      2171      2177
      2177      2174      2174      2176      2177      2179      2180      2177
      2181      2182      2186      2187      2188      2189      2191      2192
      2194      2195      2197      2198      2181      2186      2181      2183
      2181      2184      2181      2185      2186      2188      2186      2194
      2188      2191      2188      2190      2191      2193      2191      2197
      2197      2194      2194      2196      2197      2199      2200      2197
      2201      2202      2206      2207      2208      2209      2211      2212
      2214      2215      2217      2218      2201      2206      2201      2203
      2201      2204      2201      2205      2206      2208      2206      2214
      2208      2211      2208      2210      2211      2213      2211      2217
      2217      2214      2214      2216      2217      2219      2220      2217
      2221      2222      2226      2227      2228      2229      2231      2232
      2234      2235      2237      2238      2221      2226      2221      2223
      2221      2224      2221      2225      2226      2228      2226      2234
      2228      2231      2228      2230      2231      2233      2231      2237
      2237      2234      2234      2236      2237      2239      2240      2237
      2241      2242      2246      2247      2248      2249      2251      2252
      2254      2255      2257      2258      2241      2246      2241      2243
      2241      2244      2241      2245      2246      2248      2246      2254
      2248      2251      2248      2250      2251      2253      2251      2257
      2257      2254      2254      2256      2257      2259      2260      2257
      2261      2262      2266      2267      2268      2269      2271      2272
      2274      2275      2277      2278      2261      2266      2261      2263
      2261      2264      2261      2265      2266      2268      2266      2274
      2268      2271      2268      2270      2271      2273      2271      2277
      2277      2274      2274      2276      2277      2279      2280      2277
      2281      2282      2286      2287      2288      2289      2291      2292
      2294      2295      2297      2298      2281      2286      2281      2283
      2281      2284      2281      2285      2286      2288      2286      2294
      2288      2291      2288      2290      2291      2293      2291      2297
      2297      2294      2294      2296      2297      2299      2300      2297
      2301      2302      2306      2307      2308      2309      2311      2312
      2314      2315      2317      2318      2301      2306      2301      2303
      2301      2304      2301      2305      2306      2308      2306      2314
      2308      2311      2308      2310      2311      2313      2311      2317
      2317      2314      2314      2316      2317      2319      2320      2317
      2321      2322      2326      2327      2328      2329      2331      2332
      2334      2335      2337      2338      2321      2326      2321      2323
      2321      2324      2321      2325      2326      2328      2326      2334
      2328      2331      2328      2330      2331      2333      2331      2337
      2337      2334      2334      2336      2337      2339      2340      2337
      2341      2342      2346      2347      2348      2349      2351      2352
      2354      2355      2357      2358      2341      2346      2341      2343
      2341      2344      2341      2345      2346      2348      2346      2354
      2348      2351      2348      2350      2351      2353      2351      2357
      2357      2354      2354      2356      2357      2359      2360      2357
      2361      2362      2366      2367      2368      2369      2371      2372
      2374      2375      2377      2378      2361      2366      2361      2363
      2361      2364      2361      2365      2366      2368      2366      2374
      2368      2371      2368      2370      2371      2373      2371      2377
      2377      2374      2374      2376      2377      2379      2380      2377
      2381      2382      2386      2387      2388      2389      2391      2392
      2394      2395      2397      2398      2381      2386      2381      2383
      2381      2384      2381      2385      2386      2388      2386      2394
      2388      2391      2388      2390      2391      2393      2391      2397
      2397      2394      2394      2396      2397      2399      2400      2397
      2401      2402      2406      2407      2408      2409      2411      2412
      2414      2415      2417      2418      2401      2406      2401      2403
      2401      2404      2401      2405      2406      2408      2406      2414
      2408      2411      2408      2410      2411      2413      2411      2417
      2417      2414      2414      2416      2417      2419      2420      2417
      2421      2422      2426      2427      2428      2429      2431      2432
      2434      2435      2437      2438      2421      2426      2421      2423
      2421      2424      2421      2425      2426      2428      2426      2434
      2428      2431      2428      2430      2431      2433      2431      2437
      2437      2434      2434      2436      2437      2439      2440      2437
      2441      2442      2446      2447      2448      2449      2451      2452
      2454      2455      2457      2458      2441      2446      2441      2443
      2441      2444      2441      2445      2446      2448      2446      2454
      2448      2451      2448      2450      2451      2453      2451      2457
      2457      2454      2454      2456      2457      2459      2460      2457
      2461      2462      2466      2467      2468      2469      2471      2472
      2474      2475      2477      2478      2461      2466      2461      2463
      2461      2464      2461      2465      2466      2468      2466      2474
      2468      2471      2468      2470      2471      2473      2471      2477
      2477      2474      2474      2476      2477      2479      2480      2477
      2481      2482      2486      2487      2488      2489      2491      2492
      2494      2495      2497      2498      2481      2486      2481      2483
      2481      2484      2481      2485      2486      2488      2486      2494
      2488      2491      2488      2490      2491      2493      2491      2497
      2497      2494      2494      2496      2497      2499      2500      2497
      2501      2502      2506      2507      2508      2509      2511      2512
      2514      2515      2517      2518      2501      2506      2501      2503
      2501      2504      2501      2505      2506      2508      2506      2514
      2508      2511      2508      2510      2511      2513      2511      2517
      2517      2514      2514      2516      2517      2519      2520      2517
      2521      2522      2526      2527      2528      2529      2531      2532
      2534      2535      2537      2538      2521      2526      2521      2523
      2521      2524      2521      2525      2526      2528      2526      2534
      2528      2531      2528      2530      2531      2533      2531      2537
      2537      2534      2534      2536      2537      2539      2540      2537
      2541      2542      2546      2547      2548      2549      2551      2552
      2554      2555      2557      2558      2541      2546      2541      2543
      2541      2544      2541      2545      2546      2548      2546      2554
      2548      2551      2548      2550      2551      2553      2551      2557
      2557      2554      2554      2556      2557      2559      2560      2557
      2561      2562      2566      2567      2568      2569      2571      2572
      2574      2575      2577      2578      2561      2566      2561      2563
      2561      2564      2561      2565      2566      2568      2566      2574
      2568      2571      2568      2570      2571      2573      2571      2577
      2577      2574      2574      2576      2577      2579      2580      2577
      2581      2582      2586      2587      2588      2589      2591      2592
      2594      2595      2597      2598      2581      2586      2581      2583
      2581      2584      2581      2585      2586      2588      2586      2594
      2588      2591      2588      2590      2591      2593      2591      2597
      2597      2594      2594      2596      2597      2599      2600      2597
      2601      2602      2606      2607      2608      2609      2611      2612
      2614      2615      2617      2618      2601      2606      2601      2603
      2601      2604      2601      2605      2606      2608      2606      2614
      2608      2611      2608      2610      2611      2613      2611      2617
      2617      2614      2614      2616      2617      2619      2620      2617
      2621      2622      2626      2627      2628      2629      2631      2632
      2634      2635      2637      2638      2621      2626      2621      2623
      2621      2624      2621      2625      2626      2628      2626      2634
      2628      2631      2628      2630      2631      2633      2631      2637
      2637      2634      2634      2636      2637      2639      2640      2637
      2641      2642      2646      2647      2648      2649      2651      2652
      2654      2655      2657      2658      2641      2646      2641      2643
      2641      2644      2641      2645      2646      2648      2646      2654
      2648      2651      2648      2650      2651      2653      2651      2657
      2657      2654      2654      2656      2657      2659      2660      2657
      2661      2662      2666      2667      2668      2669      2671      2672
      2674      2675      2677      2678      2661      2666      2661      2663
      2661      2664      2661      2665      2666      2668      2666      2674
      2668      2671      2668      2670      2671      2673      2671      2677
      2677      2674      2674      2676      2677      2679      2680      2677
      2681      2682      2686      2687      2688      2689      2691      2692
      2694      2695      2697      2698      2681      2686      2681      2683
      2681      2684      2681      2685      2686      2688      2686      2694
      2688      2691      2688      2690      2691      2693      2691      2697
      2697      2694      2694      2696      2697      2699      2700      2697
      2701      2702      2706      2707      2708      2709      2711      2712
      2714      2715      2717      2718      2701      2706      2701      2703
      2701      2704      2701      2705      2706      2708      2706      2714
      2708      2711      2708      2710      2711      2713      2711      2717
      2717      2714      2714      2716      2717      2719      2720      2717
      2721      2722      2726      2727      2728      2729      2731      2732
      2734      2735      2737      2738      2721      2726      2721      2723
      2721      2724      2721      2725      2726      2728      2726      2734
      2728      2731      2728      2730      2731      2733      2731      2737
      2737      2734      2734      2736      2737      2739      2740      2737
      2741      2742      2746      2747      2748      2749      2751      2752
      2754      2755      2757      2758      2741      2746      2741      2743
      2741      2744      2741      2745      2746      2748      2746      2754
      2748      2751      2748      2750      2751      2753      2751      2757
      2757      2754      2754      2756      2757      2759      2760      2757
      2761      2762      2766      2767      2768      2769      2771      2772
      2774      2775      2777      2778      2761      2766      2761      2763
      2761      2764      2761      2765      2766      2768      2766      2774
      2768      2771      2768      2770      2771      2773      2771      2777
      2777      2774      2774      2776      2777      2779      2780      2777
      2781      2782      2786      2787      2788      2789      2791      2792
      2794      2795      2797      2798      2781      2786      2781      2783
      2781      2784      2781      2785      2786      2788      2786      2794
      2788      2791      2788      2790      2791      2793      2791      2797
      2797      2794      2794      2796      2797      2799      2800      2797
      2801      2802      2806      2807      2808      2809      2811      2812
      2814      2815      2817      2818      2801      2806      2801      2803
      2801      2804      2801      2805      2806      2808      2806      2814
      2808      2811      2808      2810      2811      2813      2811      2817
      2817      2814      2814      2816      2817      2819      2820      2817
      2821      2822      2826      2827      2828      2829      2831      2832
      2834      2835      2837      2838      2821      2826      2821      2823
      2821      2824      2821      2825      2826      2828      2826      2834
      2828      2831      2828      2830      2831      2833      2831      2837
      2837      2834      2834      2836      2837      2839      2840      2837
      2841      2842      2846      2847      2848      2849      2851      2852
      2854      2855      2857      2858      2841      2846      2841      2843
      2841      2844      2841      2845      2846      2848      2846      2854
      2848      2851      2848      2850      2851      2853      2851      2857
      2857      2854      2854      2856      2857      2859      2860      2857
      2861      2862      2866      2867      2868      2869      2871      2872
      2874      2875      2877      2878      2861      2866      2861      2863
      2861      2864      2861      2865      2866      2868      2866      2874
      2868      2871      2868      2870      2871      2873      2871      2877
      2877      2874      2874      2876      2877      2879      2880      2877
      2881      2882      2886      2887      2888      2889      2891      2892
      2894      2895      2897      2898      2881      2886      2881      2883
      2881      2884      2881      2885      2886      2888      2886      2894
      2888      2891      2888      2890      2891      2893      2891      2897
      2897      2894      2894      2896      2897      2899      2900      2897
      2901      2902      2906      2907      2908      2909      2911      2912
      2914      2915      2917      2918      2901      2906      2901      2903
      2901      2904      2901      2905      2906      2908      2906      2914
      2908      2911      2908      2910      2911      2913      2911      2917
      2917      2914      2914      2916      2917      2919      2920      2917
      2921      2922      2926      2927      2928      2929      2931      2932
      2934      2935      2937      2938      2921      2926      2921      2923
      2921      2924      2921      2925      2926      2928      2926      2934
      2928      2931      2928      2930      2931      2933      2931      2937
      2937      2934      2934      2936      2937      2939      2940      2937
      2941      2942      2946      2947      2948      2949      2951      2952
      2954      2955      2957      2958      2941      2946      2941      2943
      2941      2944      2941      2945      2946      2948      2946      2954
      2948      2951      2948      2950      2951      2953      2951      2957
      2957      2954      2954      2956      2957      2959      2960      2957
      2961      2962      2966      2967      2968      2969      2971      2972
      2974      2975      2977      2978      2961      2966      2961      2963
      2961      2964      2961      2965      2966      2968      2966      2974
      2968      2971      2968      2970      2971      2973      2971      2977
      2977      2974      2974      2976      2977      2979      2980      2977
      2981      2982      2986      2987      2988      2989      2991      2992
      2994      2995      2997      2998      2981      2986      2981      2983
      2981      2984      2981      2985      2986      2988      2986      2994
      2988      2991      2988      2990      2991      2993      2991      2997
      2997      2994      2994      2996      2997      2999      3000      2997
      3001      3002      3006      3007      3008      3009      3011      3012
      3014      3015      3017      3018      3001      3006      3001      3003
      3001      3004      3001      3005      3006      3008      3006      3014
      3008      3011      3008      3010      3011      3013      3011      3017
      3017      3014      3014      3016      3017      3019      3020      3017
      3021      3022      3026      3027      3028      3029      3031      3032
      3034      3035      3037      3038      3021      3026      3021      3023
      3021      3024      3021      3025      3026      3028      3026      3034
      3028      3031      3028      3030      3031      3033      3031      3037
      3037      3034      3034      3036      3037      3039      3040      3037
      3041      3042      3046      3047      3048      3049      3051      3052
      3054      3055      3057      3058      3041      3046      3041      3043
      3041      3044      3041      3045      3046      3048      3046      3054
      3048      3051      3048      3050      3051      3053      3051      3057
      3057      3054      3054      3056      3057      3059      3060      3057
      3061      3062      3066      3067      3068      3069      3071      3072
      3074      3075      3077      3078      3061      3066      3061      3063
      3061      3064      3061      3065      3066      3068      3066      3074
      3068      3071      3068      3070      3071      3073      3071      3077
      3077      3074      3074      3076      3077      3079      3080      3077
      3081      3082      3086      3087      3088      3089      3091      3092
      3094      3095      3097      3098      3081      3086      3081      3083
      3081      3084      3081      3085      3086      3088      3086      3094
      3088      3091      3088      3090      3091      3093      3091      3097
      3097      3094      3094      3096      3097      3099      3100      3097
      3101      3102      3106      3107      3108      3109      3111      3112
      3114      3115      3117      3118      3101      3106      3101      3103
      3101      3104      3101      3105      3106      3108      3106      3114
      3108      3111      3108      3110      3111      3113      3111      3117
      3117      3114      3114      3116      3117      3119      3120      3117
      3121      3122      3126      3127      3128      3129      3131      3132
      3134      3135      3137      3138      3121      3126      3121      3123
      3121      3124      3121      3125      3126      3128      3126      3134
      3128      3131      3128      3130      3131      3133      3131      3137
      3137      3134      3134      3136      3137      3139      3140      3137
      3141      3142      3143      3144      3148      3149      3150      3151
      3143      3141      3141      3148      3141      3150      3143      3145
      3143      3146      3143      3147      3150      3152      3148      3153
      3148      3154      3150      3155      3150      3156      3157      3158
      3159      3160      3164      3165      3166      3167      3159      3157
      3157      3164      3157      3166      3159      3161      3159      3162
      3159      3163      3166      3168      3164      3169      3164      3170
      3166      3171      3166      3172      3173      3174      3175      3176
      3180      3181      3182      3183      3175      3173      3173      3180
      3173      3182      3175      3177      3175      3178      3175      3179
      3182      3184      3180      3185      3180      3186      3182      3187
      3182      3188      3189      3190      3191      3192      3196      3197
      3198      3199      3191      3189      3189      3196      3189      3198
      3191      3193      3191      3194      3191      3195      3198      3200
      3196      3201      3196      3202      3198      3203      3198      3204
      3205      3206      3207      3208      3212      3213      3214      3215
      3207      3205      3205      3212      3205      3214      3207      3209
      3207      3210      3207      3211      3214      3216      3212      3217
      3212      3218      3214      3219      3214      3220      3221      3222
      3223      3224      3228      3229      3230      3231      3223      3221
      3221      3228      3221      3230      3223      3225      3223      3226
      3223      3227      3230      3232      3228      3233      3228      3234
      3230      3235      3230      3236      3237      3238      3239      3240
      3244      3245      3246      3247      3239      3237      3237      3244
      3237      3246      3239      3241      3239      3242      3239      3243
      3246      3248      3244      3249      3244      3250      3246      3251
      3246      3252      3253      3254      3255      3256      3260      3261
      3262      3263      3255      3253      3253      3260      3253      3262
      3255      3257      3255      3258      3255      3259      3262      3264
      3260      3265      3260      3266      3262      3267      3262      3268
      3269      3270      3271      3272      3276      3277      3278      3279
      3271      3269      3269      3276      3269      3278      3271      3273
      3271      3274      3271      3275      3278      3280      3276      3281
      3276      3282      3278      3283      3278      3284      3285      3286
      3287      3288      3292      3293      3294      3295      3287      3285
      3285      3292      3285      3294      3287      3289      3287      3290
      3287      3291      3294      3296      3292      3297      3292      3298
      3294      3299      3294      3300      3301      3302      3303      3304
      3308      3309      3310      3311      3303      3301      3301      3308
      3301      3310      3303      3305      3303      3306      3303      3307
      3310      3312      3308      3313      3308      3314      3310      3315
      3310      3316      3317      3318      3319      3320      3324      3325
      3326      3327      3319      3317      3317      3324      3317      3326
      3319      3321      3319      3322      3319      3323      3326      3328
      3324      3329      3324      3330      3326      3331      3326      3332
      3333      3334      3335      3336      3340      3341      3342      3343
      3335      3333      3333      3340      3333      3342      3335      3337
      3335      3338      3335      3339      3342      3344      3340      3345
      3340      3346      3342      3347      3342      3348      3349      3350
      3351      3352      3356      3357      3358      3359      3351      3349
      3349      3356      3349      3358      3351      3353      3351      3354
      3351      3355      3358      3360      3356      3361      3356      3362
      3358      3363      3358      3364      3365      3366      3367      3368
      3372      3373      3374      3375      3367      3365      3365      3372
      3365      3374      3367      3369      3367      3370      3367      3371
      3374      3376      3372      3377      3372      3378      3374      3379
      3374      3380      3381      3382      3383      3384      3388      3389
      3390      3391      3383      3381      3381      3388      3381      3390
      3383      3385      3383      3386      3383      3387      3390      3392
      3388      3393      3388      3394      3390      3395      3390      3396
      3397      3398      3399      3400      3404      3405      3406      3407
      3399      3397      3397      3404      3397      3406      3399      3401
      3399      3402      3399      3403      3406      3408      3404      3409
      3404      3410      3406      3411      3406      3412      3413      3414
      3415      3416      3420      3421      3422      3423      3415      3413
      3413      3420      3413      3422      3415      3417      3415      3418
      3415      3419      3422      3424      3420      3425      3420      3426
      3422      3427      3422      3428      3429      3430      3431      3432
      3436      3437      3438      3439      3431      3429      3429      3436
      3429      3438      3431      3433      3431      3434      3431      3435
      3438      3440      3436      3441      3436      3442      3438      3443
      3438      3444      3445      3446      3447      3448      3452      3453
      3454      3455      3447      3445      3445      3452      3445      3454
      3447      3449      3447      3450      3447      3451      3454      3456
      3452      3457      3452      3458      3454      3459      3454      3460
      3461      3462      3463      3464      3468      3469      3470      3471
      3463      3461      3461      3468      3461      3470      3463      3465
      3463      3466      3463      3467      3470      3472      3468      3473
      3468      3474      3470      3475      3470      3476      3477      3478
      3479      3480      3484      3485      3486      3487      3479      3477
      3477      3484      3477      3486      3479      3481      3479      3482
      3479      3483      3486      3488      3484      3489      3484      3490
      3486      3491      3486      3492      3493      3494      3495      3496
      3500      3501      3502      3503      3495      3493      3493      3500
      3493      3502      3495      3497      3495      3498      3495      3499
      3502      3504      3500      3505      3500      3506      3502      3507
      3502      3508      3509      3510      3511      3512      3516      3517
      3518      3519      3511      3509      3509      3516      3509      3518
      3511      3513      3511      3514      3511      3515      3518      3520
      3516      3521      3516      3522      3518      3523      3518      3524
      3525      3526      3527      3528      3532      3533      3534      3535
      3527      3525      3525      3532      3525      3534      3527      3529
      3527      3530      3527      3531      3534      3536      3532      3537
      3532      3538      3534      3539      3534      3540      3541      3542
      3543      3544      3548      3549      3550      3551      3543      3541
      3541      3548      3541      3550      3543      3545      3543      3546
      3543      3547      3550      3552      3548      3553      3548      3554
      3550      3555      3550      3556      3557      3558      3559      3560
      3564      3565      3566      3567      3559      3557      3557      3564
      3557      3566      3559      3561      3559      3562      3559      3563
      3566      3568      3564      3569      3564      3570      3566      3571
      3566      3572      3573      3574      3575      3576      3580      3581
      3582      3583      3575      3573      3573      3580      3573      3582
      3575      3577      3575      3578      3575      3579      3582      3584
      3580      3585      3580      3586      3582      3587      3582      3588
      3589      3590      3591      3592      3596      3597      3598      3599
      3591      3589      3589      3596      3589      3598      3591      3593
      3591      3594      3591      3595      3598      3600      3596      3601
      3596      3602      3598      3603      3598      3604      3605      3606
      3607      3608      3612      3613      3614      3615      3607      3605
      3605      3612      3605      3614      3607      3609      3607      3610
      3607      3611      3614      3616      3612      3617      3612      3618
      3614      3619      3614      3620      3621      3622      3623      3624
      3628      3629      3630      3631      3623      3621      3621      3628
      3621      3630      3623      3625      3623      3626      3623      3627
      3630      3632      3628      3633      3628      3634      3630      3635
      3630      3636      3637      3638      3639      3640      3644      3645
      3646      3647      3639      3637      3637      3644      3637      3646
      3639      3641      3639      3642      3639      3643      3646      3648
      3644      3649      3644      3650      3646      3651      3646      3652
      3653      3654      3655      3656      3660      3661      3662      3663
      3655      3653      3653      3660      3653      3662      3655      3657
      3655      3658      3655      3659      3662      3664      3660      3665
      3660      3666      3662      3667      3662      3668      3669      3670
      3671      3672      3676      3677      3678      3679      3671      3669
      3669      3676      3669      3678      3671      3673      3671      3674
      3671      3675      3678      3680      3676      3681      3676      3682
      3678      3683      3678      3684      3685      3686      3687      3688
      3692      3693      3694      3695      3687      3685      3685      3692
      3685      3694      3687      3689      3687      3690      3687      3691
      3694      3696      3692      3697      3692      3698      3694      3699
      3694      3700      3701      3702      3703      3704      3708      3709
      3710      3711      3703      3701      3701      3708      3701      3710
      3703      3705      3703      3706      3703      3707      3710      3712
      3708      3713      3708      3714      3710      3715      3710      3716
      3717      3718      3719      3720      3724      3725      3726      3727
      3719      3717      3717      3724      3717      3726      3719      3721
      3719      3722      3719      3723      3726      3728      3724      3729
      3724      3730      3726      3731      3726      3732      3733      3734
      3735      3736      3740      3741      3742      3743      3735      3733
      3733      3740      3733      3742      3735      3737      3735      3738
      3735      3739      3742      3744      3740      3745      3740      3746
      3742      3747      3742      3748      3749      3750      3751      3752
      3756      3757      3758      3759      3751      3749      3749      3756
      3749      3758      3751      3753      3751      3754      3751      3755
      3758      3760      3756      3761      3756      3762      3758      3763
      3758      3764      3765      3766      3767      3768      3772      3773
      3774      3775      3767      3765      3765      3772      3765      3774
      3767      3769      3767      3770      3767      3771      3774      3776
      3772      3777      3772      3778      3774      3779      3774      3780
      3781      3782      3783      3784      3788      3789      3790      3791
      3783      3781      3781      3788      3781      3790      3783      3785
      3783      3786      3783      3787      3790      3792      3788      3793
      3788      3794      3790      3795      3790      3796      3797      3798
      3799      3800      3804      3805      3806      3807      3799      3797
      3797      3804      3797      3806      3799      3801      3799      3802
      3799      3803      3806      3808      3804      3809      3804      3810
      3806      3811      3806      3812      3813      3814      3815      3816
      3820      3821      3822      3823      3815      3813      3813      3820
      3813      3822      3815      3817      3815      3818      3815      3819
      3822      3824      3820      3825      3820      3826      3822      3827
      3822      3828      3829      3830      3831      3832      3836      3837
      3838      3839      3831      3829      3829      3836      3829      3838
      3831      3833      3831      3834      3831      3835      3838      3840
      3836      3841      3836      3842      3838      3843      3838      3844
      3845      3846      3847      3848      3852      3853      3854      3855
      3847      3845      3845      3852      3845      3854      3847      3849
      3847      3850      3847      3851      3854      3856      3852      3857
      3852      3858      3854      3859      3854      3860      3861      3862
      3863      3864      3868      3869      3870      3871      3863      3861
      3861      3868      3861      3870      3863      3865      3863      3866
      3863      3867      3870      3872      3868      3873      3868      3874
      3870      3875      3870      3876      3877      3878      3879      3880
      3884      3885      3886      3887      3879      3877      3877      3884
      3877      3886      3879      3881      3879      3882      3879      3883
      3886      3888      3884      3889      3884      3890      3886      3891
      3886      3892      3893      3894      3895      3896      3900      3901
      3902      3903      3895      3893      3893      3900      3893      3902
      3895      3897      3895      3898      3895      3899      3902      3904
      3900      3905      3900      3906      3902      3907      3902      3908
      3909      3910      3911      3912      3916      3917      3918      3919
      3911      3909      3909      3916      3909      3918      3911      3913
      3911      3914      3911      3915      3918      3920      3916      3921
      3916      3922      3918      3923      3918      3924      3925      3926
      3927      3928      3932      3933      3934      3935      3927      3925
      3925      3932      3925      3934      3927      3929      3927      3930
      3927      3931      3934      3936      3932      3937      3932      3938
      3934      3939      3934      3940      3941      3942      3943      3944
      3948      3949      3950      3951      3943      3941      3941      3948
      3941      3950      3943      3945      3943      3946      3943      3947
      3950      3952      3948      3953      3948      3954      3950      3955
      3950      3956      3957      3958      3959      3960      3964      3965
      3966      3967      3959      3957      3957      3964      3957      3966
      3959      3961      3959      3962      3959      3963      3966      3968
      3964      3969      3964      3970      3966      3971      3966      3972
      3973      3974      3975      3976      3980      3981      3982      3983
      3975      3973      3973      3980      3973      3982      3975      3977
      3975      3978      3975      3979      3982      3984      3980      3985
      3980      3986      3982      3987      3982      3988      3989      3990
      3991      3992      3996      3997      3998      3999      3991      3989
      3989      3996      3989      3998      3991      3993      3991      3994
      3991      3995      3998      4000      3996      4001      3996      4002
      3998      4003      3998      4004      4005      4006      4007      4008
      4012      4013      4014      4015      4007      4005      4005      4012
      4005      4014      4007      4009      4007      4010      4007      4011
      4014      4016      4012      4017      4012      4018      4014      4019
      4014      4020      4021      4022      4023      4024      4028      4029
      4030      4031      4023      4021      4021      4028      4021      4030
      4023      4025      4023      4026      4023      4027      4030      4032
      4028      4033      4028      4034      4030      4035      4030      4036
      4037      4038      4039      4040      4044      4045      4046      4047
      4039      4037      4037      4044      4037      4046      4039      4041
      4039      4042      4039      4043      4046      4048      4044      4049
      4044      4050      4046      4051      4046      4052      4053      4054
      4055      4056      4060      4061      4062      4063      4055      4053
      4053      4060      4053      4062      4055      4057      4055      4058
      4055      4059      4062      4064      4060      4065      4060      4066
      4062      4067      4062      4068      4069      4070      4071      4072
      4076      4077      4078      4079      4071      4069      4069      4076
      4069      4078      4071      4073      4071      4074      4071      4075
      4078      4080      4076      4081      4076      4082      4078      4083
      4078      4084      4085      4086      4087      4088      4092      4093
      4094      4095      4087      4085      4085      4092      4085      4094
      4087      4089      4087      4090      4087      4091      4094      4096
      4092      4097      4092      4098      4094      4099      4094      4100
      4101      4102      4103      4104      4108      4109      4110      4111
      4103      4101      4101      4108      4101      4110      4103      4105
      4103      4106      4103      4107      4110      4112      4108      4113
      4108      4114      4110      4115      4110      4116      4117      4118
      4119      4120      4124      4125      4126      4127      4119      4117
      4117      4124      4117      4126      4119      4121      4119      4122
      4119      4123      4126      4128      4124      4129      4124      4130
      4126      4131      4126      4132      4133      4134      4135      4136
      4140      4141      4142      4143      4135      4133      4133      4140
      4133      4142      4135      4137      4135      4138      4135      4139
      4142      4144      4140      4145      4140      4146      4142      4147
      4142      4148      4149      4150      4151      4152      4156      4157
      4158      4159      4151      4149      4149      4156      4149      4158
      4151      4153      4151      4154      4151      4155      4158      4160
      4156      4161      4156      4162      4158      4163      4158      4164
      4165      4166      4167      4168      4172      4173      4174      4175
      4167      4165      4165      4172      4165      4174      4167      4169
      4167      4170      4167      4171      4174      4176      4172      4177
      4172      4178      4174      4179      4174      4180      4181      4182
      4183      4184      4188      4189      4190      4191      4183      4181
      4181      4188      4181      4190      4183      4185      4183      4186
      4183      4187      4190      4192      4188      4193      4188      4194
      4190      4195      4190      4196      4197      4198      4199      4200
      4204      4205      4206      4207      4199      4197      4197      4204
      4197      4206      4199      4201      4199      4202      4199      4203
      4206      4208      4204      4209      4204      4210      4206      4211
      4206      4212      4213      4214      4215      4216      4220      4221
      4222      4223      4215      4213      4213      4220      4213      4222
      4215      4217      4215      4218      4215      4219      4222      4224
      4220      4225      4220      4226      4222      4227      4222      4228
      4229      4230      4231      4232      4236      4237      4238      4239
      4231      4229      4229      4236      4229      4238      4231      4233
      4231      4234      4231      4235      4238      4240      4236      4241
      4236      4242      4238      4243      4238      4244      4245      4246
      4247      4248      4252      4253      4254      4255      4247      4245
      4245      4252      4245      4254      4247      4249      4247      4250
      4247      4251      4254      4256      4252      4257      4252      4258
      4254      4259      4254      4260      4261      4262      4263      4264
      4268      4269      4270      4271      4263      4261      4261      4268
      4261      4270      4263      4265      4263      4266      4263      4267
      4270      4272      4268      4273      4268      4274      4270      4275
      4270      4276      4277      4278      4279      4280      4284      4285
      4286      4287      4279      4277      4277      4284      4277      4286
      4279      4281      4279      4282      4279      4283      4286      4288
      4284      4289      4284      4290      4286      4291      4286      4292
      4293      4294      4295      4296      4300      4301      4302      4303
      4295      4293      4293      4300      4293      4302      4295      4297
      4295      4298      4295      4299      4302      4304      4300      4305
      4300      4306      4302      4307      4302      4308      4309      4310
      4311      4312      4316      4317      4318      4319      4311      4309
      4309      4316      4309      4318      4311      4313      4311      4314
      4311      4315      4318      4320      4316      4321      4316      4322
      4318      4323      4318      4324      4325      4326      4327      4328
      4332      4333      4334      4335      4327      4325      4325      4332
      4325      4334      4327      4329      4327      4330      4327      4331
      4334      4336      4332      4337      4332      4338      4334      4339
      4334      4340      4341      4342      4343      4344      4348      4349
      4350      4351      4343      4341      4341      4348      4341      4350
      4343      4345      4343      4346      4343      4347      4350      4352
      4348      4353      4348      4354      4350      4355      4350      4356
      4357      4358      4359      4360      4364      4365      4366      4367
      4359      4357      4357      4364      4357      4366      4359      4361
      4359      4362      4359      4363      4366      4368      4364      4369
      4364      4370      4366      4371      4366      4372      4373      4374
      4375      4376      4380      4381      4382      4383      4375      4373
      4373      4380      4373      4382      4375      4377      4375      4378
      4375      4379      4382      4384      4380      4385      4380      4386
      4382      4387      4382      4388      4389      4390      4391      4392
      4396      4397      4398      4399      4391      4389      4389      4396
      4389      4398      4391      4393      4391      4394      4391      4395
      4398      4400      4396      4401      4396      4402      4398      4403
      4398      4404      4405      4406      4407      4408      4412      4413
      4414      4415      4407      4405      4405      4412      4405      4414
      4407      4409      4407      4410      4407      4411      4414      4416
      4412      4417      4412      4418      4414      4419      4414      4420
      4421      4422      4423      4424      4428      4429      4430      4431
      4423      4421      4421      4428      4421      4430      4423      4425
      4423      4426      4423      4427      4430      4432      4428      4433
      4428      4434      4430      4435      4430      4436      4437      4438
      4439      4440      4444      4445      4446      4447      4439      4437
      4437      4444      4437      4446      4439      4441      4439      4442
      4439      4443      4446      4448      4444      4449      4444      4450
      4446      4451      4446      4452      4453      4454      4455      4456
      4460      4461      4462      4463      4455      4453      4453      4460
      4453      4462      4455      4457      4455      4458      4455      4459
      4462      4464      4460      4465      4460      4466      4462      4467
      4462      4468      4469      4470      4471      4472      4476      4477
      4478      4479      4471      4469      4469      4476      4469      4478
      4471      4473      4471      4474      4471      4475      4478      4480
      4476      4481      4476      4482      4478      4483      4478      4484
      4485      4486      4487      4488      4492      4493      4494      4495
      4487      4485      4485      4492      4485      4494      4487      4489
      4487      4490      4487      4491      4494      4496      4492      4497
      4492      4498      4494      4499      4494      4500      4501      4502
      4503      4504      4508      4509      4510      4511      4503      4501
      4501      4508      4501      4510      4503      4505      4503      4506
      4503      4507      4510      4512      4508      4513      4508      4514
      4510      4515      4510      4516      4517      4518      4519      4520
      4524      4525      4526      4527      4519      4517      4517      4524
      4517      4526      4519      4521      4519      4522      4519      4523
      4526      4528      4524      4529      4524      4530      4526      4531
      4526      4532      4533      4534      4535      4536      4540      4541
      4542      4543      4535      4533      4533      4540      4533      4542
      4535      4537      4535      4538      4535      4539      4542      4544
      4540      4545      4540      4546      4542      4547      4542      4548
      4549      4550      4551      4552      4556      4557      4558      4559
      4551      4549      4549      4556      4549      4558      4551      4553
      4551      4554      4551      4555      4558      4560      4556      4561
      4556      4562      4558      4563      4558      4564      4565      4566
      4567      4568      4572      4573      4574      4575      4567      4565
      4565      4572      4565      4574      4567      4569      4567      4570
      4567      4571      4574      4576      4572      4577      4572      4578
      4574      4579      4574      4580      4581      4582      4583      4584
      4588      4589      4590      4591      4583      4581      4581      4588
      4581      4590      4583      4585      4583      4586      4583      4587
      4590      4592      4588      4593      4588      4594      4590      4595
      4590      4596      4597      4598      4599      4600      4604      4605
      4606      4607      4599      4597      4597      4604      4597      4606
      4599      4601      4599      4602      4599      4603      4606      4608
      4604      4609      4604      4610      4606      4611      4606      4612
      4613      4614      4615      4616      4620      4621      4622      4623
      4615      4613      4613      4620      4613      4622      4615      4617
      4615      4618      4615      4619      4622      4624      4620      4625
      4620      4626      4622      4627      4622      4628      4629      4630
      4631      4632      4636      4637      4638      4639      4631      4629
      4629      4636      4629      4638      4631      4633      4631      4634
      4631      4635      4638      4640      4636      4641      4636      4642
      4638      4643      4638      4644      4645      4646      4647      4648
      4652      4653      4654      4655      4647      4645      4645      4652
      4645      4654      4647      4649      4647      4650      4647      4651
      4654      4656      4652      4657      4652      4658      4654      4659
      4654      4660      4661      4662      4663      4664      4668      4669
      4670      4671      4663      4661      4661      4668      4661      4670
      4663      4665      4663      4666      4663      4667      4670      4672
      4668      4673      4668      4674      4670      4675      4670      4676
      4677      4678      4679      4680      4684      4685      4686      4687
      4679      4677      4677      4684      4677      4686      4679      4681
      4679      4682      4679      4683      4686      4688      4684      4689
      4684      4690      4686      4691      4686      4692      4693      4694
      4695      4696      4700      4701      4702      4703      4695      4693
      4693      4700      4693      4702      4695      4697      4695      4698
      4695      4699      4702      4704      4700      4705      4700      4706
      4702      4707      4702      4708      4709      4710      4711      4712
      4716      4717      4718      4719      4711      4709      4709      4716
      4709      4718      4711      4713      4711      4714      4711      4715
      4718      4720      4716      4721      4716      4722      4718      4723
      4718      4724      4725      4726      4727      4728      4732      4733
      4734      4735      4727      4725      4725      4732      4725      4734
      4727      4729      4727      4730      4727      4731      4734      4736
      4732      4737      4732      4738      4734      4739      4734      4740
      4741      4742      4743      4744      4748      4749      4750      4751
      4743      4741      4741      4748      4741      4750      4743      4745
      4743      4746      4743      4747      4750      4752      4748      4753
      4748      4754      4750      4755      4750      4756      4757      4758
      4759      4760      4764      4765      4766      4767      4759      4757
      4757      4764      4757      4766      4759      4761      4759      4762
      4759      4763      4766      4768      4764      4769      4764      4770
      4766      4771      4766      4772      4773      4774      4775      4776
      4780      4781      4782      4783      4775      4773      4773      4780
      4773      4782      4775      4777      4775      4778      4775      4779
      4782      4784      4780      4785      4780      4786      4782      4787
      4782      4788      4789      4790      4791      4792      4796      4797
      4798      4799      4791      4789      4789      4796      4789      4798
      4791      4793      4791      4794      4791      4795      4798      4800
      4796      4801      4796      4802      4798      4803      4798      4804
      4805      4806      4807      4808      4812      4813      4814      4815
      4807      4805      4805      4812      4805      4814      4807      4809
      4807      4810      4807      4811      4814      4816      4812      4817
      4812      4818      4814      4819      4814      4820      4821      4822
      4823      4824      4828      4829      4830      4831      4823      4821
      4821      4828      4821      4830      4823      4825      4823      4826
      4823      4827      4830      4832      4828      4833      4828      4834
      4830      4835      4830      4836      4837      4838      4839      4840
      4844      4845      4846      4847      4839      4837      4837      4844
      4837      4846      4839      4841      4839      4842      4839      4843
      4846      4848      4844      4849      4844      4850      4846      4851
      4846      4852      4853      4854      4855      4856      4860      4861
      4862      4863      4855      4853      4853      4860      4853      4862
      4855      4857      4855      4858      4855      4859      4862      4864
      4860      4865      4860      4866      4862      4867      4862      4868
      4869      4870      4871      4872      4876      4877      4878      4879
      4871      4869      4869      4876      4869      4878      4871      4873
      4871      4874      4871      4875      4878      4880      4876      4881
      4876      4882      4878      4883      4878      4884      4885      4886
      4887      4888      4892      4893      4894      4895      4887      4885
      4885      4892      4885      4894      4887      4889      4887      4890
      4887      4891      4894      4896      4892      4897      4892      4898
      4894      4899      4894      4900      4901      4902      4903      4904
      4908      4909      4910      4911      4903      4901      4901      4908
      4901      4910      4903      4905      4903      4906      4903      4907
      4910      4912      4908      4913      4908      4914      4910      4915
      4910      4916      4917      4918      4919      4920      4924      4925
      4926      4927      4919      4917      4917      4924      4917      4926
      4919      4921      4919      4922      4919      4923      4926      4928
      4924      4929      4924      4930      4926      4931      4926      4932
      4933      4934      4935      4936      4940      4941      4942      4943
      4935      4933      4933      4940      4933      4942      4935      4937
      4935      4938      4935      4939      4942      4944      4940      4945
      4940      4946      4942      4947      4942      4948      4949      4950
      4951      4952      4956      4957      4958      4959      4951      4949
      4949      4956      4949      4958      4951      4953      4951      4954
      4951      4955      4958      4960      4956      4961      4956      4962
      4958      4963      4958      4964      4965      4966      4967      4968
      4972      4973      4974      4975      4967      4965      4965      4972
      4965      4974      4967      4969      4967      4970      4967      4971
      4974      4976      4972      4977      4972      4978      4974      4979
      4974      4980      4981      4982      4983      4984      4988      4989
      4990      4991      4983      4981      4981      4988      4981      4990
      4983      4985      4983      4986      4983      4987      4990      4992
      4988      4993      4988      4994      4990      4995      4990      4996
      4997      4998      4999      5000      5004      5005      5006      5007
      4999      4997      4997      5004      4997      5006      4999      5001
      4999      5002      4999      5003      5006      5008      5004      5009
      5004      5010      5006      5011      5006      5012      5013      5014
      5015      5016      5020      5021      5022      5023      5015      5013
      5013      5020      5013      5022      5015      5017      5015      5018
      5015      5019      5022      5024      5020      5025      5020      5026
      5022      5027      5022      5028      5029      5030      5031      5032
      5036      5037      5038      5039      5031      5029      5029      5036
      5029      5038      5031      5033      5031      5034      5031      5035
      5038      5040      5036      5041      5036      5042      5038      5043
      5038      5044      5045      5046      5047      5048      5052      5053
      5054      5055      5047      5045      5045      5052      5045      5054
      5047      5049      5047      5050      5047      5051      5054      5056
      5052      5057      5052      5058      5054      5059      5054      5060
      5061      5062      5063      5064      5068      5069      5070      5071
      5063      5061      5061      5068      5061      5070      5063      5065
      5063      5066      5063      5067      5070      5072      5068      5073
      5068      5074      5070      5075      5070      5076      5077      5078
      5079      5080      5084      5085      5086      5087      5079      5077
      5077      5084      5077      5086      5079      5081      5079      5082
      5079      5083      5086      5088      5084      5089      5084      5090
      5086      5091      5086      5092      5093      5094      5095      5096
      5100      5101      5102      5103      5095      5093      5093      5100
      5093      5102      5095      5097      5095      5098      5095      5099
      5102      5104      5100      5105      5100      5106      5102      5107
      5102      5108      5109      5110      5111      5112      5116      5117
      5118      5119      5111      5109      5109      5116      5109      5118
      5111      5113      5111      5114      5111      5115      5118      5120
      5116      5121      5116      5122      5118      5123      5118      5124
      5125      5126      5127      5128      5132      5133      5134      5135
      5127      5125      5125      5132      5125      5134      5127      5129
      5127      5130      5127      5131      5134      5136      5132      5137
      5132      5138      5134      5139      5134      5140      5141      5142
      5143      5144      5148      5149      5150      5151      5143      5141
      5141      5148      5141      5150      5143      5145      5143      5146
      5143      5147      5150      5152      5148      5153      5148      5154
      5150      5155      5150      5156      5157      5158      5159      5160
      5164      5165      5166      5167      5159      5157      5157      5164
      5157      5166      5159      5161      5159      5162      5159      5163
      5166      5168      5164      5169      5164      5170      5166      5171
      5166      5172      5173      5174      5175      5176      5180      5181
      5182      5183      5175      5173      5173      5180      5173      5182
      5175      5177      5175      5178      5175      5179      5182      5184
      5180      5185      5180      5186      5182      5187      5182      5188
      5189      5190      5191      5192      5196      5197      5198      5199
      5191      5189      5189      5196      5189      5198      5191      5193
      5191      5194      5191      5195      5198      5200      5196      5201
      5196      5202      5198      5203      5198      5204      5205      5206
      5207      5208      5212      5213      5214      5215      5207      5205
      5205      5212      5205      5214      5207      5209      5207      5210
      5207      5211      5214      5216      5212      5217      5212      5218
      5214      5219      5214      5220      5221      5222      5223      5224
      5228      5229      5230      5231      5223      5221      5221      5228
      5221      5230      5223      5225      5223      5226      5223      5227
      5230      5232      5228      5233      5228      5234      5230      5235
      5230      5236      5237      5238      5239      5240      5244      5245
      5246      5247      5239      5237      5237      5244      5237      5246
      5239      5241      5239      5242      5239      5243      5246      5248
      5244      5249      5244      5250      5246      5251      5246      5252
      5253      5254      5255      5256      5260      5261      5262      5263
      5255      5253      5253      5260      5253      5262      5255      5257
      5255      5258      5255      5259      5262      5264      5260      5265
      5260      5266      5262      5267      5262      5268      5269      5270
      5271      5272      5276      5277      5278      5279      5271      5269
      5269      5276      5269      5278      5271      5273      5271      5274
      5271      5275      5278      5280      5276      5281      5276      5282
      5278      5283      5278      5284      5285      5286      5287      5288
      5292      5293      5294      5295      5287      5285      5285      5292
      5285      5294      5287      5289      5287      5290      5287      5291
      5294      5296      5292      5297      5292      5298      5294      5299
      5294      5300      5301      5302      5303      5304      5308      5309
      5310      5311      5303      5301      5301      5308      5301      5310
      5303      5305      5303      5306      5303      5307      5310      5312
      5308      5313      5308      5314      5310      5315      5310      5316
      5317      5318      5319      5320      5324      5325      5326      5327
      5319      5317      5317      5324      5317      5326      5319      5321
      5319      5322      5319      5323      5326      5328      5324      5329
      5324      5330      5326      5331      5326      5332      5333      5334
      5335      5336      5340      5341      5342      5343      5335      5333
      5333      5340      5333      5342      5335      5337      5335      5338
      5335      5339      5342      5344      5340      5345      5340      5346
      5342      5347      5342      5348      5349      5350      5351      5352
      5356      5357      5358      5359      5351      5349      5349      5356
      5349      5358      5351      5353      5351      5354      5351      5355
      5358      5360      5356      5361      5356      5362      5358      5363
      5358      5364      5365      5366      5367      5368      5372      5373
      5374      5375      5367      5365      5365      5372      5365      5374
      5367      5369      5367      5370      5367      5371      5374      5376
      5372      5377      5372      5378      5374      5379      5374      5380
      5381      5382      5383      5384      5388      5389      5390      5391
      5383      5381      5381      5388      5381      5390      5383      5385
      5383      5386      5383      5387      5390      5392      5388      5393
      5388      5394      5390      5395      5390      5396      5397      5398
      5399      5400      5404      5405      5406      5407      5399      5397
      5397      5404      5397      5406      5399      5401      5399      5402
      5399      5403      5406      5408      5404      5409      5404      5410
      5406      5411      5406      5412      5413      5414      5415      5416
      5420      5421      5422      5423      5415      5413      5413      5420
      5413      5422      5415      5417      5415      5418      5415      5419
      5422      5424      5420      5425      5420      5426      5422      5427
      5422      5428      5429      5430      5431      5432      5436      5437
      5438      5439      5431      5429      5429      5436      5429      5438
      5431      5433      5431      5434      5431      5435      5438      5440
      5436      5441      5436      5442      5438      5443      5438      5444
      5445      5446      5447      5448      5452      5453      5454      5455
      5447      5445      5445      5452      5445      5454      5447      5449
      5447      5450      5447      5451      5454      5456      5452      5457
      5452      5458      5454      5459      5454      5460      5461      5462
      5463      5464      5468      5469      5470      5471      5463      5461
      5461      5468      5461      5470      5463      5465      5463      5466
      5463      5467      5470      5472      5468      5473      5468      5474
      5470      5475      5470      5476      5477      5478      5479      5480
      5484      5485      5486      5487      5479      5477      5477      5484
      5477      5486      5479      5481      5479      5482      5479      5483
      5486      5488      5484      5489      5484      5490      5486      5491
      5486      5492      5493      5494      5495      5496      5500      5501
      5502      5503      5495      5493      5493      5500      5493      5502
      5495      5497      5495      5498      5495      5499      5502      5504
      5500      5505      5500      5506      5502      5507      5502      5508
      5509      5510      5511      5512      5516      5517      5518      5519
      5511      5509      5509      5516      5509      5518      5511      5513
      5511      5514      5511      5515      5518      5520      5516      5521
      5516      5522      5518      5523      5518      5524      5525      5526
      5527      5528      5532      5533      5534      5535      5527      5525
      5525      5532      5525      5534      5527      5529      5527      5530
      5527      5531      5534      5536      5532      5537      5532      5538
      5534      5539      5534      5540      5541      5542      5546      5547
      5548      5549      5551      5552      5554      5555      5557      5558
      5541      5546      5541      5543      5541      5544      5541      5545
      5546      5548      5546      5554      5548      5551      5548      5550
      5551      5553      5551      5557      5557      5554      5554      5556
      5557      5559      5560      5557      5561      5562      5566      5567
      5568      5569      5571      5572      5574      5575      5577      5578
      5561      5566      5561      5563      5561      5564      5561      5565
      5566      5568      5566      5574      5568      5571      5568      5570
      5571      5573      5571      5577      5577      5574      5574      5576
      5577      5579      5580      5577      5581      5582      5586      5587
      5588      5589      5591      5592      5594      5595      5597      5598
      5581      5586      5581      5583      5581      5584      5581      5585
      5586      5588      5586      5594      5588      5591      5588      5590
      5591      5593      5591      5597      5597      5594      5594      5596
      5597      5599      5600      5597      5601      5602      5606      5607
      5608      5609      5611      5612      5614      5615      5617      5618
      5601      5606      5601      5603      5601      5604      5601      5605
      5606      5608      5606      5614      5608      5611      5608      5610
      5611      5613      5611      5617      5617      5614      5614      5616
      5617      5619      5620      5617      5621      5622      5626      5627
      5628      5629      5631      5632      5634      5635      5637      5638
      5621      5626      5621      5623      5621      5624      5621      5625
      5626      5628      5626      5634      5628      5631      5628      5630
      5631      5633      5631      5637      5637      5634      5634      5636
      5637      5639      5640      5637      5641      5642      5646      5647
      5648      5649      5651      5652      5654      5655      5657      5658
      5641      5646      5641      5643      5641      5644      5641      5645
      5646      5648      5646      5654      5648      5651      5648      5650
      5651      5653      5651      5657      5657      5654      5654      5656
      5657      5659      5660      5657      5661      5662      5666      5667
      5668      5669      5671      5672      5674      5675      5677      5678
      5661      5666      5661      5663      5661      5664      5661      5665
      5666      5668      5666      5674      5668      5671      5668      5670
      5671      5673      5671      5677      5677      5674      5674      5676
      5677      5679      5680      5677      5681      5682      5686      5687
      5688      5689      5691      5692      5694      5695      5697      5698
      5681      5686      5681      5683      5681      5684      5681      5685
      5686      5688      5686      5694      5688      5691      5688      5690
      5691      5693      5691      5697      5697      5694      5694      5696
      5697      5699      5700      5697      5701      5702      5706      5707
      5708      5709      5711      5712      5714      5715      5717      5718
      5701      5706      5701      5703      5701      5704      5701      5705
      5706      5708      5706      5714      5708      5711      5708      5710
      5711      5713      5711      5717      5717      5714      5714      5716
      5717      5719      5720      5717      5721      5722      5726      5727
      5728      5729      5731      5732      5734      5735      5737      5738
      5721      5726      5721      5723      5721      5724      5721      5725
      5726      5728      5726      5734      5728      5731      5728      5730
      5731      5733      5731      5737      5737      5734      5734      5736
      5737      5739      5740      5737      5741      5742      5746      5747
      5748      5749      5751      5752      5754      5755      5757      5758
      5741      5746      5741      5743      5741      5744      5741      5745
      5746      5748      5746      5754      5748      5751      5748      5750
      5751      5753      5751      5757      5757      5754      5754      5756
      5757      5759      5760      5757      5761      5762      5766      5767
      5768      5769      5771      5772      5774      5775      5777      5778
      5761      5766      5761      5763      5761      5764      5761      5765
      5766      5768      5766      5774      5768      5771      5768      5770
      5771      5773      5771      5777      5777      5774      5774      5776
      5777      5779      5780      5777      5781      5782      5786      5787
      5788      5789      5791      5792      5794      5795      5797      5798
      5781      5786      5781      5783      5781      5784      5781      5785
      5786      5788      5786      5794      5788      5791      5788      5790
      5791      5793      5791      5797      5797      5794      5794      5796
      5797      5799      5800      5797      5801      5802      5806      5807
      5808      5809      5811      5812      5814      5815      5817      5818
      5801      5806      5801      5803      5801      5804      5801      5805
      5806      5808      5806      5814      5808      5811      5808      5810
      5811      5813      5811      5817      5817      5814      5814      5816
      5817      5819      5820      5817      5821      5822      5826      5827
      5828      5829      5831      5832      5834      5835      5837      5838
      5821      5826      5821      5823      5821      5824      5821      5825
      5826      5828      5826      5834      5828      5831      5828      5830
      5831      5833      5831      5837      5837      5834      5834      5836
      5837      5839      5840      5837      5841      5842      5846      5847
      5848      5849      5851      5852      5854      5855      5857      5858
      5841      5846      5841      5843      5841      5844      5841      5845
      5846      5848      5846      5854      5848      5851      5848      5850
      5851      5853      5851      5857      5857      5854      5854      5856
      5857      5859      5860      5857      5861      5862      5866      5867
      5868      5869      5871      5872      5874      5875      5877      5878
      5861      5866      5861      5863      5861      5864      5861      5865
      5866      5868      5866      5874      5868      5871      5868      5870
      5871      5873      5871      5877      5877      5874      5874      5876
      5877      5879      5880      5877      5881      5882      5886      5887
      5888      5889      5891      5892      5894      5895      5897      5898
      5881      5886      5881      5883      5881      5884      5881      5885
      5886      5888      5886      5894      5888      5891      5888      5890
      5891      5893      5891      5897      5897      5894      5894      5896
      5897      5899      5900      5897      5901      5902      5906      5907
      5908      5909      5911      5912      5914      5915      5917      5918
      5901      5906      5901      5903      5901      5904      5901      5905
      5906      5908      5906      5914      5908      5911      5908      5910
      5911      5913      5911      5917      5917      5914      5914      5916
      5917      5919      5920      5917      5921      5922      5926      5927
      5928      5929      5931      5932      5934      5935      5937      5938
      5921      5926      5921      5923      5921      5924      5921      5925
      5926      5928      5926      5934      5928      5931      5928      5930
      5931      5933      5931      5937      5937      5934      5934      5936
      5937      5939      5940      5937      5941      5942      5946      5947
      5948      5949      5951      5952      5954      5955      5957      5958
      5941      5946      5941      5943      5941      5944      5941      5945
      5946      5948      5946      5954      5948      5951      5948      5950
      5951      5953      5951      5957      5957      5954      5954      5956
      5957      5959      5960      5957      5961      5962      5966      5967
      5968      5969      5971      5972      5974      5975      5977      5978
      5961      5966      5961      5963      5961      5964      5961      5965
      5966      5968      5966      5974      5968      5971      5968      5970
      5971      5973      5971      5977      5977      5974      5974      5976
      5977      5979      5980      5977      5981      5982      5986      5987
      5988      5989      5991      5992      5994      5995      5997      5998
      5981      5986      5981      5983      5981      5984      5981      5985
      5986      5988      5986      5994      5988      5991      5988      5990
      5991      5993      5991      5997      5997      5994      5994      5996
      5997      5999      6000      5997      6001      6002      6006      6007
      6008      6009      6011      6012      6014      6015      6017      6018
      6001      6006      6001      6003      6001      6004      6001      6005
      6006      6008      6006      6014      6008      6011      6008      6010
      6011      6013      6011      6017      6017      6014      6014      6016
      6017      6019      6020      6017      6021      6022      6026      6027
      6028      6029      6031      6032      6034      6035      6037      6038
      6021      6026      6021      6023      6021      6024      6021      6025
      6026      6028      6026      6034      6028      6031      6028      6030
      6031      6033      6031      6037      6037      6034      6034      6036
      6037      6039      6040      6037      6041      6042      6046      6047
      6048      6049      6051      6052      6054      6055      6057      6058
      6041      6046      6041      6043      6041      6044      6041      6045
      6046      6048      6046      6054      6048      6051      6048      6050
      6051      6053      6051      6057      6057      6054      6054      6056
      6057      6059      6060      6057      6061      6062      6066      6067
      6068      6069      6071      6072      6074      6075      6077      6078
      6061      6066      6061      6063      6061      6064      6061      6065
      6066      6068      6066      6074      6068      6071      6068      6070
      6071      6073      6071      6077      6077      6074      6074      6076
      6077      6079      6080      6077      6081      6082      6086      6087
      6088      6089      6091      6092      6094      6095      6097      6098
      6081      6086      6081      6083      6081      6084      6081      6085
      6086      6088      6086      6094      6088      6091      6088      6090
      6091      6093      6091      6097      6097      6094      6094      6096
      6097      6099      6100      6097      6101      6102      6106      6107
      6108      6109      6111      6112      6114      6115      6117      6118
      6101      6106      6101      6103      6101      6104      6101      6105
      6106      6108      6106      6114      6108      6111      6108      6110
      6111      6113      6111      6117      6117      6114      6114      6116
      6117      6119      6120      6117      6121      6122      6126      6127
      6128      6129      6131      6132      6134      6135      6137      6138
      6121      6126      6121      6123      6121      6124      6121      6125
      6126      6128      6126      6134      6128      6131      6128      6130
      6131      6133      6131      6137      6137      6134      6134      6136
      6137      6139      6140      6137      6141      6142      6146      6147
      6148      6149      6151      6152      6154      6155      6157      6158
      6141      6146      6141      6143      6141      6144      6141      6145
      6146      6148      6146      6154      6148      6151      6148      6150
      6151      6153      6151      6157      6157      6154      6154      6156
      6157      6159      6160      6157      6161      6162      6166      6167
      6168      6169      6171      6172      6174      6175      6177      6178
      6161      6166      6161      6163      6161      6164      6161      6165
      6166      6168      6166      6174      6168      6171      6168      6170
      6171      6173      6171      6177      6177      6174      6174      6176
      6177      6179      6180      6177      6181      6182      6186      6187
      6188      6189      6191      6192      6194      6195      6197      6198
      6181      6186      6181      6183      6181      6184      6181      6185
      6186      6188      6186      6194      6188      6191      6188      6190
      6191      6193      6191      6197      6197      6194      6194      6196
      6197      6199      6200      6197      6201      6202      6206      6207
      6208      6209      6211      6212      6214      6215      6217      6218
      6201      6206      6201      6203      6201      6204      6201      6205
      6206      6208      6206      6214      6208      6211      6208      6210
      6211      6213      6211      6217      6217      6214      6214      6216
      6217      6219      6220      6217      6221      6222      6226      6227
      6228      6229      6231      6232      6234      6235      6237      6238
      6221      6226      6221      6223      6221      6224      6221      6225
      6226      6228      6226      6234      6228      6231      6228      6230
      6231      6233      6231      6237      6237      6234      6234      6236
      6237      6239      6240      6237      6241      6242      6246      6247
      6248      6249      6251      6252      6254      6255      6257      6258
      6241      6246      6241      6243      6241      6244      6241      6245
      6246      6248      6246      6254      6248      6251      6248      6250
      6251      6253      6251      6257      6257      6254      6254      6256
      6257      6259      6260      6257      6261      6262      6266      6267
      6268      6269      6271      6272      6274      6275      6277      6278
      6261      6266      6261      6263      6261      6264      6261      6265
      6266      6268      6266      6274      6268      6271      6268      6270
      6271      6273      6271      6277      6277      6274      6274      6276
      6277      6279      6280      6277      6281      6282      6286      6287
      6288      6289      6291      6292      6294      6295      6297      6298
      6281      6286      6281      6283      6281      6284      6281      6285
      6286      6288      6286      6294      6288      6291      6288      6290
      6291      6293      6291      6297      6297      6294      6294      6296
      6297      6299      6300      6297      6301      6302      6306      6307
      6308      6309      6311      6312      6314      6315      6317      6318
      6301      6306      6301      6303      6301      6304      6301      6305
      6306      6308      6306      6314      6308      6311      6308      6310
      6311      6313      6311      6317      6317      6314      6314      6316
      6317      6319      6320      6317      6321      6322      6326      6327
      6328      6329      6331      6332      6334      6335      6337      6338
      6321      6326      6321      6323      6321      6324      6321      6325
      6326      6328      6326      6334      6328      6331      6328      6330
      6331      6333      6331      6337      6337      6334      6334      6336
      6337      6339      6340      6337      6341      6342      6346      6347
      6348      6349      6351      6352      6354      6355      6357      6358
      6341      6346      6341      6343      6341      6344      6341      6345
      6346      6348      6346      6354      6348      6351      6348      6350
      6351      6353      6351      6357      6357      6354      6354      6356
      6357      6359      6360      6357      6361      6362      6366      6367
      6368      6369      6371      6372      6374      6375      6377      6378
      6361      6366      6361      6363      6361      6364      6361      6365
      6366      6368      6366      6374      6368      6371      6368      6370
      6371      6373      6371      6377      6377      6374      6374      6376
      6377      6379      6380      6377      6381      6382      6386      6387
      6388      6389      6391      6392      6394      6395      6397      6398
      6381      6386      6381      6383      6381      6384      6381      6385
      6386      6388      6386      6394      6388      6391      6388      6390
      6391      6393      6391      6397      6397      6394      6394      6396
      6397      6399      6400      6397      6401      6402      6406      6407
      6408      6409      6411      6412      6414      6415      6417      6418
      6401      6406      6401      6403      6401      6404      6401      6405
      6406      6408      6406      6414      6408      6411      6408      6410
      6411      6413      6411      6417      6417      6414      6414      6416
      6417      6419      6420      6417      6421      6422      6426      6427
      6428      6429      6431      6432      6434      6435      6437      6438
      6421      6426      6421      6423      6421      6424      6421      6425
      6426      6428      6426      6434      6428      6431      6428      6430
      6431      6433      6431      6437      6437      6434      6434      6436
      6437      6439      6440      6437      6441      6442      6446      6447
      6448      6449      6451      6452      6454      6455      6457      6458
      6441      6446      6441      6443      6441      6444      6441      6445
      6446      6448      6446      6454      6448      6451      6448      6450
      6451      6453      6451      6457      6457      6454      6454      6456
      6457      6459      6460      6457      6461      6462      6466      6467
      6468      6469      6471      6472      6474      6475      6477      6478
      6461      6466      6461      6463      6461      6464      6461      6465
      6466      6468      6466      6474      6468      6471      6468      6470
      6471      6473      6471      6477      6477      6474      6474      6476
      6477      6479      6480      6477      6481      6482      6486      6487
      6488      6489      6491      6492      6494      6495      6497      6498
      6481      6486      6481      6483      6481      6484      6481      6485
      6486      6488      6486      6494      6488      6491      6488      6490
      6491      6493      6491      6497      6497      6494      6494      6496
      6497      6499      6500      6497      6501      6502      6506      6507
      6508      6509      6511      6512      6514      6515      6517      6518
      6501      6506      6501      6503      6501      6504      6501      6505
      6506      6508      6506      6514      6508      6511      6508      6510
      6511      6513      6511      6517      6517      6514      6514      6516
      6517      6519      6520      6517      6521      6522      6526      6527
      6528      6529      6531      6532      6534      6535      6537      6538
      6521      6526      6521      6523      6521      6524      6521      6525
      6526      6528      6526      6534      6528      6531      6528      6530
      6531      6533      6531      6537      6537      6534      6534      6536
      6537      6539      6540      6537      6541      6542      6546      6547
      6548      6549      6551      6552      6554      6555      6557      6558
      6541      6546      6541      6543      6541      6544      6541      6545
      6546      6548      6546      6554      6548      6551      6548      6550
      6551      6553      6551      6557      6557      6554      6554      6556
      6557      6559      6560      6557      6561      6562      6566      6567
      6568      6569      6571      6572      6574      6575      6577      6578
      6561      6566      6561      6563      6561      6564      6561      6565
      6566      6568      6566      6574      6568      6571      6568      6570
      6571      6573      6571      6577      6577      6574      6574      6576
      6577      6579      6580      6577      6581      6582      6586      6587
      6588      6589      6591      6592      6594      6595      6597      6598
      6581      6586      6581      6583      6581      6584      6581      6585
      6586      6588      6586      6594      6588      6591      6588      6590
      6591      6593      6591      6597      6597      6594      6594      6596
      6597      6599      6600      6597      6601      6602      6606      6607
      6608      6609      6611      6612      6614      6615      6617      6618
      6601      6606      6601      6603      6601      6604      6601      6605
      6606      6608      6606      6614      6608      6611      6608      6610
      6611      6613      6611      6617      6617      6614      6614      6616
      6617      6619      6620      6617      6621      6622      6626      6627
      6628      6629      6631      6632      6634      6635      6637      6638
      6621      6626      6621      6623      6621      6624      6621      6625
      6626      6628      6626      6634      6628      6631      6628      6630
      6631      6633      6631      6637      6637      6634      6634      6636
      6637      6639      6640      6637      6641      6642      6646      6647
      6648      6649      6651      6652      6654      6655      6657      6658
      6641      6646      6641      6643      6641      6644      6641      6645
      6646      6648      6646      6654      6648      6651      6648      6650
      6651      6653      6651      6657      6657      6654      6654      6656
      6657      6659      6660      6657      6661      6662      6666      6667
      6668      6669      6671      6672      6674      6675      6677      6678
      6661      6666      6661      6663      6661      6664      6661      6665
      6666      6668      6666      6674      6668      6671      6668      6670
      6671      6673      6671      6677      6677      6674      6674      6676
      6677      6679      6680      6677      6681      6682      6686      6687
      6688      6689      6691      6692      6694      6695      6697      6698
      6681      6686      6681      6683      6681      6684      6681      6685
      6686      6688      6686      6694      6688      6691      6688      6690
      6691      6693      6691      6697      6697      6694      6694      6696
      6697      6699      6700      6697      6701      6702      6706      6707
      6708      6709      6711      6712      6714      6715      6717      6718
      6701      6706      6701      6703      6701      6704      6701      6705
      6706      6708      6706      6714      6708      6711      6708      6710
      6711      6713      6711      6717      6717      6714      6714      6716
      6717      6719      6720      6717      6721      6722      6726      6727
      6728      6729      6731      6732      6734      6735      6737      6738
      6721      6726      6721      6723      6721      6724      6721      6725
      6726      6728      6726      6734      6728      6731      6728      6730
      6731      6733      6731      6737      6737      6734      6734      6736
      6737      6739      6740      6737      6741      6742      6746      6747
      6748      6749      6751      6752      6754      6755      6757      6758
      6741      6746      6741      6743      6741      6744      6741      6745
      6746      6748      6746      6754      6748      6751      6748      6750
      6751      6753      6751      6757      6757      6754      6754      6756
      6757      6759      6760      6757      6761      6762      6766      6767
      6768      6769      6771      6772      6774      6775      6777      6778
      6761      6766      6761      6763      6761      6764      6761      6765
      6766      6768      6766      6774      6768      6771      6768      6770
      6771      6773      6771      6777      6777      6774      6774      6776
      6777      6779      6780      6777      6781      6782      6786      6787
      6788      6789      6791      6792      6794      6795      6797      6798
      6781      6786      6781      6783      6781      6784      6781      6785
      6786      6788      6786      6794      6788      6791      6788      6790
      6791      6793      6791      6797      6797      6794      6794      6796
      6797      6799      6800      6797      6801      6802      6806      6807
      6808      6809      6811      6812      6814      6815      6817      6818
      6801      6806      6801      6803      6801      6804      6801      6805
      6806      6808      6806      6814      6808      6811      6808      6810
      6811      6813      6811      6817      6817      6814      6814      6816
      6817      6819      6820      6817      6821      6822      6826      6827
      6828      6829      6831      6832      6834      6835      6837      6838
      6821      6826      6821      6823      6821      6824      6821      6825
      6826      6828      6826      6834      6828      6831      6828      6830
      6831      6833      6831      6837      6837      6834      6834      6836
      6837      6839      6840      6837      6841      6842      6846      6847
      6848      6849      6851      6852      6854      6855      6857      6858
      6841      6846      6841      6843      6841      6844      6841      6845
      6846      6848      6846      6854      6848      6851      6848      6850
      6851      6853      6851      6857      6857      6854      6854      6856
      6857      6859      6860      6857      6861      6862      6866      6867
      6868      6869      6871      6872      6874      6875      6877      6878
      6861      6866      6861      6863      6861      6864      6861      6865
      6866      6868      6866      6874      6868      6871      6868      6870
      6871      6873      6871      6877      6877      6874      6874      6876
      6877      6879      6880      6877      6881      6882      6886      6887
      6888      6889      6891      6892      6894      6895      6897      6898
      6881      6886      6881      6883      6881      6884      6881      6885
      6886      6888      6886      6894      6888      6891      6888      6890
      6891      6893      6891      6897      6897      6894      6894      6896
      6897      6899      6900      6897      6901      6902      6906      6907
      6908      6909      6911      6912      6914      6915      6917      6918
      6901      6906      6901      6903      6901      6904      6901      6905
      6906      6908      6906      6914      6908      6911      6908      6910
      6911      6913      6911      6917      6917      6914      6914      6916
      6917      6919      6920      6917      6921      6922      6926      6927
      6928      6929      6931      6932      6934      6935      6937      6938
      6921      6926      6921      6923      6921      6924      6921      6925
      6926      6928      6926      6934      6928      6931      6928      6930
      6931      6933      6931      6937      6937      6934      6934      6936
      6937      6939      6940      6937      6941      6942      6946      6947
      6948      6949      6951      6952      6954      6955      6957      6958
      6941      6946      6941      6943      6941      6944      6941      6945
      6946      6948      6946      6954      6948      6951      6948      6950
      6951      6953      6951      6957      6957      6954      6954      6956
      6957      6959      6960      6957      6961      6962      6966      6967
      6968      6969      6971      6972      6974      6975      6977      6978
      6961      6966      6961      6963      6961      6964      6961      6965
      6966      6968      6966      6974      6968      6971      6968      6970
      6971      6973      6971      6977      6977      6974      6974      6976
      6977      6979      6980      6977      6981      6982      6986      6987
      6988      6989      6991      6992      6994      6995      6997      6998
      6981      6986      6981      6983      6981      6984      6981      6985
      6986      6988      6986      6994      6988      6991      6988      6990
      6991      6993      6991      6997      6997      6994      6994      6996
      6997      6999      7000      6997      7001      7002      7006      7007
      7008      7009      7011      7012      7014      7015      7017      7018
      7001      7006      7001      7003      7001      7004      7001      7005
      7006      7008      7006      7014      7008      7011      7008      7010
      7011      7013      7011      7017      7017      7014      7014      7016
      7017      7019      7020      7017      7021      7022      7026      7027
      7028      7029      7031      7032      7034      7035      7037      7038
      7021      7026      7021      7023      7021      7024      7021      7025
      7026      7028      7026      7034      7028      7031      7028      7030
      7031      7033      7031      7037      7037      7034      7034      7036
      7037      7039      7040      7037      7041      7042      7046      7047
      7048      7049      7051      7052      7054      7055      7057      7058
      7041      7046      7041      7043      7041      7044      7041      7045
      7046      7048      7046      7054      7048      7051      7048      7050
      7051      7053      7051      7057      7057      7054      7054      7056
      7057      7059      7060      7057      7061      7062      7066      7067
      7068      7069      7071      7072      7074      7075      7077      7078
      7061      7066      7061      7063      7061      7064      7061      7065
      7066      7068      7066      7074      7068      7071      7068      7070
      7071      7073      7071      7077      7077      7074      7074      7076
      7077      7079      7080      7077      7081      7082      7086      7087
      7088      7089      7091      7092      7094      7095      7097      7098
      7081      7086      7081      7083      7081      7084      7081      7085
      7086      7088      7086      7094      7088      7091      7088      7090
      7091      7093      7091      7097      7097      7094      7094      7096
      7097      7099      7100      7097      7101      7102      7106      7107
      7108      7109      7111      7112      7114      7115      7117      7118
      7101      7106      7101      7103      7101      7104      7101      7105
      7106      7108      7106      7114      7108      7111      7108      7110
      7111      7113      7111      7117      7117      7114      7114      7116
      7117      7119      7120      7117      7121      7122      7126      7127
      7128      7129      7131      7132      7134      7135      7137      7138
      7121      7126      7121      7123      7121      7124      7121      7125
      7126      7128      7126      7134      7128      7131      7128      7130
      7131      7133      7131      7137      7137      7134      7134      7136
      7137      7139      7140      7137      7141      7142      7146      7147
      7148      7149      7151      7152      7154      7155      7157      7158
      7141      7146      7141      7143      7141      7144      7141      7145
      7146      7148      7146      7154      7148      7151      7148      7150
      7151      7153      7151      7157      7157      7154      7154      7156
      7157      7159      7160      7157      7161      7162      7166      7167
      7168      7169      7171      7172      7174      7175      7177      7178
      7161      7166      7161      7163      7161      7164      7161      7165
      7166      7168      7166      7174      7168      7171      7168      7170
      7171      7173      7171      7177      7177      7174      7174      7176
      7177      7179      7180      7177      7181      7182      7186      7187
      7188      7189      7191      7192      7194      7195      7197      7198
      7181      7186      7181      7183      7181      7184      7181      7185
      7186      7188      7186      7194      7188      7191      7188      7190
      7191      7193      7191      7197      7197      7194      7194      7196
      7197      7199      7200      7197      7201      7202      7206      7207
      7208      7209      7211      7212      7214      7215      7217      7218
      7201      7206      7201      7203      7201      7204      7201      7205
      7206      7208      7206      7214      7208      7211      7208      7210
      7211      7213      7211      7217      7217      7214      7214      7216
      7217      7219      7220      7217      7221      7222      7226      7227
      7228      7229      7231      7232      7234      7235      7237      7238
      7221      7226      7221      7223      7221      7224      7221      7225
      7226      7228      7226      7234      7228      7231      7228      7230
      7231      7233      7231      7237      7237      7234      7234      7236
      7237      7239      7240      7237      7241      7242      7246      7247
      7248      7249      7251      7252      7254      7255      7257      7258
      7241      7246      7241      7243      7241      7244      7241      7245
      7246      7248      7246      7254      7248      7251      7248      7250
      7251      7253      7251      7257      7257      7254      7254      7256
      7257      7259      7260      7257      7261      7262      7266      7267
      7268      7269      7271      7272      7274      7275      7277      7278
      7261      7266      7261      7263      7261      7264      7261      7265
      7266      7268      7266      7274      7268      7271      7268      7270
      7271      7273      7271      7277      7277      7274      7274      7276
      7277      7279      7280      7277      7281      7282      7286      7287
      7288      7289      7291      7292      7294      7295      7297      7298
      7281      7286      7281      7283      7281      7284      7281      7285
      7286      7288      7286      7294      7288      7291      7288      7290
      7291      7293      7291      7297      7297      7294      7294      7296
      7297      7299      7300      7297      7301      7302      7306      7307
      7308      7309      7311      7312      7314      7315      7317      7318
      7301      7306      7301      7303      7301      7304      7301      7305
      7306      7308      7306      7314      7308      7311      7308      7310
      7311      7313      7311      7317      7317      7314      7314      7316
      7317      7319      7320      7317      7321      7322      7326      7327
      7328      7329      7331      7332      7334      7335      7337      7338
      7321      7326      7321      7323      7321      7324      7321      7325
      7326      7328      7326      7334      7328      7331      7328      7330
      7331      7333      7331      7337      7337      7334      7334      7336
      7337      7339      7340      7337      7341      7342      7346      7347
      7348      7349      7351      7352      7354      7355      7357      7358
      7341      7346      7341      7343      7341      7344      7341      7345
      7346      7348      7346      7354      7348      7351      7348      7350
      7351      7353      7351      7357      7357      7354      7354      7356
      7357      7359      7360      7357      7361      7362      7366      7367
      7368      7369      7371      7372      7374      7375      7377      7378
      7361      7366      7361      7363      7361      7364      7361      7365
      7366      7368      7366      7374      7368      7371      7368      7370
      7371      7373      7371      7377      7377      7374      7374      7376
      7377      7379      7380      7377      7381      7382      7386      7387
      7388      7389      7391      7392      7394      7395      7397      7398
      7381      7386      7381      7383      7381      7384      7381      7385
      7386      7388      7386      7394      7388      7391      7388      7390
      7391      7393      7391      7397      7397      7394      7394      7396
      7397      7399      7400      7397      7401      7402      7406      7407
      7408      7409      7411      7412      7414      7415      7417      7418
      7401      7406      7401      7403      7401      7404      7401      7405
      7406      7408      7406      7414      7408      7411      7408      7410
      7411      7413      7411      7417      7417      7414      7414      7416
      7417      7419      7420      7417      7421      7422      7426      7427
      7428      7429      7431      7432      7434      7435      7437      7438
      7421      7426      7421      7423      7421      7424      7421      7425
      7426      7428      7426      7434      7428      7431      7428      7430
      7431      7433      7431      7437      7437      7434      7434      7436
      7437      7439      7440      7437      7441      7442      7446      7447
      7448      7449      7451      7452      7454      7455      7457      7458
      7441      7446      7441      7443      7441      7444      7441      7445
      7446      7448      7446      7454      7448      7451      7448      7450
      7451      7453      7451      7457      7457      7454      7454      7456
      7457      7459      7460      7457      7461      7462      7466      7467
      7468      7469      7471      7472      7474      7475      7477      7478
      7461      7466      7461      7463      7461      7464      7461      7465
      7466      7468      7466      7474      7468      7471      7468      7470
      7471      7473      7471      7477      7477      7474      7474      7476
      7477      7479      7480      7477      7481      7482      7486      7487
      7488      7489      7491      7492      7494      7495      7497      7498
      7481      7486      7481      7483      7481      7484      7481      7485
      7486      7488      7486      7494      7488      7491      7488      7490
      7491      7493      7491      7497      7497      7494      7494      7496
      7497      7499      7500      7497      7501      7502      7506      7507
      7508      7509      7511      7512      7514      7515      7517      7518
      7501      7506      7501      7503      7501      7504      7501      7505
      7506      7508      7506      7514      7508      7511      7508      7510
      7511      7513      7511      7517      7517      7514      7514      7516
      7517      7519      7520      7517      7521      7522      7526      7527
      7528      7529      7531      7532      7534      7535      7537      7538
      7521      7526      7521      7523      7521      7524      7521      7525
      7526      7528      7526      7534      7528      7531      7528      7530
      7531      7533      7531      7537      7537      7534      7534      7536
      7537      7539      7540      7537      7541      7542      7546      7547
      7548      7549      7551      7552      7554      7555      7557      7558
      7541      7546      7541      7543      7541      7544      7541      7545
      7546      7548      7546      7554      7548      7551      7548      7550
      7551      7553      7551      7557      7557      7554      7554      7556
      7557      7559      7560      7557      7561      7562      7566      7567
      7568      7569      7571      7572      7574      7575      7577      7578
      7561      7566      7561      7563      7561      7564      7561      7565
      7566      7568      7566      7574      7568      7571      7568      7570
      7571      7573      7571      7577      7577      7574      7574      7576
      7577      7579      7580      7577      7581      7582      7586      7587
      7588      7589      7591      7592      7594      7595      7597      7598
      7581      7586      7581      7583      7581      7584      7581      7585
      7586      7588      7586      7594      7588      7591      7588      7590
      7591      7593      7591      7597      7597      7594      7594      7596
      7597      7599      7600      7597      7601      7602      7606      7607
      7608      7609      7611      7612      7614      7615      7617      7618
      7601      7606      7601      7603      7601      7604      7601      7605
      7606      7608      7606      7614      7608      7611      7608      7610
      7611      7613      7611      7617      7617      7614      7614      7616
      7617      7619      7620      7617      7621      7622      7626      7627
      7628      7629      7631      7632      7634      7635      7637      7638
      7621      7626      7621      7623      7621      7624      7621      7625
      7626      7628      7626      7634      7628      7631      7628      7630
      7631      7633      7631      7637      7637      7634      7634      7636
      7637      7639      7640      7637      7641      7642      7646      7647
      7648      7649      7651      7652      7654      7655      7657      7658
      7641      7646      7641      7643      7641      7644      7641      7645
      7646      7648      7646      7654      7648      7651      7648      7650
      7651      7653      7651      7657      7657      7654      7654      7656
      7657      7659      7660      7657      7661      7662      7666      7667
      7668      7669      7671      7672      7674      7675      7677      7678
      7661      7666      7661      7663      7661      7664      7661      7665
      7666      7668      7666      7674      7668      7671      7668      7670
      7671      7673      7671      7677      7677      7674      7674      7676
      7677      7679      7680      7677      7681      7682      7686      7687
      7688      7689      7691      7692      7694      7695      7697      7698
      7681      7686      7681      7683      7681      7684      7681      7685
      7686      7688      7686      7694      7688      7691      7688      7690
      7691      7693      7691      7697      7697      7694      7694      7696
      7697      7699      7700      7697      7701      7702      7706      7707
      7708      7709      7711      7712      7714      7715      7717      7718
      7701      7706      7701      7703      7701      7704      7701      7705
      7706      7708      7706      7714      7708      7711      7708      7710
      7711      7713      7711      7717      7717      7714      7714      7716
      7717      7719      7720      7717      7721      7722      7726      7727
      7728      7729      7731      7732      7734      7735      7737      7738
      7721      7726      7721      7723      7721      7724      7721      7725
      7726      7728      7726      7734      7728      7731      7728      7730
      7731      7733      7731      7737      7737      7734      7734      7736
      7737      7739      7740      7737      7741      7742      7746      7747
      7748      7749      7751      7752      7754      7755      7757      7758
      7741      7746      7741      7743      7741      7744      7741      7745
      7746      7748      7746      7754      7748      7751      7748      7750
      7751      7753      7751      7757      7757      7754      7754      7756
      7757      7759      7760      7757      7761      7762      7766      7767
      7768      7769      7771      7772      7774      7775      7777      7778
      7761      7766      7761      7763      7761      7764      7761      7765
      7766      7768      7766      7774      7768      7771      7768      7770
      7771      7773      7771      7777      7777      7774      7774      7776
      7777      7779      7780      7777      7781      7782      7786      7787
      7788      7789      7791      7792      7794      7795      7797      7798
      7781      7786      7781      7783      7781      7784      7781      7785
      7786      7788      7786      7794      7788      7791      7788      7790
      7791      7793      7791      7797      7797      7794      7794      7796
      7797      7799      7800      7797      7801      7802      7806      7807
      7808      7809      7811      7812      7814      7815      7817      7818
      7801      7806      7801      7803      7801      7804      7801      7805
      7806      7808      7806      7814      7808      7811      7808      7810
      7811      7813      7811      7817      7817      7814      7814      7816
      7817      7819      7820      7817      7821      7822      7826      7827
      7828      7829      7831      7832      7834      7835      7837      7838
      7821      7826      7821      7823      7821      7824      7821      7825
      7826      7828      7826      7834      7828      7831      7828      7830
      7831      7833      7831      7837      7837      7834      7834      7836
      7837      7839      7840      7837      7841      7842      7846      7847
      7848      7849      7851      7852      7854      7855      7857      7858
      7841      7846      7841      7843      7841      7844      7841      7845
      7846      7848      7846      7854      7848      7851      7848      7850
      7851      7853      7851      7857      7857      7854      7854      7856
      7857      7859      7860      7857      7861      7862      7866      7867
      7868      7869      7871      7872      7874      7875      7877      7878
      7861      7866      7861      7863      7861      7864      7861      7865
      7866      7868      7866      7874      7868      7871      7868      7870
      7871      7873      7871      7877      7877      7874      7874      7876
      7877      7879      7880      7877      7881      7882      7886      7887
      7888      7889      7891      7892      7894      7895      7897      7898
      7881      7886      7881      7883      7881      7884      7881      7885
      7886      7888      7886      7894      7888      7891      7888      7890
      7891      7893      7891      7897      7897      7894      7894      7896
      7897      7899      7900      7897      7901      7902      7906      7907
      7908      7909      7911      7912      7914      7915      7917      7918
      7901      7906      7901      7903      7901      7904      7901      7905
      7906      7908      7906      7914      7908      7911      7908      7910
      7911      7913      7911      7917      7917      7914      7914      7916
      7917      7919      7920      7917      7921      7922      7926      7927
      7928      7929      7931      7932      7934      7935      7937      7938
      7921      7926      7921      7923      7921      7924      7921      7925
      7926      7928      7926      7934      7928      7931      7928      7930
      7931      7933      7931      7937      7937      7934      7934      7936
      7937      7939      7940      7937      7941      7942      7946      7947
      7948      7949      7951      7952      7954      7955      7957      7958
      7941      7946      7941      7943      7941      7944      7941      7945
      7946      7948      7946      7954      7948      7951      7948      7950
      7951      7953      7951      7957      7957      7954      7954      7956
      7957      7959      7960      7957      7961      7962      7966      7967
      7968      7969      7971      7972      7974      7975      7977      7978
      7961      7966      7961      7963      7961      7964      7961      7965
      7966      7968      7966      7974      7968      7971      7968      7970
      7971      7973      7971      7977      7977      7974      7974      7976
      7977      7979      7980      7977      7981      7982      7986      7987
      7988      7989      7991      7992      7994      7995      7997      7998
      7981      7986      7981      7983      7981      7984      7981      7985
      7986      7988      7986      7994      7988      7991      7988      7990
      7991      7993      7991      7997      7997      7994      7994      7996
      7997      7999      8000      7997      8001      8002      8006      8007
      8008      8009      8011      8012      8014      8015      8017      8018
      8001      8006      8001      8003      8001      8004      8001      8005
      8006      8008      8006      8014      8008      8011      8008      8010
      8011      8013      8011      8017      8017      8014      8014      8016
      8017      8019      8020      8017      8021      8022      8026      8027
      8028      8029      8031      8032      8034      8035      8037      8038
      8021      8026      8021      8023      8021      8024      8021      8025
      8026      8028      8026      8034      8028      8031      8028      8030
      8031      8033      8031      8037      8037      8034      8034      8036
      8037      8039      8040      8037      8041      8042      8046      8047
      8048      8049      8051      8052      8054      8055      8057      8058
      8041      8046      8041      8043      8041      8044      8041      8045
      8046      8048      8046      8054      8048      8051      8048      8050
      8051      8053      8051      8057      8057      8054      8054      8056
      8057      8059      8060      8057      8061      8062      8066      8067
      8068      8069      8071      8072      8074      8075      8077      8078
      8061      8066      8061      8063      8061      8064      8061      8065
      8066      8068      8066      8074      8068      8071      8068      8070
      8071      8073      8071      8077      8077      8074      8074      8076
      8077      8079      8080      8077      8081      8082      8086      8087
      8088      8089      8091      8092      8094      8095      8097      8098
      8081      8086      8081      8083      8081      8084      8081      8085
      8086      8088      8086      8094      8088      8091      8088      8090
      8091      8093      8091      8097      8097      8094      8094      8096
      8097      8099      8100      8097      8101      8102      8106      8107
      8108      8109      8111      8112      8114      8115      8117      8118
      8101      8106      8101      8103      8101      8104      8101      8105
      8106      8108      8106      8114      8108      8111      8108      8110
      8111      8113      8111      8117      8117      8114      8114      8116
      8117      8119      8120      8117      8121      8122      8126      8127
      8128      8129      8131      8132      8134      8135      8137      8138
      8121      8126      8121      8123      8121      8124      8121      8125
      8126      8128      8126      8134      8128      8131      8128      8130
      8131      8133      8131      8137      8137      8134      8134      8136
      8137      8139      8140      8137      8141      8142      8146      8147
      8148      8149      8151      8152      8154      8155      8157      8158
      8141      8146      8141      8143      8141      8144      8141      8145
      8146      8148      8146      8154      8148      8151      8148      8150
      8151      8153      8151      8157      8157      8154      8154      8156
      8157      8159      8160      8157      8161      8162      8166      8167
      8168      8169      8171      8172      8174      8175      8177      8178
      8161      8166      8161      8163      8161      8164      8161      8165
      8166      8168      8166      8174      8168      8171      8168      8170
      8171      8173      8171      8177      8177      8174      8174      8176
      8177      8179      8180      8177      8181      8182      8186      8187
      8188      8189      8191      8192      8194      8195      8197      8198
      8181      8186      8181      8183      8181      8184      8181      8185
      8186      8188      8186      8194      8188      8191      8188      8190
      8191      8193      8191      8197      8197      8194      8194      8196
      8197      8199      8200      8197      8201      8202      8206      8207
      8208      8209      8211      8212      8214      8215      8217      8218
      8201      8206      8201      8203      8201      8204      8201      8205
      8206      8208      8206      8214      8208      8211      8208      8210
      8211      8213      8211      8217      8217      8214      8214      8216
      8217      8219      8220      8217      8221      8222      8226      8227
      8228      8229      8231      8232      8234      8235      8237      8238
      8221      8226      8221      8223      8221      8224      8221      8225
      8226      8228      8226      8234      8228      8231      8228      8230
      8231      8233      8231      8237      8237      8234      8234      8236
      8237      8239      8240      8237      8241      8242      8246      8247
      8248      8249      8251      8252      8254      8255      8257      8258
      8241      8246      8241      8243      8241      8244      8241      8245
      8246      8248      8246      8254      8248      8251      8248      8250
      8251      8253      8251      8257      8257      8254      8254      8256
      8257      8259      8260      8257      8261      8262      8266      8267
      8268      8269      8271      8272      8274      8275      8277      8278
      8261      8266      8261      8263      8261      8264      8261      8265
      8266      8268      8266      8274      8268      8271      8268      8270
      8271      8273      8271      8277      8277      8274      8274      8276
      8277      8279      8280      8277      8281      8282      8286      8287
      8288      8289      8291      8292      8294      8295      8297      8298
      8281      8286      8281      8283      8281      8284      8281      8285
      8286      8288      8286      8294      8288      8291      8288      8290
      8291      8293      8291      8297      8297      8294      8294      8296
      8297      8299      8300      8297      8301      8302      8306      8307
      8308      8309      8311      8312      8314      8315      8317      8318
      8301      8306      8301      8303      8301      8304      8301      8305
      8306      8308      8306      8314      8308      8311      8308      8310
      8311      8313      8311      8317      8317      8314      8314      8316
      8317      8319      8320      8317      8321      8322      8326      8327
      8328      8329      8331      8332      8334      8335      8337      8338
      8321      8326      8321      8323      8321      8324      8321      8325
      8326      8328      8326      8334      8328      8331      8328      8330
      8331      8333      8331      8337      8337      8334      8334      8336
      8337      8339      8340      8337      8341      8342      8346      8347
      8348      8349      8351      8352      8354      8355      8357      8358
      8341      8346      8341      8343      8341      8344      8341      8345
      8346      8348      8346      8354      8348      8351      8348      8350
      8351      8353      8351      8357      8357      8354      8354      8356
      8357      8359      8360      8357      8361      8362      8366      8367
      8368      8369      8371      8372      8374      8375      8377      8378
      8361      8366      8361      8363      8361      8364      8361      8365
      8366      8368      8366      8374      8368      8371      8368      8370
      8371      8373      8371      8377      8377      8374      8374      8376
      8377      8379      8380      8377      8381      8382      8386      8387
      8388      8389      8391      8392      8394      8395      8397      8398
      8381      8386      8381      8383      8381      8384      8381      8385
      8386      8388      8386      8394      8388      8391      8388      8390
      8391      8393      8391      8397      8397      8394      8394      8396
      8397      8399      8400      8397      8401      8402      8406      8407
      8408      8409      8411      8412      8414      8415      8417      8418
      8401      8406      8401      8403      8401      8404      8401      8405
      8406      8408      8406      8414      8408      8411      8408      8410
      8411      8413      8411      8417      8417      8414      8414      8416
      8417      8419      8420      8417      8421      8422      8426      8427
      8428      8429      8431      8432      8434      8435      8437      8438
      8421      8426      8421      8423      8421      8424      8421      8425
      8426      8428      8426      8434      8428      8431      8428      8430
      8431      8433      8431      8437      8437      8434      8434      8436
      8437      8439      8440      8437      8441      8442      8446      8447
      8448      8449      8451      8452      8454      8455      8457      8458
      8441      8446      8441      8443      8441      8444      8441      8445
      8446      8448      8446      8454      8448      8451      8448      8450
      8451      8453      8451      8457      8457      8454      8454      8456
      8457      8459      8460      8457      8461      8462      8466      8467
      8468      8469      8471      8472      8474      8475      8477      8478
      8461      8466      8461      8463      8461      8464      8461      8465
      8466      8468      8466      8474      8468      8471      8468      8470
      8471      8473      8471      8477      8477      8474      8474      8476
      8477      8479      8480      8477      8481      8482      8486      8487
      8488      8489      8491      8492      8494      8495      8497      8498
      8481      8486      8481      8483      8481      8484      8481      8485
      8486      8488      8486      8494      8488      8491      8488      8490
      8491      8493      8491      8497      8497      8494      8494      8496
      8497      8499      8500      8497      8501      8502      8506      8507
      8508      8509      8511      8512      8514      8515      8517      8518
      8501      8506      8501      8503      8501      8504      8501      8505
      8506      8508      8506      8514      8508      8511      8508      8510
      8511      8513      8511      8517      8517      8514      8514      8516
      8517      8519      8520      8517      8521      8522      8526      8527
      8528      8529      8531      8532      8534      8535      8537      8538
      8521      8526      8521      8523      8521      8524      8521      8525
      8526      8528      8526      8534      8528      8531      8528      8530
      8531      8533      8531      8537      8537      8534      8534      8536
      8537      8539      8540      8537      8541      8542      8546      8547
      8548      8549      8551      8552      8554      8555      8557      8558
      8541      8546      8541      8543      8541      8544      8541      8545
      8546      8548      8546      8554      8548      8551      8548      8550
      8551      8553      8551      8557      8557      8554      8554      8556
      8557      8559      8560      8557      8561      8562      8566      8567
      8568      8569      8571      8572      8574      8575      8577      8578
      8561      8566      8561      8563      8561      8564      8561      8565
      8566      8568      8566      8574      8568      8571      8568      8570
      8571      8573      8571      8577      8577      8574      8574      8576
      8577      8579      8580      8577      8581      8582      8586      8587
      8588      8589      8591      8592      8594      8595      8597      8598
      8581      8586      8581      8583      8581      8584      8581      8585
      8586      8588      8586      8594      8588      8591      8588      8590
      8591      8593      8591      8597      8597      8594      8594      8596
      8597      8599      8600      8597      8601      8602      8606      8607
      8608      8609      8611      8612      8614      8615      8617      8618
      8601      8606      8601      8603      8601      8604      8601      8605
      8606      8608      8606      8614      8608      8611      8608      8610
      8611      8613      8611      8617      8617      8614      8614      8616
      8617      8619      8620      8617      8621      8622      8626      8627
      8628      8629      8631      8632      8634      8635      8637      8638
      8621      8626      8621      8623      8621      8624      8621      8625
      8626      8628      8626      8634      8628      8631      8628      8630
      8631      8633      8631      8637      8637      8634      8634      8636
      8637      8639      8640      8637      8641      8642      8646      8647
      8648      8649      8651      8652      8654      8655      8657      8658
      8641      8646      8641      8643      8641      8644      8641      8645
      8646      8648      8646      8654      8648      8651      8648      8650
      8651      8653      8651      8657      8657      8654      8654      8656
      8657      8659      8660      8657      8661      8662      8666      8667
      8668      8669      8671      8672      8674      8675      8677      8678
      8661      8666      8661      8663      8661      8664      8661      8665
      8666      8668      8666      8674      8668      8671      8668      8670
      8671      8673      8671      8677      8677      8674      8674      8676
      8677      8679      8680      8677      8681      8682      8686      8687
      8688      8689      8691      8692      8694      8695      8697      8698
      8681      8686      8681      8683      8681      8684      8681      8685
      8686      8688      8686      8694      8688      8691      8688      8690
      8691      8693      8691      8697      8697      8694      8694      8696
      8697      8699      8700      8697      8701      8702      8706      8707
      8708      8709      8711      8712      8714      8715      8717      8718
      8701      8706      8701      8703      8701      8704      8701      8705
      8706      8708      8706      8714      8708      8711      8708      8710
      8711      8713      8711      8717      8717      8714      8714      8716
      8717      8719      8720      8717      8721      8722      8726      8727
      8728      8729      8731      8732      8734      8735      8737      8738
      8721      8726      8721      8723      8721      8724      8721      8725
      8726      8728      8726      8734      8728      8731      8728      8730
      8731      8733      8731      8737      8737      8734      8734      8736
      8737      8739      8740      8737      8741      8742      8746      8747
      8748      8749      8751      8752      8754      8755      8757      8758
      8741      8746      8741      8743      8741      8744      8741      8745
      8746      8748      8746      8754      8748      8751      8748      8750
      8751      8753      8751      8757      8757      8754      8754      8756
      8757      8759      8760      8757      8761      8762      8766      8767
      8768      8769      8771      8772      8774      8775      8777      8778
      8761      8766      8761      8763      8761      8764      8761      8765
      8766      8768      8766      8774      8768      8771      8768      8770
      8771      8773      8771      8777      8777      8774      8774      8776
      8777      8779      8780      8777      8781      8782      8786      8787
      8788      8789      8791      8792      8794      8795      8797      8798
      8781      8786      8781      8783      8781      8784      8781      8785
      8786      8788      8786      8794      8788      8791      8788      8790
      8791      8793      8791      8797      8797      8794      8794      8796
      8797      8799      8800      8797      8801      8802      8806      8807
      8808      8809      8811      8812      8814      8815      8817      8818
      8801      8806      8801      8803      8801      8804      8801      8805
      8806      8808      8806      8814      8808      8811      8808      8810
      8811      8813      8811      8817      8817      8814      8814      8816
      8817      8819      8820      8817      8821      8822      8826      8827
      8828      8829      8831      8832      8834      8835      8837      8838
      8821      8826      8821      8823      8821      8824      8821      8825
      8826      8828      8826      8834      8828      8831      8828      8830
      8831      8833      8831      8837      8837      8834      8834      8836
      8837      8839      8840      8837      8841      8842      8846      8847
      8848      8849      8851      8852      8854      8855      8857      8858
      8841      8846      8841      8843      8841      8844      8841      8845
      8846      8848      8846      8854      8848      8851      8848      8850
      8851      8853      8851      8857      8857      8854      8854      8856
      8857      8859      8860      8857      8861      8862      8866      8867
      8868      8869      8871      8872      8874      8875      8877      8878
      8861      8866      8861      8863      8861      8864      8861      8865
      8866      8868      8866      8874      8868      8871      8868      8870
      8871      8873      8871      8877      8877      8874      8874      8876
      8877      8879      8880      8877      8881      8882      8886      8887
      8888      8889      8891      8892      8894      8895      8897      8898
      8881      8886      8881      8883      8881      8884      8881      8885
      8886      8888      8886      8894      8888      8891      8888      8890
      8891      8893      8891      8897      8897      8894      8894      8896
      8897      8899      8900      8897      8901      8902      8906      8907
      8908      8909      8911      8912      8914      8915      8917      8918
      8901      8906      8901      8903      8901      8904      8901      8905
      8906      8908      8906      8914      8908      8911      8908      8910
      8911      8913      8911      8917      8917      8914      8914      8916
      8917      8919      8920      8917      8921      8922      8926      8927
      8928      8929      8931      8932      8934      8935      8937      8938
      8921      8926      8921      8923      8921      8924      8921      8925
      8926      8928      8926      8934      8928      8931      8928      8930
      8931      8933      8931      8937      8937      8934      8934      8936
      8937      8939      8940      8937      8941      8942      8946      8947
      8948      8949      8951      8952      8954      8955      8957      8958
      8941      8946      8941      8943      8941      8944      8941      8945
      8946      8948      8946      8954      8948      8951      8948      8950
      8951      8953      8951      8957      8957      8954      8954      8956
      8957      8959      8960      8957      8961      8962      8966      8967
      8968      8969      8971      8972      8974      8975      8977      8978
      8961      8966      8961      8963      8961      8964      8961      8965
      8966      8968      8966      8974      8968      8971      8968      8970
      8971      8973      8971      8977      8977      8974      8974      8976
      8977      8979      8980      8977      8981      8982      8986      8987
      8988      8989      8991      8992      8994      8995      8997      8998
      8981      8986      8981      8983      8981      8984      8981      8985
      8986      8988      8986      8994      8988      8991      8988      8990
      8991      8993      8991      8997      8997      8994      8994      8996
      8997      8999      9000      8997      9001      9002      9006      9007
      9008      9009      9011      9012      9014      9015      9017      9018
      9001      9006      9001      9003      9001      9004      9001      9005
      9006      9008      9006      9014      9008      9011      9008      9010
      9011      9013      9011      9017      9017      9014      9014      9016
      9017      9019      9020      9017      9021      9022      9026      9027
      9028      9029      9031      9032      9034      9035      9037      9038
      9021      9026      9021      9023      9021      9024      9021      9025
      9026      9028      9026      9034      9028      9031      9028      9030
      9031      9033      9031      9037      9037      9034      9034      9036
      9037      9039      9040      9037      9041      9042      9046      9047
      9048      9049      9051      9052      9054      9055      9057      9058
      9041      9046      9041      9043      9041      9044      9041      9045
      9046      9048      9046      9054      9048      9051      9048      9050
      9051      9053      9051      9057      9057      9054      9054      9056
      9057      9059      9060      9057      9061      9062      9066      9067
      9068      9069      9071      9072      9074      9075      9077      9078
      9061      9066      9061      9063      9061      9064      9061      9065
      9066      9068      9066      9074      9068      9071      9068      9070
      9071      9073      9071      9077      9077      9074      9074      9076
      9077      9079      9080      9077      9081      9082      9086      9087
      9088      9089      9091      9092      9094      9095      9097      9098
      9081      9086      9081      9083      9081      9084      9081      9085
      9086      9088      9086      9094      9088      9091      9088      9090
      9091      9093      9091      9097      9097      9094      9094      9096
      9097      9099      9100      9097      9101      9102      9106      9107
      9108      9109      9111      9112      9114      9115      9117      9118
      9101      9106      9101      9103      9101      9104      9101      9105
      9106      9108      9106      9114      9108      9111      9108      9110
      9111      9113      9111      9117      9117      9114      9114      9116
      9117      9119      9120      9117      9121      9122      9126      9127
      9128      9129      9131      9132      9134      9135      9137      9138
      9121      9126      9121      9123      9121      9124      9121      9125
      9126      9128      9126      9134      9128      9131      9128      9130
      9131      9133      9131      9137      9137      9134      9134      9136
      9137      9139      9140      9137      9141      9142      9146      9147
      9148      9149      9151      9152      9154      9155      9157      9158
      9141      9146      9141      9143      9141      9144      9141      9145
      9146      9148      9146      9154      9148      9151      9148      9150
      9151      9153      9151      9157      9157      9154      9154      9156
      9157      9159      9160      9157      9161      9162      9166      9167
      9168      9169      9171      9172      9174      9175      9177      9178
      9161      9166      9161      9163      9161      9164      9161      9165
      9166      9168      9166      9174      9168      9171      9168      9170
      9171      9173      9171      9177      9177      9174      9174      9176
      9177      9179      9180      9177      9181      9182      9186      9187
      9188      9189      9191      9192      9194      9195      9197      9198
      9181      9186      9181      9183      9181      9184      9181      9185
      9186      9188      9186      9194      9188      9191      9188      9190
      9191      9193      9191      9197      9197      9194      9194      9196
      9197      9199      9200      9197      9201      9202      9206      9207
      9208      9209      9211      9212      9214      9215      9217      9218
      9201      9206      9201      9203      9201      9204      9201      9205
      9206      9208      9206      9214      9208      9211      9208      9210
      9211      9213      9211      9217      9217      9214      9214      9216
      9217      9219      9220      9217      9221      9222      9226      9227
      9228      9229      9231      9232      9234      9235      9237      9238
      9221      9226      9221      9223      9221      9224      9221      9225
      9226      9228      9226      9234      9228      9231      9228      9230
      9231      9233      9231      9237      9237      9234      9234      9236
      9237      9239      9240      9237      9241      9242      9246      9247
      9248      9249      9251      9252      9254      9255      9257      9258
      9241      9246      9241      9243      9241      9244      9241      9245
      9246      9248      9246      9254      9248      9251      9248      9250
      9251      9253      9251      9257      9257      9254      9254      9256
      9257      9259      9260      9257      9261      9262      9266      9267
      9268      9269      9271      9272      9274      9275      9277      9278
      9261      9266      9261      9263      9261      9264      9261      9265
      9266      9268      9266      9274      9268      9271      9268      9270
      9271      9273      9271      9277      9277      9274      9274      9276
      9277      9279      9280      9277      9281      9282      9286      9287
      9288      9289      9291      9292      9294      9295      9297      9298
      9281      9286      9281      9283      9281      9284      9281      9285
      9286      9288      9286      9294      9288      9291      9288      9290
      9291      9293      9291      9297      9297      9294      9294      9296
      9297      9299      9300      9297      9301      9302      9306      9307
      9308      9309      9311      9312      9314      9315      9317      9318
      9301      9306      9301      9303      9301      9304      9301      9305
      9306      9308      9306      9314      9308      9311      9308      9310
      9311      9313      9311      9317      9317      9314      9314      9316
      9317      9319      9320      9317      9321      9322      9326      9327
      9328      9329      9331      9332      9334      9335      9337      9338
      9321      9326      9321      9323      9321      9324      9321      9325
      9326      9328      9326      9334      9328      9331      9328      9330
      9331      9333      9331      9337      9337      9334      9334      9336
      9337      9339      9340      9337      9341      9342      9346      9347
      9348      9349      9351      9352      9354      9355      9357      9358
      9341      9346      9341      9343      9341      9344      9341      9345
      9346      9348      9346      9354      9348      9351      9348      9350
      9351      9353      9351      9357      9357      9354      9354      9356
      9357      9359      9360      9357      9361      9362      9366      9367
      9368      9369      9371      9372      9374      9375      9377      9378
      9361      9366      9361      9363      9361      9364      9361      9365
      9366      9368      9366      9374      9368      9371      9368      9370
      9371      9373      9371      9377      9377      9374      9374      9376
      9377      9379      9380      9377      9381      9382      9386      9387
      9388      9389      9391      9392      9394      9395      9397      9398
      9381      9386      9381      9383      9381      9384      9381      9385
      9386      9388      9386      9394      9388      9391      9388      9390
      9391      9393      9391      9397      9397      9394      9394      9396
      9397      9399      9400      9397      9401      9402      9406      9407
      9408      9409      9411      9412      9414      9415      9417      9418
      9401      9406      9401      9403      9401      9404      9401      9405
      9406      9408      9406      9414      9408      9411      9408      9410
      9411      9413      9411      9417      9417      9414      9414      9416
      9417      9419      9420      9417      9421      9422      9426      9427
      9428      9429      9431      9432      9434      9435      9437      9438
      9421      9426      9421      9423      9421      9424      9421      9425
      9426      9428      9426      9434      9428      9431      9428      9430
      9431      9433      9431      9437      9437      9434      9434      9436
      9437      9439      9440      9437      9441      9442      9446      9447
      9448      9449      9451      9452      9454      9455      9457      9458
      9441      9446      9441      9443      9441      9444      9441      9445
      9446      9448      9446      9454      9448      9451      9448      9450
      9451      9453      9451      9457      9457      9454      9454      9456
      9457      9459      9460      9457      9461      9462      9466      9467
      9468      9469      9471      9472      9474      9475      9477      9478
      9461      9466      9461      9463      9461      9464      9461      9465
      9466      9468      9466      9474      9468      9471      9468      9470
      9471      9473      9471      9477      9477      9474      9474      9476
      9477      9479      9480      9477      9481      9482      9486      9487
      9488      9489      9491      9492      9494      9495      9497      9498
      9481      9486      9481      9483      9481      9484      9481      9485
      9486      9488      9486      9494      9488      9491      9488      9490
      9491      9493      9491      9497      9497      9494      9494      9496
      9497      9499      9500      9497      9501      9502      9506      9507
      9508      9509      9511      9512      9514      9515      9517      9518
      9501      9506      9501      9503      9501      9504      9501      9505
      9506      9508      9506      9514      9508      9511      9508      9510
      9511      9513      9511      9517      9517      9514      9514      9516
      9517      9519      9520      9517      9521      9522      9526      9527
      9528      9529      9531      9532      9534      9535      9537      9538
      9521      9526      9521      9523      9521      9524      9521      9525
      9526      9528      9526      9534      9528      9531      9528      9530
      9531      9533      9531      9537      9537      9534      9534      9536
      9537      9539      9540      9537      9541      9542      9546      9547
      9548      9549      9551      9552      9554      9555      9557      9558
      9541      9546      9541      9543      9541      9544      9541      9545
      9546      9548      9546      9554      9548      9551      9548      9550
      9551      9553      9551      9557      9557      9554      9554      9556
      9557      9559      9560      9557      9561      9562      9566      9567
      9568      9569      9571      9572      9574      9575      9577      9578
      9561      9566      9561      9563      9561      9564      9561      9565
      9566      9568      9566      9574      9568      9571      9568      9570
      9571      9573      9571      9577      9577      9574      9574      9576
      9577      9579      9580      9577      9581      9582      9586      9587
      9588      9589      9591      9592      9594      9595      9597      9598
      9581      9586      9581      9583      9581      9584      9581      9585
      9586      9588      9586      9594      9588      9591      9588      9590
      9591      9593      9591      9597      9597      9594      9594      9596
      9597      9599      9600      9597      9601      9602      9606      9607
      9608      9609      9611      9612      9614      9615      9617      9618
      9601      9606      9601      9603      9601      9604      9601      9605
      9606      9608      9606      9614      9608      9611      9608      9610
      9611      9613      9611      9617      9617      9614      9614      9616
      9617      9619      9620      9617      9621      9622      9626      9627
      9628      9629      9631      9632      9634      9635      9637      9638
      9621      9626      9621      9623      9621      9624      9621      9625
      9626      9628      9626      9634      9628      9631      9628      9630
      9631      9633      9631      9637      9637      9634      9634      9636
      9637      9639      9640      9637      9641      9642      9646      9647
      9648      9649      9651      9652      9654      9655      9657      9658
      9641      9646      9641      9643      9641      9644      9641      9645
      9646      9648      9646      9654      9648      9651      9648      9650
      9651      9653      9651      9657      9657      9654      9654      9656
      9657      9659      9660      9657      9661      9662      9666      9667
      9668      9669      9671      9672      9674      9675      9677      9678
      9661      9666      9661      9663      9661      9664      9661      9665
      9666      9668      9666      9674      9668      9671      9668      9670
      9671      9673      9671      9677      9677      9674      9674      9676
      9677      9679      9680      9677      9681      9682      9686      9687
      9688      9689      9691      9692      9694      9695      9697      9698
      9681      9686      9681      9683      9681      9684      9681      9685
      9686      9688      9686      9694      9688      9691      9688      9690
      9691      9693      9691      9697      9697      9694      9694      9696
      9697      9699      9700      9697      9701      9702      9706      9707
      9708      9709      9711      9712      9714      9715      9717      9718
      9701      9706      9701      9703      9701      9704      9701      9705
      9706      9708      9706      9714      9708      9711      9708      9710
      9711      9713      9711      9717      9717      9714      9714      9716
      9717      9719      9720      9717      9721      9722      9726      9727
      9728      9729      9731      9732      9734      9735      9737      9738
      9721      9726      9721      9723      9721      9724      9721      9725
      9726      9728      9726      9734      9728      9731      9728      9730
      9731      9733      9731      9737      9737      9734      9734      9736
      9737      9739      9740      9737      9741      9742      9746      9747
      9748      9749      9751      9752      9754      9755      9757      9758
      9741      9746      9741      9743      9741      9744      9741      9745
      9746      9748      9746      9754      9748      9751      9748      9750
      9751      9753      9751      9757      9757      9754      9754      9756
      9757      9759      9760      9757      9761      9762      9766      9767
      9768      9769      9771      9772      9774      9775      9777      9778
      9761      9766      9761      9763      9761      9764      9761      9765
      9766      9768      9766      9774      9768      9771      9768      9770
      9771      9773      9771      9777      9777      9774      9774      9776
      9777      9779      9780      9777      9781      9782      9786      9787
      9788      9789      9791      9792      9794      9795      9797      9798
      9781      9786      9781      9783      9781      9784      9781      9785
      9786      9788      9786      9794      9788      9791      9788      9790
      9791      9793      9791      9797      9797      9794      9794      9796
      9797      9799      9800      9797      9801      9802      9806      9807
      9808      9809      9811      9812      9814      9815      9817      9818
      9801      9806      9801      9803      9801      9804      9801      9805
      9806      9808      9806      9814      9808      9811      9808      9810
      9811      9813      9811      9817      9817      9814      9814      9816
      9817      9819      9820      9817      9821      9822      9826      9827
      9828      9829      9831      9832      9834      9835      9837      9838
      9821      9826      9821      9823      9821      9824      9821      9825
      9826      9828      9826      9834      9828      9831      9828      9830
      9831      9833      9831      9837      9837      9834      9834      9836
      9837      9839      9840      9837      9841      9842      9846      9847
      9848      9849      9851      9852      9854      9855      9857      9858
      9841      9846      9841      9843      9841      9844      9841      9845
      9846      9848      9846      9854      9848      9851      9848      9850
      9851      9853      9851      9857      9857      9854      9854      9856
      9857      9859      9860      9857      9861      9862      9866      9867
      9868      9869      9871      9872      9874      9875      9877      9878
      9861      9866      9861      9863      9861      9864      9861      9865
      9866      9868      9866      9874      9868      9871      9868      9870
      9871      9873      9871      9877      9877      9874      9874      9876
      9877      9879      9880      9877      9881      9882      9886      9887
      9888      9889      9891      9892      9894      9895      9897      9898
      9881      9886      9881      9883      9881      9884      9881      9885
      9886      9888      9886      9894      9888      9891      9888      9890
      9891      9893      9891      9897      9897      9894      9894      9896
      9897      9899      9900      9897      9901      9902      9906      9907
      9908      9909      9911      9912      9914      9915      9917      9918
      9901      9906      9901      9903      9901      9904      9901      9905
      9906      9908      9906      9914      9908      9911      9908      9910
      9911      9913      9911      9917      9917      9914      9914      9916
      9917      9919      9920      9917      9921      9922      9926      9927
      9928      9929      9931      9932      9934      9935      9937      9938
      9921      9926      9921      9923      9921      9924      9921      9925
      9926      9928      9926      9934      9928      9931      9928      9930
      9931      9933      9931      9937      9937      9934      9934      9936
      9937      9939      9940      9937      9941      9942      9946      9947
      9948      9949      9951      9952      9954      9955      9957      9958
      9941      9946      9941      9943      9941      9944      9941      9945
      9946      9948      9946      9954      9948      9951      9948      9950
      9951      9953      9951      9957      9957      9954      9954      9956
      9957      9959      9960      9957      9961      9962      9966      9967
      9968      9969      9971      9972      9974      9975      9977      9978
      9961      9966      9961      9963      9961      9964      9961      9965
      9966      9968      9966      9974      9968      9971      9968      9970
      9971      9973      9971      9977      9977      9974      9974      9976
      9977      9979      9980      9977      9981      9982      9986      9987
      9988      9989      9991      9992      9994      9995      9997      9998
      9981      9986      9981      9983      9981      9984      9981      9985
      9986      9988      9986      9994      9988      9991      9988      9990
      9991      9993      9991      9997      9997      9994      9994      9996
      9997      9999     10000      9997     10001     10002     10006     10007
     10008     10009     10011     10012     10014     10015     10017     10018
     10001     10006     10001     10003     10001     10004     10001     10005
     10006     10008     10006     10014     10008     10011     10008     10010
     10011     10013     10011     10017     10017     10014     10014     10016
     10017     10019     10020     10017     10021     10022     10026     10027
     10028     10029     10031     10032     10034     10035     10037     10038
     10021     10026     10021     10023     10021     10024     10021     10025
     10026     10028     10026     10034     10028     10031     10028     10030
     10031     10033     10031     10037     10037     10034     10034     10036
     10037     10039     10040     10037     10041     10042     10046     10047
     10048     10049     10051     10052     10054     10055     10057     10058
     10041     10046     10041     10043     10041     10044     10041     10045
     10046     10048     10046     10054     10048     10051     10048     10050
     10051     10053     10051     10057     10057     10054     10054     10056
     10057     10059     10060     10057     10061     10062     10066     10067
     10068     10069     10071     10072     10074     10075     10077     10078
     10061     10066     10061     10063     10061     10064     10061     10065
     10066     10068     10066     10074     10068     10071     10068     10070
     10071     10073     10071     10077     10077     10074     10074     10076
     10077     10079     10080     10077     10081     10082     10086     10087
     10088     10089     10091     10092     10094     10095     10097     10098
     10081     10086     10081     10083     10081     10084     10081     10085
     10086     10088     10086     10094     10088     10091     10088     10090
     10091     10093     10091     10097     10097     10094     10094     10096
     10097     10099     10100     10097     10101     10102     10106     10107
     10108     10109     10111     10112     10114     10115     10117     10118
     10101     10106     10101     10103     10101     10104     10101     10105
     10106     10108     10106     10114     10108     10111     10108     10110
     10111     10113     10111     10117     10117     10114     10114     10116
     10117     10119     10120     10117     10121     10122     10126     10127
     10128     10129     10131     10132     10134     10135     10137     10138
     10121     10126     10121     10123     10121     10124     10121     10125
     10126     10128     10126     10134     10128     10131     10128     10130
     10131     10133     10131     10137     10137     10134     10134     10136
     10137     10139     10140     10137     10141     10142     10146     10147
     10148     10149     10151     10152     10154     10155     10157     10158
     10141     10146     10141     10143     10141     10144     10141     10145
     10146     10148     10146     10154     10148     10151     10148     10150
     10151     10153     10151     10157     10157     10154     10154     10156
     10157     10159     10160     10157     10161     10162     10166     10167
     10168     10169     10171     10172     10174     10175     10177     10178
     10161     10166     10161     10163     10161     10164     10161     10165
     10166     10168     10166     10174     10168     10171     10168     10170
     10171     10173     10171     10177     10177     10174     10174     10176
     10177     10179     10180     10177     10181     10182     10186     10187
     10188     10189     10191     10192     10194     10195     10197     10198
     10181     10186     10181     10183     10181     10184     10181     10185
     10186     10188     10186     10194     10188     10191     10188     10190
     10191     10193     10191     10197     10197     10194     10194     10196
     10197     10199     10200     10197     10201     10202     10206     10207
     10208     10209     10211     10212     10214     10215     10217     10218
     10201     10206     10201     10203     10201     10204     10201     10205
     10206     10208     10206     10214     10208     10211     10208     10210
     10211     10213     10211     10217     10217     10214     10214     10216
     10217     10219     10220     10217     10221     10222     10226     10227
     10228     10229     10231     10232     10234     10235     10237     10238
     10221     10226     10221     10223     10221     10224     10221     10225
     10226     10228     10226     10234     10228     10231     10228     10230
     10231     10233     10231     10237     10237     10234     10234     10236
     10237     10239     10240     10237     10241     10242     10246     10247
     10248     10249     10251     10252     10254     10255     10257     10258
     10241     10246     10241     10243     10241     10244     10241     10245
     10246     10248     10246     10254     10248     10251     10248     10250
     10251     10253     10251     10257     10257     10254     10254     10256
     10257     10259     10260     10257     10261     10262     10266     10267
     10268     10269     10271     10272     10274     10275     10277     10278
     10261     10266     10261     10263     10261     10264     10261     10265
     10266     10268     10266     10274     10268     10271     10268     10270
     10271     10273     10271     10277     10277     10274     10274     10276
     10277     10279     10280     10277     10281     10282     10286     10287
     10288     10289     10291     10292     10294     10295     10297     10298
     10281     10286     10281     10283     10281     10284     10281     10285
     10286     10288     10286     10294     10288     10291     10288     10290
     10291     10293     10291     10297     10297     10294     10294     10296
     10297     10299     10300     10297     10301     10302     10306     10307
     10308     10309     10311     10312     10314     10315     10317     10318
     10301     10306     10301     10303     10301     10304     10301     10305
     10306     10308     10306     10314     10308     10311     10308     10310
     10311     10313     10311     10317     10317     10314     10314     10316
     10317     10319     10320     10317     10321     10322     10326     10327
     10328     10329     10331     10332     10334     10335     10337     10338
     10321     10326     10321     10323     10321     10324     10321     10325
     10326     10328     10326     10334     10328     10331     10328     10330
     10331     10333     10331     10337     10337     10334     10334     10336
     10337     10339     10340     10337     10341     10342     10346     10347
     10348     10349     10351     10352     10354     10355     10357     10358
     10341     10346     10341     10343     10341     10344     10341     10345
     10346     10348     10346     10354     10348     10351     10348     10350
     10351     10353     10351     10357     10357     10354     10354     10356
     10357     10359     10360     10357     10361     10362     10366     10367
     10368     10369     10371     10372     10374     10375     10377     10378
     10361     10366     10361     10363     10361     10364     10361     10365
     10366     10368     10366     10374     10368     10371     10368     10370
     10371     10373     10371     10377     10377     10374     10374     10376
     10377     10379     10380     10377     10381     10382     10386     10387
     10388     10389     10391     10392     10394     10395     10397     10398
     10381     10386     10381     10383     10381     10384     10381     10385
     10386     10388     10386     10394     10388     10391     10388     10390
     10391     10393     10391     10397     10397     10394     10394     10396
     10397     10399     10400     10397     10401     10402     10406     10407
     10408     10409     10411     10412     10414     10415     10417     10418
     10401     10406     10401     10403     10401     10404     10401     10405
     10406     10408     10406     10414     10408     10411     10408     10410
     10411     10413     10411     10417     10417     10414     10414     10416
     10417     10419     10420     10417     10421     10422     10426     10427
     10428     10429     10431     10432     10434     10435     10437     10438
     10421     10426     10421     10423     10421     10424     10421     10425
     10426     10428     10426     10434     10428     10431     10428     10430
     10431     10433     10431     10437     10437     10434     10434     10436
     10437     10439     10440     10437     10441     10442     10446     10447
     10448     10449     10451     10452     10454     10455     10457     10458
     10441     10446     10441     10443     10441     10444     10441     10445
     10446     10448     10446     10454     10448     10451     10448     10450
     10451     10453     10451     10457     10457     10454     10454     10456
     10457     10459     10460     10457     10461     10462     10466     10467
     10468     10469     10471     10472     10474     10475     10477     10478
     10461     10466     10461     10463     10461     10464     10461     10465
     10466     10468     10466     10474     10468     10471     10468     10470
     10471     10473     10471     10477     10477     10474     10474     10476
     10477     10479     10480     10477     10481     10482     10486     10487
     10488     10489     10491     10492     10494     10495     10497     10498
     10481     10486     10481     10483     10481     10484     10481     10485
     10486     10488     10486     10494     10488     10491     10488     10490
     10491     10493     10491     10497     10497     10494     10494     10496
     10497     10499     10500     10497     10501     10502     10506     10507
     10508     10509     10511     10512     10514     10515     10517     10518
     10501     10506     10501     10503     10501     10504     10501     10505
     10506     10508     10506     10514     10508     10511     10508     10510
     10511     10513     10511     10517     10517     10514     10514     10516
     10517     10519     10520     10517     10521     10522     10526     10527
     10528     10529     10531     10532     10534     10535     10537     10538
     10521     10526     10521     10523     10521     10524     10521     10525
     10526     10528     10526     10534     10528     10531     10528     10530
     10531     10533     10531     10537     10537     10534     10534     10536
     10537     10539     10540     10537     10541     10542     10546     10547
     10548     10549     10551     10552     10554     10555     10557     10558
     10541     10546     10541     10543     10541     10544     10541     10545
     10546     10548     10546     10554     10548     10551     10548     10550
     10551     10553     10551     10557     10557     10554     10554     10556
     10557     10559     10560     10557     10561     10562     10566     10567
     10568     10569     10571     10572     10574     10575     10577     10578
     10561     10566     10561     10563     10561     10564     10561     10565
     10566     10568     10566     10574     10568     10571     10568     10570
     10571     10573     10571     10577     10577     10574     10574     10576
     10577     10579     10580     10577     10581     10582     10586     10587
     10588     10589     10591     10592     10594     10595     10597     10598
     10581     10586     10581     10583     10581     10584     10581     10585
     10586     10588     10586     10594     10588     10591     10588     10590
     10591     10593     10591     10597     10597     10594     10594     10596
     10597     10599     10600     10597     10601     10602     10606     10607
     10608     10609     10611     10612     10614     10615     10617     10618
     10601     10606     10601     10603     10601     10604     10601     10605
     10606     10608     10606     10614     10608     10611     10608     10610
     10611     10613     10611     10617     10617     10614     10614     10616
     10617     10619     10620     10617     10621     10622     10626     10627
     10628     10629     10631     10632     10634     10635     10637     10638
     10621     10626     10621     10623     10621     10624     10621     10625
     10626     10628     10626     10634     10628     10631     10628     10630
     10631     10633     10631     10637     10637     10634     10634     10636
     10637     10639     10640     10637     10641     10642     10646     10647
     10648     10649     10651     10652     10654     10655     10657     10658
     10641     10646     10641     10643     10641     10644     10641     10645
     10646     10648     10646     10654     10648     10651     10648     10650
     10651     10653     10651     10657     10657     10654     10654     10656
     10657     10659     10660     10657     10661     10662     10666     10667
     10668     10669     10671     10672     10674     10675     10677     10678
     10661     10666     10661     10663     10661     10664     10661     10665
     10666     10668     10666     10674     10668     10671     10668     10670
     10671     10673     10671     10677     10677     10674     10674     10676
     10677     10679     10680     10677     10681     10682     10686     10687
     10688     10689     10691     10692     10694     10695     10697     10698
     10681     10686     10681     10683     10681     10684     10681     10685
     10686     10688     10686     10694     10688     10691     10688     10690
     10691     10693     10691     10697     10697     10694     10694     10696
     10697     10699     10700     10697     10701     10702     10706     10707
     10708     10709     10711     10712     10714     10715     10717     10718
     10701     10706     10701     10703     10701     10704     10701     10705
     10706     10708     10706     10714     10708     10711     10708     10710
     10711     10713     10711     10717     10717     10714     10714     10716
     10717     10719     10720     10717     10721     10722     10726     10727
     10728     10729     10731     10732     10734     10735     10737     10738
     10721     10726     10721     10723     10721     10724     10721     10725
     10726     10728     10726     10734     10728     10731     10728     10730
     10731     10733     10731     10737     10737     10734     10734     10736
     10737     10739     10740     10737     10741     10742     10746     10747
     10748     10749     10751     10752     10754     10755     10757     10758
     10741     10746     10741     10743     10741     10744     10741     10745
     10746     10748     10746     10754     10748     10751     10748     10750
     10751     10753     10751     10757     10757     10754     10754     10756
     10757     10759     10760     10757     10761     10762     10766     10767
     10768     10769     10771     10772     10774     10775     10777     10778
     10761     10766     10761     10763     10761     10764     10761     10765
     10766     10768     10766     10774     10768     10771     10768     10770
     10771     10773     10771     10777     10777     10774     10774     10776
     10777     10779     10780     10777     10781     10782     10786     10787
     10788     10789     10791     10792     10794     10795     10797     10798
     10781     10786     10781     10783     10781     10784     10781     10785
     10786     10788     10786     10794     10788     10791     10788     10790
     10791     10793     10791     10797     10797     10794     10794     10796
     10797     10799     10800     10797     10801     10802     10806     10807
     10808     10809     10811     10812     10814     10815     10817     10818
     10801     10806     10801     10803     10801     10804     10801     10805
     10806     10808     10806     10814     10808     10811     10808     10810
     10811     10813     10811     10817     10817     10814     10814     10816
     10817     10819     10820     10817     10821     10822     10826     10827
     10828     10829     10831     10832     10834     10835     10837     10838
     10821     10826     10821     10823     10821     10824     10821     10825
     10826     10828     10826     10834     10828     10831     10828     10830
     10831     10833     10831     10837     10837     10834     10834     10836
     10837     10839     10840     10837     10841     10842     10846     10847
     10848     10849     10851     10852     10854     10855     10857     10858
     10841     10846     10841     10843     10841     10844     10841     10845
     10846     10848     10846     10854     10848     10851     10848     10850
     10851     10853     10851     10857     10857     10854     10854     10856
     10857     10859     10860     10857     10861     10862     10866     10867
     10868     10869     10871     10872     10874     10875     10877     10878
     10861     10866     10861     10863     10861     10864     10861     10865
     10866     10868     10866     10874     10868     10871     10868     10870
     10871     10873     10871     10877     10877     10874     10874     10876
     10877     10879     10880     10877     10881     10882     10886     10887
     10888     10889     10891     10892     10894     10895     10897     10898
     10881     10886     10881     10883     10881     10884     10881     10885
     10886     10888     10886     10894     10888     10891     10888     10890
     10891     10893     10891     10897     10897     10894     10894     10896
     10897     10899     10900     10897     10901     10902     10906     10907
     10908     10909     10911     10912     10914     10915     10917     10918
     10901     10906     10901     10903     10901     10904     10901     10905
     10906     10908     10906     10914     10908     10911     10908     10910
     10911     10913     10911     10917     10917     10914     10914     10916
     10917     10919     10920     10917     10921     10922     10926     10927
     10928     10929     10931     10932     10934     10935     10937     10938
     10921     10926     10921     10923     10921     10924     10921     10925
     10926     10928     10926     10934     10928     10931     10928     10930
     10931     10933     10931     10937     10937     10934     10934     10936
     10937     10939     10940     10937     10941     10942     10946     10947
     10948     10949     10951     10952     10954     10955     10957     10958
     10941     10946     10941     10943     10941     10944     10941     10945
     10946     10948     10946     10954     10948     10951     10948     10950
     10951     10953     10951     10957     10957     10954     10954     10956
     10957     10959     10960     10957     10961     10962     10966     10967
     10968     10969     10971     10972     10974     10975     10977     10978
     10961     10966     10961     10963     10961     10964     10961     10965
     10966     10968     10966     10974     10968     10971     10968     10970
     10971     10973     10971     10977     10977     10974     10974     10976
     10977     10979     10980     10977     10981     10982     10986     10987
     10988     10989     10991     10992     10994     10995     10997     10998
     10981     10986     10981     10983     10981     10984     10981     10985
     10986     10988     10986     10994     10988     10991     10988     10990
     10991     10993     10991     10997     10997     10994     10994     10996
     10997     10999     11000     10997     11001     11002     11006     11007
     11008     11009     11011     11012     11014     11015     11017     11018
     11001     11006     11001     11003     11001     11004     11001     11005
     11006     11008     11006     11014     11008     11011     11008     11010
     11011     11013     11011     11017     11017     11014     11014     11016
     11017     11019     11020     11017     11021     11022     11026     11027
     11028     11029     11031     11032     11034     11035     11037     11038
     11021     11026     11021     11023     11021     11024     11021     11025
     11026     11028     11026     11034     11028     11031     11028     11030
     11031     11033     11031     11037     11037     11034     11034     11036
     11037     11039     11040     11037     11041     11042     11046     11047
     11048     11049     11051     11052     11054     11055     11057     11058
     11041     11046     11041     11043     11041     11044     11041     11045
     11046     11048     11046     11054     11048     11051     11048     11050
     11051     11053     11051     11057     11057     11054     11054     11056
     11057     11059     11060     11057     11061     11062     11066     11067
     11068     11069     11071     11072     11074     11075     11077     11078
     11061     11066     11061     11063     11061     11064     11061     11065
     11066     11068     11066     11074     11068     11071     11068     11070
     11071     11073     11071     11077     11077     11074     11074     11076
     11077     11079     11080     11077     11081     11082     11086     11087
     11088     11089     11091     11092     11094     11095     11097     11098
     11081     11086     11081     11083     11081     11084     11081     11085
     11086     11088     11086     11094     11088     11091     11088     11090
     11091     11093     11091     11097     11097     11094     11094     11096
     11097     11099     11100     11097     11101     11102     11106     11107
     11108     11109     11111     11112     11114     11115     11117     11118
     11101     11106     11101     11103     11101     11104     11101     11105
     11106     11108     11106     11114     11108     11111     11108     11110
     11111     11113     11111     11117     11117     11114     11114     11116
     11117     11119     11120     11117     11121     11122     11126     11127
     11128     11129     11131     11132     11134     11135     11137     11138
     11121     11126     11121     11123     11121     11124     11121     11125
     11126     11128     11126     11134     11128     11131     11128     11130
     11131     11133     11131     11137     11137     11134     11134     11136
     11137     11139     11140     11137     11141     11142     11146     11147
     11148     11149     11151     11152     11154     11155     11157     11158
     11141     11146     11141     11143     11141     11144     11141     11145
     11146     11148     11146     11154     11148     11151     11148     11150
     11151     11153     11151     11157     11157     11154     11154     11156
     11157     11159     11160     11157     11161     11162     11166     11167
     11168     11169     11171     11172     11174     11175     11177     11178
     11161     11166     11161     11163     11161     11164     11161     11165
     11166     11168     11166     11174     11168     11171     11168     11170
     11171     11173     11171     11177     11177     11174     11174     11176
     11177     11179     11180     11177     11181     11182     11186     11187
     11188     11189     11191     11192     11194     11195     11197     11198
     11181     11186     11181     11183     11181     11184     11181     11185
     11186     11188     11186     11194     11188     11191     11188     11190
     11191     11193     11191     11197     11197     11194     11194     11196
     11197     11199     11200     11197     11201     11202     11206     11207
     11208     11209     11211     11212     11214     11215     11217     11218
     11201     11206     11201     11203     11201     11204     11201     11205
     11206     11208     11206     11214     11208     11211     11208     11210
     11211     11213     11211     11217     11217     11214     11214     11216
     11217     11219     11220     11217     11221     11222     11226     11227
     11228     11229     11231     11232     11234     11235     11237     11238
     11221     11226     11221     11223     11221     11224     11221     11225
     11226     11228     11226     11234     11228     11231     11228     11230
     11231     11233     11231     11237     11237     11234     11234     11236
     11237     11239     11240     11237     11241     11242     11246     11247
     11248     11249     11251     11252     11254     11255     11257     11258
     11241     11246     11241     11243     11241     11244     11241     11245
     11246     11248     11246     11254     11248     11251     11248     11250
     11251     11253     11251     11257     11257     11254     11254     11256
     11257     11259     11260     11257     11261     11262     11266     11267
     11268     11269     11271     11272     11274     11275     11277     11278
     11261     11266     11261     11263     11261     11264     11261     11265
     11266     11268     11266     11274     11268     11271     11268     11270
     11271     11273     11271     11277     11277     11274     11274     11276
     11277     11279     11280     11277     11281     11282     11286     11287
     11288     11289     11291     11292     11294     11295     11297     11298
     11281     11286     11281     11283     11281     11284     11281     11285
     11286     11288     11286     11294     11288     11291     11288     11290
     11291     11293     11291     11297     11297     11294     11294     11296
     11297     11299     11300     11297     11301     11302     11306     11307
     11308     11309     11311     11312     11314     11315     11317     11318
     11301     11306     11301     11303     11301     11304     11301     11305
     11306     11308     11306     11314     11308     11311     11308     11310
     11311     11313     11311     11317     11317     11314     11314     11316
     11317     11319     11320     11317     11321     11322     11326     11327
     11328     11329     11331     11332     11334     11335     11337     11338
     11321     11326     11321     11323     11321     11324     11321     11325
     11326     11328     11326     11334     11328     11331     11328     11330
     11331     11333     11331     11337     11337     11334     11334     11336
     11337     11339     11340     11337     11341     11342     11346     11347
     11348     11349     11351     11352     11354     11355     11357     11358
     11341     11346     11341     11343     11341     11344     11341     11345
     11346     11348     11346     11354     11348     11351     11348     11350
     11351     11353     11351     11357     11357     11354     11354     11356
     11357     11359     11360     11357     11361     11362     11366     11367
     11368     11369     11371     11372     11374     11375     11377     11378
     11361     11366     11361     11363     11361     11364     11361     11365
     11366     11368     11366     11374     11368     11371     11368     11370
     11371     11373     11371     11377     11377     11374     11374     11376
     11377     11379     11380     11377     11381     11382     11386     11387
     11388     11389     11391     11392     11394     11395     11397     11398
     11381     11386     11381     11383     11381     11384     11381     11385
     11386     11388     11386     11394     11388     11391     11388     11390
     11391     11393     11391     11397     11397     11394     11394     11396
     11397     11399     11400     11397     11401     11402     11406     11407
     11408     11409     11411     11412     11414     11415     11417     11418
     11401     11406     11401     11403     11401     11404     11401     11405
     11406     11408     11406     11414     11408     11411     11408     11410
     11411     11413     11411     11417     11417     11414     11414     11416
     11417     11419     11420     11417     11421     11422     11426     11427
     11428     11429     11431     11432     11434     11435     11437     11438
     11421     11426     11421     11423     11421     11424     11421     11425
     11426     11428     11426     11434     11428     11431     11428     11430
     11431     11433     11431     11437     11437     11434     11434     11436
     11437     11439     11440     11437     11441     11442     11446     11447
     11448     11449     11451     11452     11454     11455     11457     11458
     11441     11446     11441     11443     11441     11444     11441     11445
     11446     11448     11446     11454     11448     11451     11448     11450
     11451     11453     11451     11457     11457     11454     11454     11456
     11457     11459     11460     11457     11461     11462     11466     11467
     11468     11469     11471     11472     11474     11475     11477     11478
     11461     11466     11461     11463     11461     11464     11461     11465
     11466     11468     11466     11474     11468     11471     11468     11470
     11471     11473     11471     11477     11477     11474     11474     11476
     11477     11479     11480     11477     11481     11482     11486     11487
     11488     11489     11491     11492     11494     11495     11497     11498
     11481     11486     11481     11483     11481     11484     11481     11485
     11486     11488     11486     11494     11488     11491     11488     11490
     11491     11493     11491     11497     11497     11494     11494     11496
     11497     11499     11500     11497     11501     11502     11506     11507
     11508     11509     11511     11512     11514     11515     11517     11518
     11501     11506     11501     11503     11501     11504     11501     11505
     11506     11508     11506     11514     11508     11511     11508     11510
     11511     11513     11511     11517     11517     11514     11514     11516
     11517     11519     11520     11517     11521     11522     11526     11527
     11528     11529     11531     11532     11534     11535     11537     11538
     11521     11526     11521     11523     11521     11524     11521     11525
     11526     11528     11526     11534     11528     11531     11528     11530
     11531     11533     11531     11537     11537     11534     11534     11536
     11537     11539     11540     11537     11541     11542     11546     11547
     11548     11549     11551     11552     11554     11555     11557     11558
     11541     11546     11541     11543     11541     11544     11541     11545
     11546     11548     11546     11554     11548     11551     11548     11550
     11551     11553     11551     11557     11557     11554     11554     11556
     11557     11559     11560     11557     11561     11562     11566     11567
     11568     11569     11571     11572     11574     11575     11577     11578
     11561     11566     11561     11563     11561     11564     11561     11565
     11566     11568     11566     11574     11568     11571     11568     11570
     11571     11573     11571     11577     11577     11574     11574     11576
     11577     11579     11580     11577     11581     11582     11586     11587
     11588     11589     11591     11592     11594     11595     11597     11598
     11581     11586     11581     11583     11581     11584     11581     11585
     11586     11588     11586     11594     11588     11591     11588     11590
     11591     11593     11591     11597     11597     11594     11594     11596
     11597     11599     11600     11597     11601     11602     11606     11607
     11608     11609     11611     11612     11614     11615     11617     11618
     11601     11606     11601     11603     11601     11604     11601     11605
     11606     11608     11606     11614     11608     11611     11608     11610
     11611     11613     11611     11617     11617     11614     11614     11616
     11617     11619     11620     11617     11621     11622     11626     11627
     11628     11629     11631     11632     11634     11635     11637     11638
     11621     11626     11621     11623     11621     11624     11621     11625
     11626     11628     11626     11634     11628     11631     11628     11630
     11631     11633     11631     11637     11637     11634     11634     11636
     11637     11639     11640     11637     11641     11642     11646     11647
     11648     11649     11651     11652     11654     11655     11657     11658
     11641     11646     11641     11643     11641     11644     11641     11645
     11646     11648     11646     11654     11648     11651     11648     11650
     11651     11653     11651     11657     11657     11654     11654     11656
     11657     11659     11660     11657     11661     11662     11666     11667
     11668     11669     11671     11672     11674     11675     11677     11678
     11661     11666     11661     11663     11661     11664     11661     11665
     11666     11668     11666     11674     11668     11671     11668     11670
     11671     11673     11671     11677     11677     11674     11674     11676
     11677     11679     11680     11677     11681     11682     11686     11687
     11688     11689     11691     11692     11694     11695     11697     11698
     11681     11686     11681     11683     11681     11684     11681     11685
     11686     11688     11686     11694     11688     11691     11688     11690
     11691     11693     11691     11697     11697     11694     11694     11696
     11697     11699     11700     11697     11701     11702     11706     11707
     11708     11709     11711     11712     11714     11715     11717     11718
     11701     11706     11701     11703     11701     11704     11701     11705
     11706     11708     11706     11714     11708     11711     11708     11710
     11711     11713     11711     11717     11717     11714     11714     11716
     11717     11719     11720     11717     11721     11722     11726     11727
     11728     11729     11731     11732     11734     11735     11737     11738
     11721     11726     11721     11723     11721     11724     11721     11725
     11726     11728     11726     11734     11728     11731     11728     11730
     11731     11733     11731     11737     11737     11734     11734     11736
     11737     11739     11740     11737     11741     11742     11746     11747
     11748     11749     11751     11752     11754     11755     11757     11758
     11741     11746     11741     11743     11741     11744     11741     11745
     11746     11748     11746     11754     11748     11751     11748     11750
     11751     11753     11751     11757     11757     11754     11754     11756
     11757     11759     11760     11757     11761     11762     11766     11767
     11768     11769     11771     11772     11774     11775     11777     11778
     11761     11766     11761     11763     11761     11764     11761     11765
     11766     11768     11766     11774     11768     11771     11768     11770
     11771     11773     11771     11777     11777     11774     11774     11776
     11777     11779     11780     11777     11781     11782     11786     11787
     11788     11789     11791     11792     11794     11795     11797     11798
     11781     11786     11781     11783     11781     11784     11781     11785
     11786     11788     11786     11794     11788     11791     11788     11790
     11791     11793     11791     11797     11797     11794     11794     11796
     11797     11799     11800     11797     11801     11802     11806     11807
     11808     11809     11811     11812     11814     11815     11817     11818
     11801     11806     11801     11803     11801     11804     11801     11805
     11806     11808     11806     11814     11808     11811     11808     11810
     11811     11813     11811     11817     11817     11814     11814     11816
     11817     11819     11820     11817     11821     11822     11826     11827
     11828     11829     11831     11832     11834     11835     11837     11838
     11821     11826     11821     11823     11821     11824     11821     11825
     11826     11828     11826     11834     11828     11831     11828     11830
     11831     11833     11831     11837     11837     11834     11834     11836
     11837     11839     11840     11837     11841     11842     11846     11847
     11848     11849     11851     11852     11854     11855     11857     11858
     11841     11846     11841     11843     11841     11844     11841     11845
     11846     11848     11846     11854     11848     11851     11848     11850
     11851     11853     11851     11857     11857     11854     11854     11856
     11857     11859     11860     11857     11861     11862     11866     11867
     11868     11869     11871     11872     11874     11875     11877     11878
     11861     11866     11861     11863     11861     11864     11861     11865
     11866     11868     11866     11874     11868     11871     11868     11870
     11871     11873     11871     11877     11877     11874     11874     11876
     11877     11879     11880     11877     11881     11882     11886     11887
     11888     11889     11891     11892     11894     11895     11897     11898
     11881     11886     11881     11883     11881     11884     11881     11885
     11886     11888     11886     11894     11888     11891     11888     11890
     11891     11893     11891     11897     11897     11894     11894     11896
     11897     11899     11900     11897     11901     11902     11906     11907
     11908     11909     11911     11912     11914     11915     11917     11918
     11901     11906     11901     11903     11901     11904     11901     11905
     11906     11908     11906     11914     11908     11911     11908     11910
     11911     11913     11911     11917     11917     11914     11914     11916
     11917     11919     11920     11917     11921     11922     11926     11927
     11928     11929     11931     11932     11934     11935     11937     11938
     11921     11926     11921     11923     11921     11924     11921     11925
     11926     11928     11926     11934     11928     11931     11928     11930
     11931     11933     11931     11937     11937     11934     11934     11936
     11937     11939     11940     11937     11941     11942     11946     11947
     11948     11949     11951     11952     11954     11955     11957     11958
     11941     11946     11941     11943     11941     11944     11941     11945
     11946     11948     11946     11954     11948     11951     11948     11950
     11951     11953     11951     11957     11957     11954     11954     11956
     11957     11959     11960     11957     11961     11962     11966     11967
     11968     11969     11971     11972     11974     11975     11977     11978
     11961     11966     11961     11963     11961     11964     11961     11965
     11966     11968     11966     11974     11968     11971     11968     11970
     11971     11973     11971     11977     11977     11974     11974     11976
     11977     11979     11980     11977     11981     11982     11986     11987
     11988     11989     11991     11992     11994     11995     11997     11998
     11981     11986     11981     11983     11981     11984     11981     11985
     11986     11988     11986     11994     11988     11991     11988     11990
     11991     11993     11991     11997     11997     11994     11994     11996
     11997     11999     12000     11997     12001     12002     12006     12007
     12008     12009     12011     12012     12014     12015     12017     12018
     12001     12006     12001     12003     12001     12004     12001     12005
     12006     12008     12006     12014     12008     12011     12008     12010
     12011     12013     12011     12017     12017     12014     12014     12016
     12017     12019     12020     12017     12021     12022     12026     12027
     12028     12029     12031     12032     12034     12035     12037     12038
     12021     12026     12021     12023     12021     12024     12021     12025
     12026     12028     12026     12034     12028     12031     12028     12030
     12031     12033     12031     12037     12037     12034     12034     12036
     12037     12039     12040     12037     12041     12042     12046     12047
     12048     12049     12051     12052     12054     12055     12057     12058
     12041     12046     12041     12043     12041     12044     12041     12045
     12046     12048     12046     12054     12048     12051     12048     12050
     12051     12053     12051     12057     12057     12054     12054     12056
     12057     12059     12060     12057     12061     12062     12066     12067
     12068     12069     12071     12072     12074     12075     12077     12078
     12061     12066     12061     12063     12061     12064     12061     12065
     12066     12068     12066     12074     12068     12071     12068     12070
     12071     12073     12071     12077     12077     12074     12074     12076
     12077     12079     12080     12077     12081     12082     12086     12087
     12088     12089     12091     12092     12094     12095     12097     12098
     12081     12086     12081     12083     12081     12084     12081     12085
     12086     12088     12086     12094     12088     12091     12088     12090
     12091     12093     12091     12097     12097     12094     12094     12096
     12097     12099     12100     12097     12101     12102     12106     12107
     12108     12109     12111     12112     12114     12115     12117     12118
     12101     12106     12101     12103     12101     12104     12101     12105
     12106     12108     12106     12114     12108     12111     12108     12110
     12111     12113     12111     12117     12117     12114     12114     12116
     12117     12119     12120     12117     12121     12122     12126     12127
     12128     12129     12131     12132     12134     12135     12137     12138
     12121     12126     12121     12123     12121     12124     12121     12125
     12126     12128     12126     12134     12128     12131     12128     12130
     12131     12133     12131     12137     12137     12134     12134     12136
     12137     12139     12140     12137     12141     12142     12146     12147
     12148     12149     12151     12152     12154     12155     12157     12158
     12141     12146     12141     12143     12141     12144     12141     12145
     12146     12148     12146     12154     12148     12151     12148     12150
     12151     12153     12151     12157     12157     12154     12154     12156
     12157     12159     12160     12157     12161     12162     12166     12167
     12168     12169     12171     12172     12174     12175     12177     12178
     12161     12166     12161     12163     12161     12164     12161     12165
     12166     12168     12166     12174     12168     12171     12168     12170
     12171     12173     12171     12177     12177     12174     12174     12176
     12177     12179     12180     12177     12181     12182     12186     12187
     12188     12189     12191     12192     12194     12195     12197     12198
     12181     12186     12181     12183     12181     12184     12181     12185
     12186     12188     12186     12194     12188     12191     12188     12190
     12191     12193     12191     12197     12197     12194     12194     12196
     12197     12199     12200     12197     12201     12202     12206     12207
     12208     12209     12211     12212     12214     12215     12217     12218
     12201     12206     12201     12203     12201     12204     12201     12205
     12206     12208     12206     12214     12208     12211     12208     12210
     12211     12213     12211     12217     12217     12214     12214     12216
     12217     12219     12220     12217     12221     12222     12226     12227
     12228     12229     12231     12232     12234     12235     12237     12238
     12221     12226     12221     12223     12221     12224     12221     12225
     12226     12228     12226     12234     12228     12231     12228     12230
     12231     12233     12231     12237     12237     12234     12234     12236
     12237     12239     12240     12237     12241     12242     12246     12247
     12248     12249     12251     12252     12254     12255     12257     12258
     12241     12246     12241     12243     12241     12244     12241     12245
     12246     12248     12246     12254     12248     12251     12248     12250
     12251     12253     12251     12257     12257     12254     12254     12256
     12257     12259     12260     12257     12261     12262     12266     12267
     12268     12269     12271     12272     12274     12275     12277     12278
     12261     12266     12261     12263     12261     12264     12261     12265
     12266     12268     12266     12274     12268     12271     12268     12270
     12271     12273     12271     12277     12277     12274     12274     12276
     12277     12279     12280     12277     12281     12282     12286     12287
     12288     12289     12291     12292     12294     12295     12297     12298
     12281     12286     12281     12283     12281     12284     12281     12285
     12286     12288     12286     12294     12288     12291     12288     12290
     12291     12293     12291     12297     12297     12294     12294     12296
     12297     12299     12300     12297     12301     12302     12306     12307
     12308     12309     12311     12312     12314     12315     12317     12318
     12301     12306     12301     12303     12301     12304     12301     12305
     12306     12308     12306     12314     12308     12311     12308     12310
     12311     12313     12311     12317     12317     12314     12314     12316
     12317     12319     12320     12317     12321     12322     12326     12327
     12328     12329     12331     12332     12334     12335     12337     12338
     12321     12326     12321     12323     12321     12324     12321     12325
     12326     12328     12326     12334     12328     12331     12328     12330
     12331     12333     12331     12337     12337     12334     12334     12336
     12337     12339     12340     12337     12341     12342     12346     12347
     12348     12349     12351     12352     12354     12355     12357     12358
     12341     12346     12341     12343     12341     12344     12341     12345
     12346     12348     12346     12354     12348     12351     12348     12350
     12351     12353     12351     12357     12357     12354     12354     12356
     12357     12359     12360     12357     12361     12362     12366     12367
     12368     12369     12371     12372     12374     12375     12377     12378
     12361     12366     12361     12363     12361     12364     12361     12365
     12366     12368     12366     12374     12368     12371     12368     12370
     12371     12373     12371     12377     12377     12374     12374     12376
     12377     12379     12380     12377     12381     12382     12386     12387
     12388     12389     12391     12392     12394     12395     12397     12398
     12381     12386     12381     12383     12381     12384     12381     12385
     12386     12388     12386     12394     12388     12391     12388     12390
     12391     12393     12391     12397     12397     12394     12394     12396
     12397     12399     12400     12397     12401     12402     12406     12407
     12408     12409     12411     12412     12414     12415     12417     12418
     12401     12406     12401     12403     12401     12404     12401     12405
     12406     12408     12406     12414     12408     12411     12408     12410
     12411     12413     12411     12417     12417     12414     12414     12416
     12417     12419     12420     12417     12421     12422     12426     12427
     12428     12429     12431     12432     12434     12435     12437     12438
     12421     12426     12421     12423     12421     12424     12421     12425
     12426     12428     12426     12434     12428     12431     12428     12430
     12431     12433     12431     12437     12437     12434     12434     12436
     12437     12439     12440     12437     12441     12442     12446     12447
     12448     12449     12451     12452     12454     12455     12457     12458
     12441     12446     12441     12443     12441     12444     12441     12445
     12446     12448     12446     12454     12448     12451     12448     12450
     12451     12453     12451     12457     12457     12454     12454     12456
     12457     12459     12460     12457     12461     12462     12466     12467
     12468     12469     12471     12472     12474     12475     12477     12478
     12461     12466     12461     12463     12461     12464     12461     12465
     12466     12468     12466     12474     12468     12471     12468     12470
     12471     12473     12471     12477     12477     12474     12474     12476
     12477     12479     12480     12477     12481     12482     12486     12487
     12488     12489     12491     12492     12494     12495     12497     12498
     12481     12486     12481     12483     12481     12484     12481     12485
     12486     12488     12486     12494     12488     12491     12488     12490
     12491     12493     12491     12497     12497     12494     12494     12496
     12497     12499     12500     12497     12501     12502     12506     12507
     12508     12509     12511     12512     12514     12515     12517     12518
     12501     12506     12501     12503     12501     12504     12501     12505
     12506     12508     12506     12514     12508     12511     12508     12510
     12511     12513     12511     12517     12517     12514     12514     12516
     12517     12519     12520     12517     12521     12522     12526     12527
     12528     12529     12531     12532     12534     12535     12537     12538
     12521     12526     12521     12523     12521     12524     12521     12525
     12526     12528     12526     12534     12528     12531     12528     12530
     12531     12533     12531     12537     12537     12534     12534     12536
     12537     12539     12540     12537     12541     12542     12543     12544
     12548     12549     12550     12551     12541     12548     12541     12550
     12543     12541     12543     12545     12543     12546     12543     12547
     12550     12552     12548     12553     12548     12554     12550     12555
     12550     12556     12557     12558     12559     12560     12564     12565
     12566     12567     12557     12564     12557     12566     12559     12557
     12559     12561     12559     12562     12559     12563     12566     12568
     12564     12569     12564     12570     12566     12571     12566     12572
     12573     12574     12575     12576     12580     12581     12582     12583
     12573     12580     12573     12582     12575     12573     12575     12577
     12575     12578     12575     12579     12582     12584     12580     12585
     12580     12586     12582     12587     12582     12588     12589     12590
     12591     12592     12596     12597     12598     12599     12589     12596
     12589     12598     12591     12589     12591     12593     12591     12594
     12591     12595     12598     12600     12596     12601     12596     12602
     12598     12603     12598     12604     12605     12606     12607     12608
     12612     12613     12614     12615     12605     12612     12605     12614
     12607     12605     12607     12609     12607     12610     12607     12611
     12614     12616     12612     12617     12612     12618     12614     12619
     12614     12620     12621     12622     12623     12624     12628     12629
     12630     12631     12621     12628     12621     12630     12623     12621
     12623     12625     12623     12626     12623     12627     12630     12632
     12628     12633     12628     12634     12630     12635     12630     12636
     12637     12638     12639     12640     12644     12645     12646     12647
     12637     12644     12637     12646     12639     12637     12639     12641
     12639     12642     12639     12643     12646     12648     12644     12649
     12644     12650     12646     12651     12646     12652     12653     12654
     12655     12656     12660     12661     12662     12663     12653     12660
     12653     12662     12655     12653     12655     12657     12655     12658
     12655     12659     12662     12664     12660     12665     12660     12666
     12662     12667     12662     12668     12669     12670     12671     12672
     12676     12677     12678     12679     12669     12676     12669     12678
     12671     12669     12671     12673     12671     12674     12671     12675
     12678     12680     12676     12681     12676     12682     12678     12683
     12678     12684     12685     12686     12687     12688     12692     12693
     12694     12695     12685     12692     12685     12694     12687     12685
     12687     12689     12687     12690     12687     12691     12694     12696
     12692     12697     12692     12698     12694     12699     12694     12700
     12701     12702     12703     12704     12708     12709     12710     12711
     12701     12708     12701     12710     12703     12701     12703     12705
     12703     12706     12703     12707     12710     12712     12708     12713
     12708     12714     12710     12715     12710     12716     12717     12718
     12719     12720     12724     12725     12726     12727     12717     12724
     12717     12726     12719     12717     12719     12721     12719     12722
     12719     12723     12726     12728     12724     12729     12724     12730
     12726     12731     12726     12732     12733     12734     12735     12736
     12740     12741     12742     12743     12733     12740     12733     12742
     12735     12733     12735     12737     12735     12738     12735     12739
     12742     12744     12740     12745     12740     12746     12742     12747
     12742     12748     12749     12750     12751     12752     12756     12757
     12758     12759     12749     12756     12749     12758     12751     12749
     12751     12753     12751     12754     12751     12755     12758     12760
     12756     12761     12756     12762     12758     12763     12758     12764
     12765     12766     12767     12768     12772     12773     12774     12775
     12765     12772     12765     12774     12767     12765     12767     12769
     12767     12770     12767     12771     12774     12776     12772     12777
     12772     12778     12774     12779     12774     12780     12781     12782
     12783     12784     12788     12789     12790     12791     12781     12788
     12781     12790     12783     12781     12783     12785     12783     12786
     12783     12787     12790     12792     12788     12793     12788     12794
     12790     12795     12790     12796     12797     12798     12799     12800
     12804     12805     12806     12807     12797     12804     12797     12806
     12799     12797     12799     12801     12799     12802     12799     12803
     12806     12808     12804     12809     12804     12810     12806     12811
     12806     12812     12813     12814     12815     12816     12820     12821
     12822     12823     12813     12820     12813     12822     12815     12813
     12815     12817     12815     12818     12815     12819     12822     12824
     12820     12825     12820     12826     12822     12827     12822     12828
     12829     12830     12831     12832     12836     12837     12838     12839
     12829     12836     12829     12838     12831     12829     12831     12833
     12831     12834     12831     12835     12838     12840     12836     12841
     12836     12842     12838     12843     12838     12844     12845     12846
     12847     12848     12852     12853     12854     12855     12845     12852
     12845     12854     12847     12845     12847     12849     12847     12850
     12847     12851     12854     12856     12852     12857     12852     12858
     12854     12859     12854     12860     12861     12862     12863     12864
     12868     12869     12870     12871     12861     12868     12861     12870
     12863     12861     12863     12865     12863     12866     12863     12867
     12870     12872     12868     12873     12868     12874     12870     12875
     12870     12876     12877     12878     12879     12880     12884     12885
     12886     12887     12877     12884     12877     12886     12879     12877
     12879     12881     12879     12882     12879     12883     12886     12888
     12884     12889     12884     12890     12886     12891     12886     12892
     12893     12894     12895     12896     12900     12901     12902     12903
     12893     12900     12893     12902     12895     12893     12895     12897
     12895     12898     12895     12899     12902     12904     12900     12905
     12900     12906     12902     12907     12902     12908     12909     12910
     12911     12912     12916     12917     12918     12919     12909     12916
     12909     12918     12911     12909     12911     12913     12911     12914
     12911     12915     12918     12920     12916     12921     12916     12922
     12918     12923     12918     12924     12925     12926     12927     12928
     12932     12933     12934     12935     12925     12932     12925     12934
     12927     12925     12927     12929     12927     12930     12927     12931
     12934     12936     12932     12937     12932     12938     12934     12939
     12934     12940     12941     12942     12943     12944     12948     12949
     12950     12951     12941     12948     12941     12950     12943     12941
     12943     12945     12943     12946     12943     12947     12950     12952
     12948     12953     12948     12954     12950     12955     12950     12956
     12957     12958     12959     12960     12964     12965     12966     12967
     12957     12964     12957     12966     12959     12957     12959     12961
     12959     12962     12959     12963     12966     12968     12964     12969
     12964     12970     12966     12971     12966     12972     12973     12974
     12975     12976     12980     12981     12982     12983     12973     12980
     12973     12982     12975     12973     12975     12977     12975     12978
     12975     12979     12982     12984     12980     12985     12980     12986
     12982     12987     12982     12988     12989     12990     12991     12992
     12996     12997     12998     12999     12989     12996     12989     12998
     12991     12989     12991     12993     12991     12994     12991     12995
     12998     13000     12996     13001     12996     13002     12998     13003
     12998     13004     13005     13006     13007     13008     13012     13013
     13014     13015     13005     13012     13005     13014     13007     13005
     13007     13009     13007     13010     13007     13011     13014     13016
     13012     13017     13012     13018     13014     13019     13014     13020
     13021     13022     13023     13024     13028     13029     13030     13031
     13021     13028     13021     13030     13023     13021     13023     13025
     13023     13026     13023     13027     13030     13032     13028     13033
     13028     13034     13030     13035     13030     13036     13037     13038
     13039     13040     13044     13045     13046     13047     13037     13044
     13037     13046     13039     13037     13039     13041     13039     13042
     13039     13043     13046     13048     13044     13049     13044     13050
     13046     13051     13046     13052     13053     13054     13055     13056
     13060     13061     13062     13063     13053     13060     13053     13062
     13055     13053     13055     13057     13055     13058     13055     13059
     13062     13064     13060     13065     13060     13066     13062     13067
     13062     13068     13069     13070     13071     13072     13076     13077
     13078     13079     13069     13076     13069     13078     13071     13069
     13071     13073     13071     13074     13071     13075     13078     13080
     13076     13081     13076     13082     13078     13083     13078     13084
     13085     13086     13087     13088     13092     13093     13094     13095
     13085     13092     13085     13094     13087     13085     13087     13089
     13087     13090     13087     13091     13094     13096     13092     13097
     13092     13098     13094     13099     13094     13100     13101     13102
     13103     13104     13108     13109     13110     13111     13101     13108
     13101     13110     13103     13101     13103     13105     13103     13106
     13103     13107     13110     13112     13108     13113     13108     13114
     13110     13115     13110     13116     13117     13118     13119     13120
     13124     13125     13126     13127     13117     13124     13117     13126
     13119     13117     13119     13121     13119     13122     13119     13123
     13126     13128     13124     13129     13124     13130     13126     13131
     13126     13132     13133     13134     13135     13136     13140     13141
     13142     13143     13133     13140     13133     13142     13135     13133
     13135     13137     13135     13138     13135     13139     13142     13144
     13140     13145     13140     13146     13142     13147     13142     13148
     13149     13150     13151     13152     13156     13157     13158     13159
     13149     13156     13149     13158     13151     13149     13151     13153
     13151     13154     13151     13155     13158     13160     13156     13161
     13156     13162     13158     13163     13158     13164     13165     13166
     13167     13168     13172     13173     13174     13175     13165     13172
     13165     13174     13167     13165     13167     13169     13167     13170
     13167     13171     13174     13176     13172     13177     13172     13178
     13174     13179     13174     13180     13181     13182     13183     13184
     13188     13189     13190     13191     13181     13188     13181     13190
     13183     13181     13183     13185     13183     13186     13183     13187
     13190     13192     13188     13193     13188     13194     13190     13195
     13190     13196     13197     13198     13199     13200     13204     13205
     13206     13207     13197     13204     13197     13206     13199     13197
     13199     13201     13199     13202     13199     13203     13206     13208
     13204     13209     13204     13210     13206     13211     13206     13212
     13213     13214     13215     13216     13220     13221     13222     13223
     13213     13220     13213     13222     13215     13213     13215     13217
     13215     13218     13215     13219     13222     13224     13220     13225
     13220     13226     13222     13227     13222     13228     13229     13230
     13231     13232     13236     13237     13238     13239     13229     13236
     13229     13238     13231     13229     13231     13233     13231     13234
     13231     13235     13238     13240     13236     13241     13236     13242
     13238     13243     13238     13244     13245     13246     13247     13248
     13252     13253     13254     13255     13245     13252     13245     13254
     13247     13245     13247     13249     13247     13250     13247     13251
     13254     13256     13252     13257     13252     13258     13254     13259
     13254     13260     13261     13262     13263     13264     13268     13269
     13270     13271     13261     13268     13261     13270     13263     13261
     13263     13265     13263     13266     13263     13267     13270     13272
     13268     13273     13268     13274     13270     13275     13270     13276
     13277     13278     13279     13280     13284     13285     13286     13287
     13277     13284     13277     13286     13279     13277     13279     13281
     13279     13282     13279     13283     13286     13288     13284     13289
     13284     13290     13286     13291     13286     13292     13293     13294
     13295     13296     13300     13301     13302     13303     13293     13300
     13293     13302     13295     13293     13295     13297     13295     13298
     13295     13299     13302     13304     13300     13305     13300     13306
     13302     13307     13302     13308     13309     13310     13311     13312
     13316     13317     13318     13319     13309     13316     13309     13318
     13311     13309     13311     13313     13311     13314     13311     13315
     13318     13320     13316     13321     13316     13322     13318     13323
     13318     13324     13325     13326     13327     13328     13332     13333
     13334     13335     13325     13332     13325     13334     13327     13325
     13327     13329     13327     13330     13327     13331     13334     13336
     13332     13337     13332     13338     13334     13339     13334     13340
     13341     13342     13343     13344     13348     13349     13350     13351
     13341     13348     13341     13350     13343     13341     13343     13345
     13343     13346     13343     13347     13350     13352     13348     13353
     13348     13354     13350     13355     13350     13356     13357     13358
     13359     13360     13364     13365     13366     13367     13357     13364
     13357     13366     13359     13357     13359     13361     13359     13362
     13359     13363     13366     13368     13364     13369     13364     13370
     13366     13371     13366     13372     13373     13374     13375     13376
     13380     13381     13382     13383     13373     13380     13373     13382
     13375     13373     13375     13377     13375     13378     13375     13379
     13382     13384     13380     13385     13380     13386     13382     13387
     13382     13388     13389     13390     13391     13392     13396     13397
     13398     13399     13389     13396     13389     13398     13391     13389
     13391     13393     13391     13394     13391     13395     13398     13400
     13396     13401     13396     13402     13398     13403     13398     13404
     13405     13406     13407     13408     13412     13413     13414     13415
     13405     13412     13405     13414     13407     13405     13407     13409
     13407     13410     13407     13411     13414     13416     13412     13417
     13412     13418     13414     13419     13414     13420     13421     13422
     13423     13424     13428     13429     13430     13431     13421     13428
     13421     13430     13423     13421     13423     13425     13423     13426
     13423     13427     13430     13432     13428     13433     13428     13434
     13430     13435     13430     13436     13437     13438     13439     13440
     13444     13445     13446     13447     13437     13444     13437     13446
     13439     13437     13439     13441     13439     13442     13439     13443
     13446     13448     13444     13449     13444     13450     13446     13451
     13446     13452     13453     13454     13455     13456     13460     13461
     13462     13463     13453     13460     13453     13462     13455     13453
     13455     13457     13455     13458     13455     13459     13462     13464
     13460     13465     13460     13466     13462     13467     13462     13468
     13469     13470     13471     13472     13476     13477     13478     13479
     13469     13476     13469     13478     13471     13469     13471     13473
     13471     13474     13471     13475     13478     13480     13476     13481
     13476     13482     13478     13483     13478     13484     13485     13486
     13487     13488     13492     13493     13494     13495     13485     13492
     13485     13494     13487     13485     13487     13489     13487     13490
     13487     13491     13494     13496     13492     13497     13492     13498
     13494     13499     13494     13500     13501     13502     13503     13504
     13508     13509     13510     13511     13501     13508     13501     13510
     13503     13501     13503     13505     13503     13506     13503     13507
     13510     13512     13508     13513     13508     13514     13510     13515
     13510     13516     13517     13518     13519     13520     13524     13525
     13526     13527     13517     13524     13517     13526     13519     13517
     13519     13521     13519     13522     13519     13523     13526     13528
     13524     13529     13524     13530     13526     13531     13526     13532
     13533     13534     13535     13536     13540     13541     13542     13543
     13533     13540     13533     13542     13535     13533     13535     13537
     13535     13538     13535     13539     13542     13544     13540     13545
     13540     13546     13542     13547     13542     13548     13549     13550
     13551     13552     13556     13557     13558     13559     13549     13556
     13549     13558     13551     13549     13551     13553     13551     13554
     13551     13555     13558     13560     13556     13561     13556     13562
     13558     13563     13558     13564     13565     13566     13567     13568
     13572     13573     13574     13575     13565     13572     13565     13574
     13567     13565     13567     13569     13567     13570     13567     13571
     13574     13576     13572     13577     13572     13578     13574     13579
     13574     13580     13581     13582     13583     13584     13588     13589
     13590     13591     13581     13588     13581     13590     13583     13581
     13583     13585     13583     13586     13583     13587     13590     13592
     13588     13593     13588     13594     13590     13595     13590     13596
     13597     13598     13599     13600     13604     13605     13606     13607
     13597     13604     13597     13606     13599     13597     13599     13601
     13599     13602     13599     13603     13606     13608     13604     13609
     13604     13610     13606     13611     13606     13612     13613     13614
     13615     13616     13620     13621     13622     13623     13613     13620
     13613     13622     13615     13613     13615     13617     13615     13618
     13615     13619     13622     13624     13620     13625     13620     13626
     13622     13627     13622     13628     13629     13630     13631     13632
     13636     13637     13638     13639     13629     13636     13629     13638
     13631     13629     13631     13633     13631     13634     13631     13635
     13638     13640     13636     13641     13636     13642     13638     13643
     13638     13644     13645     13646     13647     13648     13652     13653
     13654     13655     13645     13652     13645     13654     13647     13645
     13647     13649     13647     13650     13647     13651     13654     13656
     13652     13657     13652     13658     13654     13659     13654     13660
     13661     13662     13663     13664     13668     13669     13670     13671
     13661     13668     13661     13670     13663     13661     13663     13665
     13663     13666     13663     13667     13670     13672     13668     13673
     13668     13674     13670     13675     13670     13676     13677     13678
     13679     13680     13684     13685     13686     13687     13677     13684
     13677     13686     13679     13677     13679     13681     13679     13682
     13679     13683     13686     13688     13684     13689     13684     13690
     13686     13691     13686     13692     13693     13694     13695     13696
     13700     13701     13702     13703     13693     13700     13693     13702
     13695     13693     13695     13697     13695     13698     13695     13699
     13702     13704     13700     13705     13700     13706     13702     13707
     13702     13708     13709     13710     13711     13712     13716     13717
     13718     13719     13709     13716     13709     13718     13711     13709
     13711     13713     13711     13714     13711     13715     13718     13720
     13716     13721     13716     13722     13718     13723     13718     13724
     13725     13726     13727     13728     13732     13733     13734     13735
     13725     13732     13725     13734     13727     13725     13727     13729
     13727     13730     13727     13731     13734     13736     13732     13737
     13732     13738     13734     13739     13734     13740     13741     13742
     13743     13744     13748     13749     13750     13751     13741     13748
     13741     13750     13743     13741     13743     13745     13743     13746
     13743     13747     13750     13752     13748     13753     13748     13754
     13750     13755     13750     13756     13757     13758     13759     13760
     13764     13765     13766     13767     13757     13764     13757     13766
     13759     13757     13759     13761     13759     13762     13759     13763
     13766     13768     13764     13769     13764     13770     13766     13771
     13766     13772     13773     13774     13775     13776     13780     13781
     13782     13783     13773     13780     13773     13782     13775     13773
     13775     13777     13775     13778     13775     13779     13782     13784
     13780     13785     13780     13786     13782     13787     13782     13788
     13789     13790     13791     13792     13796     13797     13798     13799
     13789     13796     13789     13798     13791     13789     13791     13793
     13791     13794     13791     13795     13798     13800     13796     13801
     13796     13802     13798     13803     13798     13804     13805     13806
     13807     13808     13812     13813     13814     13815     13805     13812
     13805     13814     13807     13805     13807     13809     13807     13810
     13807     13811     13814     13816     13812     13817     13812     13818
     13814     13819     13814     13820     13821     13822     13823     13824
     13828     13829     13830     13831     13821     13828     13821     13830
     13823     13821     13823     13825     13823     13826     13823     13827
     13830     13832     13828     13833     13828     13834     13830     13835
     13830     13836     13837     13838     13839     13840     13844     13845
     13846     13847     13837     13844     13837     13846     13839     13837
     13839     13841     13839     13842     13839     13843     13846     13848
     13844     13849     13844     13850     13846     13851     13846     13852
     13853     13854     13855     13856     13860     13861     13862     13863
     13853     13860     13853     13862     13855     13853     13855     13857
     13855     13858     13855     13859     13862     13864     13860     13865
     13860     13866     13862     13867     13862     13868     13869     13870
     13871     13872     13876     13877     13878     13879     13869     13876
     13869     13878     13871     13869     13871     13873     13871     13874
     13871     13875     13878     13880     13876     13881     13876     13882
     13878     13883     13878     13884     13885     13886     13887     13888
     13892     13893     13894     13895     13885     13892     13885     13894
     13887     13885     13887     13889     13887     13890     13887     13891
     13894     13896     13892     13897     13892     13898     13894     13899
     13894     13900     13901     13902     13903     13904     13908     13909
     13910     13911     13901     13908     13901     13910     13903     13901
     13903     13905     13903     13906     13903     13907     13910     13912
     13908     13913     13908     13914     13910     13915     13910     13916
     13917     13918     13919     13920     13924     13925     13926     13927
     13917     13924     13917     13926     13919     13917     13919     13921
     13919     13922     13919     13923     13926     13928     13924     13929
     13924     13930     13926     13931     13926     13932     13933     13934
     13935     13936     13940     13941     13942     13943     13933     13940
     13933     13942     13935     13933     13935     13937     13935     13938
     13935     13939     13942     13944     13940     13945     13940     13946
     13942     13947     13942     13948     13949     13950     13951     13952
     13956     13957     13958     13959     13949     13956     13949     13958
     13951     13949     13951     13953     13951     13954     13951     13955
     13958     13960     13956     13961     13956     13962     13958     13963
     13958     13964     13965     13966     13967     13968     13972     13973
     13974     13975     13965     13972     13965     13974     13967     13965
     13967     13969     13967     13970     13967     13971     13974     13976
     13972     13977     13972     13978     13974     13979     13974     13980
     13981     13982     13983     13984     13988     13989     13990     13991
     13981     13988     13981     13990     13983     13981     13983     13985
     13983     13986     13983     13987     13990     13992     13988     13993
     13988     13994     13990     13995     13990     13996     13997     13998
     13999     14000     14004     14005     14006     14007     13997     14004
     13997     14006     13999     13997     13999     14001     13999     14002
     13999     14003     14006     14008     14004     14009     14004     14010
     14006     14011     14006     14012     14013     14014     14015     14016
     14020     14021     14022     14023     14013     14020     14013     14022
     14015     14013     14015     14017     14015     14018     14015     14019
     14022     14024     14020     14025     14020     14026     14022     14027
     14022     14028     14029     14030     14031     14032     14036     14037
     14038     14039     14029     14036     14029     14038     14031     14029
     14031     14033     14031     14034     14031     14035     14038     14040
     14036     14041     14036     14042     14038     14043     14038     14044
     14045     14046     14047     14048     14052     14053     14054     14055
     14045     14052     14045     14054     14047     14045     14047     14049
     14047     14050     14047     14051     14054     14056     14052     14057
     14052     14058     14054     14059     14054     14060     14061     14062
     14063     14064     14068     14069     14070     14071     14061     14068
     14061     14070     14063     14061     14063     14065     14063     14066
     14063     14067     14070     14072     14068     14073     14068     14074
     14070     14075     14070     14076     14077     14078     14079     14080
     14084     14085     14086     14087     14077     14084     14077     14086
     14079     14077     14079     14081     14079     14082     14079     14083
     14086     14088     14084     14089     14084     14090     14086     14091
     14086     14092     14093     14094     14095     14096     14100     14101
     14102     14103     14093     14100     14093     14102     14095     14093
     14095     14097     14095     14098     14095     14099     14102     14104
     14100     14105     14100     14106     14102     14107     14102     14108
     14109     14110     14111     14112     14116     14117     14118     14119
     14109     14116     14109     14118     14111     14109     14111     14113
     14111     14114     14111     14115     14118     14120     14116     14121
     14116     14122     14118     14123     14118     14124     14125     14126
     14127     14128     14132     14133     14134     14135     14125     14132
     14125     14134     14127     14125     14127     14129     14127     14130
     14127     14131     14134     14136     14132     14137     14132     14138
     14134     14139     14134     14140     14141     14142     14143     14144
     14148     14149     14150     14151     14141     14148     14141     14150
     14143     14141     14143     14145     14143     14146     14143     14147
     14150     14152     14148     14153     14148     14154     14150     14155
     14150     14156     14157     14158     14159     14160     14164     14165
     14166     14167     14157     14164     14157     14166     14159     14157
     14159     14161     14159     14162     14159     14163     14166     14168
     14164     14169     14164     14170     14166     14171     14166     14172
     14173     14174     14175     14176     14180     14181     14182     14183
     14173     14180     14173     14182     14175     14173     14175     14177
     14175     14178     14175     14179     14182     14184     14180     14185
     14180     14186     14182     14187     14182     14188     14189     14190
     14191     14192     14196     14197     14198     14199     14189     14196
     14189     14198     14191     14189     14191     14193     14191     14194
     14191     14195     14198     14200     14196     14201     14196     14202
     14198     14203     14198     14204     14205     14206     14207     14208
     14212     14213     14214     14215     14205     14212     14205     14214
     14207     14205     14207     14209     14207     14210     14207     14211
     14214     14216     14212     14217     14212     14218     14214     14219
     14214     14220     14221     14222     14223     14224     14228     14229
     14230     14231     14221     14228     14221     14230     14223     14221
     14223     14225     14223     14226     14223     14227     14230     14232
     14228     14233     14228     14234     14230     14235     14230     14236
     14237     14238     14239     14240     14244     14245     14246     14247
     14237     14244     14237     14246     14239     14237     14239     14241
     14239     14242     14239     14243     14246     14248     14244     14249
     14244     14250     14246     14251     14246     14252     14253     14254
     14255     14256     14260     14261     14262     14263     14253     14260
     14253     14262     14255     14253     14255     14257     14255     14258
     14255     14259     14262     14264     14260     14265     14260     14266
     14262     14267     14262     14268     14269     14270     14271     14272
     14276     14277     14278     14279     14269     14276     14269     14278
     14271     14269     14271     14273     14271     14274     14271     14275
     14278     14280     14276     14281     14276     14282     14278     14283
     14278     14284     14285     14286     14287     14288     14292     14293
     14294     14295     14285     14292     14285     14294     14287     14285
     14287     14289     14287     14290     14287     14291     14294     14296
     14292     14297     14292     14298     14294     14299     14294     14300
     14301     14302     14303     14304     14308     14309     14310     14311
     14301     14308     14301     14310     14303     14301     14303     14305
     14303     14306     14303     14307     14310     14312     14308     14313
     14308     14314     14310     14315     14310     14316     14317     14318
     14319     14320     14324     14325     14326     14327     14317     14324
     14317     14326     14319     14317     14319     14321     14319     14322
     14319     14323     14326     14328     14324     14329     14324     14330
     14326     14331     14326     14332     14333     14334     14335     14336
     14340     14341     14342     14343     14333     14340     14333     14342
     14335     14333     14335     14337     14335     14338     14335     14339
     14342     14344     14340     14345     14340     14346     14342     14347
     14342     14348     14349     14350     14351     14352     14356     14357
     14358     14359     14349     14356     14349     14358     14351     14349
     14351     14353     14351     14354     14351     14355     14358     14360
     14356     14361     14356     14362     14358     14363     14358     14364
     14365     14366     14367     14368     14372     14373     14374     14375
     14365     14372     14365     14374     14367     14365     14367     14369
     14367     14370     14367     14371     14374     14376     14372     14377
     14372     14378     14374     14379     14374     14380     14381     14382
     14383     14384     14388     14389     14390     14391     14381     14388
     14381     14390     14383     14381     14383     14385     14383     14386
     14383     14387     14390     14392     14388     14393     14388     14394
     14390     14395     14390     14396     14397     14398     14399     14400
     14404     14405     14406     14407     14397     14404     14397     14406
     14399     14397     14399     14401     14399     14402     14399     14403
     14406     14408     14404     14409     14404     14410     14406     14411
     14406     14412     14413     14414     14415     14416     14420     14421
     14422     14423     14413     14420     14413     14422     14415     14413
     14415     14417     14415     14418     14415     14419     14422     14424
     14420     14425     14420     14426     14422     14427     14422     14428
     14429     14430     14431     14432     14436     14437     14438     14439
     14429     14436     14429     14438     14431     14429     14431     14433
     14431     14434     14431     14435     14438     14440     14436     14441
     14436     14442     14438     14443     14438     14444     14445     14446
     14447     14448     14452     14453     14454     14455     14445     14452
     14445     14454     14447     14445     14447     14449     14447     14450
     14447     14451     14454     14456     14452     14457     14452     14458
     14454     14459     14454     14460     14461     14462     14463     14464
     14468     14469     14470     14471     14461     14468     14461     14470
     14463     14461     14463     14465     14463     14466     14463     14467
     14470     14472     14468     14473     14468     14474     14470     14475
     14470     14476     14477     14478     14479     14480     14484     14485
     14486     14487     14477     14484     14477     14486     14479     14477
     14479     14481     14479     14482     14479     14483     14486     14488
     14484     14489     14484     14490     14486     14491     14486     14492
     14493     14494     14495     14496     14500     14501     14502     14503
     14493     14500     14493     14502     14495     14493     14495     14497
     14495     14498     14495     14499     14502     14504     14500     14505
     14500     14506     14502     14507     14502     14508     14509     14510
     14511     14512     14516     14517     14518     14519     14509     14516
     14509     14518     14511     14509     14511     14513     14511     14514
     14511     14515     14518     14520     14516     14521     14516     14522
     14518     14523     14518     14524     14525     14526     14527     14528
     14532     14533     14534     14535     14525     14532     14525     14534
     14527     14525     14527     14529     14527     14530     14527     14531
     14534     14536     14532     14537     14532     14538     14534     14539
     14534     14540     14541     14542     14543     14544     14548     14549
     14550     14551     14541     14548     14541     14550     14543     14541
     14543     14545     14543     14546     14543     14547     14550     14552
     14548     14553     14548     14554     14550     14555     14550     14556
     14557     14558     14559     14560     14564     14565     14566     14567
     14557     14564     14557     14566     14559     14557     14559     14561
     14559     14562     14559     14563     14566     14568     14564     14569
     14564     14570     14566     14571     14566     14572     14573     14574
     14575     14576     14580     14581     14582     14583     14573     14580
     14573     14582     14575     14573     14575     14577     14575     14578
     14575     14579     14582     14584     14580     14585     14580     14586
     14582     14587     14582     14588     14589     14590     14591     14592
     14596     14597     14598     14599     14589     14596     14589     14598
     14591     14589     14591     14593     14591     14594     14591     14595
     14598     14600     14596     14601     14596     14602     14598     14603
     14598     14604     14605     14606     14607     14608     14612     14613
     14614     14615     14605     14612     14605     14614     14607     14605
     14607     14609     14607     14610     14607     14611     14614     14616
     14612     14617     14612     14618     14614     14619     14614     14620
     14621     14622     14623     14624     14628     14629     14630     14631
     14621     14628     14621     14630     14623     14621     14623     14625
     14623     14626     14623     14627     14630     14632     14628     14633
     14628     14634     14630     14635     14630     14636     14637     14638
     14639     14640     14644     14645     14646     14647     14637     14644
     14637     14646     14639     14637     14639     14641     14639     14642
     14639     14643     14646     14648     14644     14649     14644     14650
     14646     14651     14646     14652     14653     14654     14655     14656
     14660     14661     14662     14663     14653     14660     14653     14662
     14655     14653     14655     14657     14655     14658     14655     14659
     14662     14664     14660     14665     14660     14666     14662     14667
     14662     14668     14669     14670     14671     14672     14676     14677
     14678     14679     14669     14676     14669     14678     14671     14669
     14671     14673     14671     14674     14671     14675     14678     14680
     14676     14681     14676     14682     14678     14683     14678     14684
     14685     14686     14687     14688     14692     14693     14694     14695
     14685     14692     14685     14694     14687     14685     14687     14689
     14687     14690     14687     14691     14694     14696     14692     14697
     14692     14698     14694     14699     14694     14700     14701     14702
     14703     14704     14708     14709     14710     14711     14701     14708
     14701     14710     14703     14701     14703     14705     14703     14706
     14703     14707     14710     14712     14708     14713     14708     14714
     14710     14715     14710     14716     14717     14718     14719     14720
     14724     14725     14726     14727     14717     14724     14717     14726
     14719     14717     14719     14721     14719     14722     14719     14723
     14726     14728     14724     14729     14724     14730     14726     14731
     14726     14732     14733     14734     14735     14736     14740     14741
     14742     14743     14733     14740     14733     14742     14735     14733
     14735     14737     14735     14738     14735     14739     14742     14744
     14740     14745     14740     14746     14742     14747     14742     14748
     14749     14750     14751     14752     14756     14757     14758     14759
     14749     14756     14749     14758     14751     14749     14751     14753
     14751     14754     14751     14755     14758     14760     14756     14761
     14756     14762     14758     14763     14758     14764     14765     14766
     14767     14768     14772     14773     14774     14775     14765     14772
     14765     14774     14767     14765     14767     14769     14767     14770
     14767     14771     14774     14776     14772     14777     14772     14778
     14774     14779     14774     14780     14781     14782     14783     14784
     14788     14789     14790     14791     14781     14788     14781     14790
     14783     14781     14783     14785     14783     14786     14783     14787
     14790     14792     14788     14793     14788     14794     14790     14795
     14790     14796     14797     14798     14799     14800     14804     14805
     14806     14807     14797     14804     14797     14806     14799     14797
     14799     14801     14799     14802     14799     14803     14806     14808
     14804     14809     14804     14810     14806     14811     14806     14812
     14813     14814     14815     14816     14820     14821     14822     14823
     14813     14820     14813     14822     14815     14813     14815     14817
     14815     14818     14815     14819     14822     14824     14820     14825
     14820     14826     14822     14827     14822     14828     14829     14830
     14831     14832     14836     14837     14838     14839     14829     14836
     14829     14838     14831     14829     14831     14833     14831     14834
     14831     14835     14838     14840     14836     14841     14836     14842
     14838     14843     14838     14844     14845     14846     14847     14848
     14852     14853     14854     14855     14845     14852     14845     14854
     14847     14845     14847     14849     14847     14850     14847     14851
     14854     14856     14852     14857     14852     14858     14854     14859
     14854     14860     14861     14862     14863     14864     14868     14869
     14870     14871     14861     14868     14861     14870     14863     14861
     14863     14865     14863     14866     14863     14867     14870     14872
     14868     14873     14868     14874     14870     14875     14870     14876
     14877     14878     14879     14880     14884     14885     14886     14887
     14877     14884     14877     14886     14879     14877     14879     14881
     14879     14882     14879     14883     14886     14888     14884     14889
     14884     14890     14886     14891     14886     14892     14893     14894
     14895     14896     14900     14901     14902     14903     14893     14900
     14893     14902     14895     14893     14895     14897     14895     14898
     14895     14899     14902     14904     14900     14905     14900     14906
     14902     14907     14902     14908     14909     14910     14911     14912
     14916     14917     14918     14919     14909     14916     14909     14918
     14911     14909     14911     14913     14911     14914     14911     14915
     14918     14920     14916     14921     14916     14922     14918     14923
     14918     14924     14925     14926     14927     14928     14932     14933
     14934     14935     14925     14932     14925     14934     14927     14925
     14927     14929     14927     14930     14927     14931     14934     14936
     14932     14937     14932     14938     14934     14939     14934     14940
     14941     14942     14943     14944     14948     14949     14950     14951
     14941     14948     14941     14950     14943     14941     14943     14945
     14943     14946     14943     14947     14950     14952     14948     14953
     14948     14954     14950     14955     14950     14956     14957     14958
     14959     14960     14964     14965     14966     14967     14957     14964
     14957     14966     14959     14957     14959     14961     14959     14962
     14959     14963     14966     14968     14964     14969     14964     14970
     14966     14971     14966     14972     14973     14974     14975     14976
     14980     14981     14982     14983     14973     14980     14973     14982
     14975     14973     14975     14977     14975     14978     14975     14979
     14982     14984     14980     14985     14980     14986     14982     14987
     14982     14988     14989     14990     14991     14992     14996     14997
     14998     14999     14989     14996     14989     14998     14991     14989
     14991     14993     14991     14994     14991     14995     14998     15000
     14996     15001     14996     15002     14998     15003     14998     15004
     15005     15006     15007     15008     15012     15013     15014     15015
     15005     15012     15005     15014     15007     15005     15007     15009
     15007     15010     15007     15011     15014     15016     15012     15017
     15012     15018     15014     15019     15014     15020     15021     15022
     15023     15024     15028     15029     15030     15031     15021     15028
     15021     15030     15023     15021     15023     15025     15023     15026
     15023     15027     15030     15032     15028     15033     15028     15034
     15030     15035     15030     15036     15037     15038     15039     15040
     15044     15045     15046     15047     15037     15044     15037     15046
     15039     15037     15039     15041     15039     15042     15039     15043
     15046     15048     15044     15049     15044     15050     15046     15051
     15046     15052     15053     15054     15055     15056     15060     15061
     15062     15063     15053     15060     15053     15062     15055     15053
     15055     15057     15055     15058     15055     15059     15062     15064
     15060     15065     15060     15066     15062     15067     15062     15068
     15069     15070     15071     15072     15076     15077     15078     15079
     15069     15076     15069     15078     15071     15069     15071     15073
     15071     15074     15071     15075     15078     15080     15076     15081
     15076     15082     15078     15083     15078     15084     15085     15086
     15087     15088     15092     15093     15094     15095     15085     15092
     15085     15094     15087     15085     15087     15089     15087     15090
     15087     15091     15094     15096     15092     15097     15092     15098
     15094     15099     15094     15100     15101     15102     15103     15104
     15108     15109     15110     15111     15101     15108     15101     15110
     15103     15101     15103     15105     15103     15106     15103     15107
     15110     15112     15108     15113     15108     15114     15110     15115
     15110     15116     15117     15118     15119     15120     15124     15125
     15126     15127     15117     15124     15117     15126     15119     15117
     15119     15121     15119     15122     15119     15123     15126     15128
     15124     15129     15124     15130     15126     15131     15126     15132
     15133     15134     15135     15136     15140     15141     15142     15143
     15133     15140     15133     15142     15135     15133     15135     15137
     15135     15138     15135     15139     15142     15144     15140     15145
     15140     15146     15142     15147     15142     15148     15149     15150
     15151     15152     15156     15157     15158     15159     15149     15156
     15149     15158     15151     15149     15151     15153     15151     15154
     15151     15155     15158     15160     15156     15161     15156     15162
     15158     15163     15158     15164     15165     15166     15167     15168
     15172     15173     15174     15175     15165     15172     15165     15174
     15167     15165     15167     15169     15167     15170     15167     15171
     15174     15176     15172     15177     15172     15178     15174     15179
     15174     15180     15181     15182     15183     15184     15188     15189
     15190     15191     15181     15188     15181     15190     15183     15181
     15183     15185     15183     15186     15183     15187     15190     15192
     15188     15193     15188     15194     15190     15195     15190     15196
     15197     15198     15199     15200     15204     15205     15206     15207
     15197     15204     15197     15206     15199     15197     15199     15201
     15199     15202     15199     15203     15206     15208     15204     15209
     15204     15210     15206     15211     15206     15212     15213     15214
     15215     15216     15220     15221     15222     15223     15213     15220
     15213     15222     15215     15213     15215     15217     15215     15218
     15215     15219     15222     15224     15220     15225     15220     15226
     15222     15227     15222     15228     15229     15230     15231     15232
     15236     15237     15238     15239     15229     15236     15229     15238
     15231     15229     15231     15233     15231     15234     15231     15235
     15238     15240     15236     15241     15236     15242     15238     15243
     15238     15244     15245     15246     15247     15248     15252     15253
     15254     15255     15245     15252     15245     15254     15247     15245
     15247     15249     15247     15250     15247     15251     15254     15256
     15252     15257     15252     15258     15254     15259     15254     15260
     15261     15262     15263     15264     15268     15269     15270     15271
     15261     15268     15261     15270     15263     15261     15263     15265
     15263     15266     15263     15267     15270     15272     15268     15273
     15268     15274     15270     15275     15270     15276     15277     15278
     15279     15280     15284     15285     15286     15287     15277     15284
     15277     15286     15279     15277     15279     15281     15279     15282
     15279     15283     15286     15288     15284     15289     15284     15290
     15286     15291     15286     15292     15293     15294     15295     15296
     15300     15301     15302     15303     15293     15300     15293     15302
     15295     15293     15295     15297     15295     15298     15295     15299
     15302     15304     15300     15305     15300     15306     15302     15307
     15302     15308     15309     15310     15311     15312     15316     15317
     15318     15319     15309     15316     15309     15318     15311     15309
     15311     15313     15311     15314     15311     15315     15318     15320
     15316     15321     15316     15322     15318     15323     15318     15324
     15325     15326     15327     15328     15332     15333     15334     15335
     15325     15332     15325     15334     15327     15325     15327     15329
     15327     15330     15327     15331     15334     15336     15332     15337
     15332     15338     15334     15339     15334     15340     15341     15342
     15343     15344     15348     15349     15350     15351     15341     15348
     15341     15350     15343     15341     15343     15345     15343     15346
     15343     15347     15350     15352     15348     15353     15348     15354
     15350     15355     15350     15356     15357     15358     15359     15360
     15364     15365     15366     15367     15357     15364     15357     15366
     15359     15357     15359     15361     15359     15362     15359     15363
     15366     15368     15364     15369     15364     15370     15366     15371
     15366     15372     15373     15374     15375     15376     15380     15381
     15382     15383     15373     15380     15373     15382     15375     15373
     15375     15377     15375     15378     15375     15379     15382     15384
     15380     15385     15380     15386     15382     15387     15382     15388
     15389     15390     15391     15392     15396     15397     15398     15399
     15389     15396     15389     15398     15391     15389     15391     15393
     15391     15394     15391     15395     15398     15400     15396     15401
     15396     15402     15398     15403     15398     15404     15405     15406
     15407     15408     15412     15413     15414     15415     15405     15412
     15405     15414     15407     15405     15407     15409     15407     15410
     15407     15411     15414     15416     15412     15417     15412     15418
     15414     15419     15414     15420     15421     15422     15423     15424
     15428     15429     15430     15431     15421     15428     15421     15430
     15423     15421     15423     15425     15423     15426     15423     15427
     15430     15432     15428     15433     15428     15434     15430     15435
     15430     15436     15437     15438     15439     15440     15444     15445
     15446     15447     15437     15444     15437     15446     15439     15437
     15439     15441     15439     15442     15439     15443     15446     15448
     15444     15449     15444     15450     15446     15451     15446     15452
     15453     15454     15455     15456     15460     15461     15462     15463
     15453     15460     15453     15462     15455     15453     15455     15457
     15455     15458     15455     15459     15462     15464     15460     15465
     15460     15466     15462     15467     15462     15468     15469     15470
     15471     15472     15476     15477     15478     15479     15469     15476
     15469     15478     15471     15469     15471     15473     15471     15474
     15471     15475     15478     15480     15476     15481     15476     15482
     15478     15483     15478     15484     15485     15486     15487     15488
     15492     15493     15494     15495     15485     15492     15485     15494
     15487     15485     15487     15489     15487     15490     15487     15491
     15494     15496     15492     15497     15492     15498     15494     15499
     15494     15500     15501     15502     15503     15504     15508     15509
     15510     15511     15501     15508     15501     15510     15503     15501
     15503     15505     15503     15506     15503     15507     15510     15512
     15508     15513     15508     15514     15510     15515     15510     15516
     15517     15518     15519     15520     15524     15525     15526     15527
     15517     15524     15517     15526     15519     15517     15519     15521
     15519     15522     15519     15523     15526     15528     15524     15529
     15524     15530     15526     15531     15526     15532     15533     15534
     15535     15536     15540     15541     15542     15543     15533     15540
     15533     15542     15535     15533     15535     15537     15535     15538
     15535     15539     15542     15544     15540     15545     15540     15546
     15542     15547     15542     15548     15549     15550     15551     15552
     15556     15557     15558     15559     15549     15556     15549     15558
     15551     15549     15551     15553     15551     15554     15551     15555
     15558     15560     15556     15561     15556     15562     15558     15563
     15558     15564     15565     15566     15567     15568     15572     15573
     15574     15575     15565     15572     15565     15574     15567     15565
     15567     15569     15567     15570     15567     15571     15574     15576
     15572     15577     15572     15578     15574     15579     15574     15580
     15581     15582     15583     15584     15588     15589     15590     15591
     15581     15588     15581     15590     15583     15581     15583     15585
     15583     15586     15583     15587     15590     15592     15588     15593
     15588     15594     15590     15595     15590     15596     15597     15598
     15599     15600     15604     15605     15606     15607     15597     15604
     15597     15606     15599     15597     15599     15601     15599     15602
     15599     15603     15606     15608     15604     15609     15604     15610
     15606     15611     15606     15612     15613     15614     15615     15616
     15620     15621     15622     15623     15613     15620     15613     15622
     15615     15613     15615     15617     15615     15618     15615     15619
     15622     15624     15620     15625     15620     15626     15622     15627
     15622     15628     15629     15630     15631     15632     15636     15637
     15638     15639     15629     15636     15629     15638     15631     15629
     15631     15633     15631     15634     15631     15635     15638     15640
     15636     15641     15636     15642     15638     15643     15638     15644
     15645     15646     15647     15648     15652     15653     15654     15655
     15645     15652     15645     15654     15647     15645     15647     15649
     15647     15650     15647     15651     15654     15656     15652     15657
     15652     15658     15654     15659     15654     15660     15661     15662
     15663     15664     15668     15669     15670     15671     15661     15668
     15661     15670     15663     15661     15663     15665     15663     15666
     15663     15667     15670     15672     15668     15673     15668     15674
     15670     15675     15670     15676     15677     15678     15679     15680
     15684     15685     15686     15687     15677     15684     15677     15686
     15679     15677     15679     15681     15679     15682     15679     15683
     15686     15688     15684     15689     15684     15690     15686     15691
     15686     15692     15693     15694     15695     15696     15700     15701
     15702     15703     15693     15700     15693     15702     15695     15693
     15695     15697     15695     15698     15695     15699     15702     15704
     15700     15705     15700     15706     15702     15707     15702     15708
     15709     15710     15711     15712     15716     15717     15718     15719
     15709     15716     15709     15718     15711     15709     15711     15713
     15711     15714     15711     15715     15718     15720     15716     15721
     15716     15722     15718     15723     15718     15724     15725     15726
     15727     15728     15732     15733     15734     15735     15725     15732
     15725     15734     15727     15725     15727     15729     15727     15730
     15727     15731     15734     15736     15732     15737     15732     15738
     15734     15739     15734     15740     15741     15742     15743     15744
     15748     15749     15750     15751     15741     15748     15741     15750
     15743     15741     15743     15745     15743     15746     15743     15747
     15750     15752     15748     15753     15748     15754     15750     15755
     15750     15756     15757     15758     15759     15760     15764     15765
     15766     15767     15757     15764     15757     15766     15759     15757
     15759     15761     15759     15762     15759     15763     15766     15768
     15764     15769     15764     15770     15766     15771     15766     15772
     15773     15774     15775     15776     15780     15781     15782     15783
     15773     15780     15773     15782     15775     15773     15775     15777
     15775     15778     15775     15779     15782     15784     15780     15785
     15780     15786     15782     15787     15782     15788     15789     15790
     15791     15792     15796     15797     15798     15799     15789     15796
     15789     15798     15791     15789     15791     15793     15791     15794
     15791     15795     15798     15800     15796     15801     15796     15802
     15798     15803     15798     15804     15805     15806     15807     15808
     15812     15813     15814     15815     15805     15812     15805     15814
     15807     15805     15807     15809     15807     15810     15807     15811
     15814     15816     15812     15817     15812     15818     15814     15819
     15814     15820     15821     15822     15823     15824     15828     15829
     15830     15831     15821     15828     15821     15830     15823     15821
     15823     15825     15823     15826     15823     15827     15830     15832
     15828     15833     15828     15834     15830     15835     15830     15836
     15837     15838     15839     15840     15844     15845     15846     15847
     15837     15844     15837     15846     15839     15837     15839     15841
     15839     15842     15839     15843     15846     15848     15844     15849
     15844     15850     15846     15851     15846     15852     15853     15854
     15855     15856     15860     15861     15862     15863     15853     15860
     15853     15862     15855     15853     15855     15857     15855     15858
     15855     15859     15862     15864     15860     15865     15860     15866
     15862     15867     15862     15868     15869     15870     15871     15872
     15876     15877     15878     15879     15869     15876     15869     15878
     15871     15869     15871     15873     15871     15874     15871     15875
     15878     15880     15876     15881     15876     15882     15878     15883
     15878     15884     15885     15886     15887     15888     15892     15893
     15894     15895     15885     15892     15885     15894     15887     15885
     15887     15889     15887     15890     15887     15891     15894     15896
     15892     15897     15892     15898     15894     15899     15894     15900
     15901     15902     15903     15904     15908     15909     15910     15911
     15901     15908     15901     15910     15903     15901     15903     15905
     15903     15906     15903     15907     15910     15912     15908     15913
     15908     15914     15910     15915     15910     15916     15917     15918
     15919     15920     15924     15925     15926     15927     15917     15924
     15917     15926     15919     15917     15919     15921     15919     15922
     15919     15923     15926     15928     15924     15929     15924     15930
     15926     15931     15926     15932     15933     15934     15935     15936
     15940     15941     15942     15943     15933     15940     15933     15942
     15935     15933     15935     15937     15935     15938     15935     15939
     15942     15944     15940     15945     15940     15946     15942     15947
     15942     15948     15949     15950     15951     15952     15956     15957
     15958     15959     15949     15956     15949     15958     15951     15949
     15951     15953     15951     15954     15951     15955     15958     15960
     15956     15961     15956     15962     15958     15963     15958     15964
     15965     15966     15967     15968     15972     15973     15974     15975
     15965     15972     15965     15974     15967     15965     15967     15969
     15967     15970     15967     15971     15974     15976     15972     15977
     15972     15978     15974     15979     15974     15980     15981     15982
     15983     15984     15988     15989     15990     15991     15981     15988
     15981     15990     15983     15981     15983     15985     15983     15986
     15983     15987     15990     15992     15988     15993     15988     15994
     15990     15995     15990     15996     15997     15998     15999     16000
     16004     16005     16006     16007     15997     16004     15997     16006
     15999     15997     15999     16001     15999     16002     15999     16003
     16006     16008     16004     16009     16004     16010     16006     16011
     16006     16012     16013     16014     16015     16016     16020     16021
     16022     16023     16013     16020     16013     16022     16015     16013
     16015     16017     16015     16018     16015     16019     16022     16024
     16020     16025     16020     16026     16022     16027     16022     16028
     16029     16030     16031     16032     16036     16037     16038     16039
     16029     16036     16029     16038     16031     16029     16031     16033
     16031     16034     16031     16035     16038     16040     16036     16041
     16036     16042     16038     16043     16038     16044     16045     16046
     16047     16048     16052     16053     16054     16055     16045     16052
     16045     16054     16047     16045     16047     16049     16047     16050
     16047     16051     16054     16056     16052     16057     16052     16058
     16054     16059     16054     16060     16061     16062     16063     16064
     16068     16069     16070     16071     16061     16068     16061     16070
     16063     16061     16063     16065     16063     16066     16063     16067
     16070     16072     16068     16073     16068     16074     16070     16075
     16070     16076     16077     16078     16079     16080     16084     16085
     16086     16087     16077     16084     16077     16086     16079     16077
     16079     16081     16079     16082     16079     16083     16086     16088
     16084     16089     16084     16090     16086     16091     16086     16092
     16093     16094     16095     16096     16100     16101     16102     16103
     16093     16100     16093     16102     16095     16093     16095     16097
     16095     16098     16095     16099     16102     16104     16100     16105
     16100     16106     16102     16107     16102     16108     16109     16110
     16111     16112     16116     16117     16118     16119     16109     16116
     16109     16118     16111     16109     16111     16113     16111     16114
     16111     16115     16118     16120     16116     16121     16116     16122
     16118     16123     16118     16124     16125     16126     16127     16128
     16132     16133     16134     16135     16125     16132     16125     16134
     16127     16125     16127     16129     16127     16130     16127     16131
     16134     16136     16132     16137     16132     16138     16134     16139
     16134     16140     16141     16142     16143     16144     16148     16149
     16150     16151     16141     16148     16141     16150     16143     16141
     16143     16145     16143     16146     16143     16147     16150     16152
     16148     16153     16148     16154     16150     16155     16150     16156
     16157     16158     16159     16160     16164     16165     16166     16167
     16157     16164     16157     16166     16159     16157     16159     16161
     16159     16162     16159     16163     16166     16168     16164     16169
     16164     16170     16166     16171     16166     16172     16173     16174
     16175     16176     16180     16181     16182     16183     16173     16180
     16173     16182     16175     16173     16175     16177     16175     16178
     16175     16179     16182     16184     16180     16185     16180     16186
     16182     16187     16182     16188     16189     16190     16191     16192
     16196     16197     16198     16199     16189     16196     16189     16198
     16191     16189     16191     16193     16191     16194     16191     16195
     16198     16200     16196     16201     16196     16202     16198     16203
     16198     16204     16205     16206     16207     16208     16212     16213
     16214     16215     16205     16212     16205     16214     16207     16205
     16207     16209     16207     16210     16207     16211     16214     16216
     16212     16217     16212     16218     16214     16219     16214     16220
     16221     16222     16223     16224     16228     16229     16230     16231
     16221     16228     16221     16230     16223     16221     16223     16225
     16223     16226     16223     16227     16230     16232     16228     16233
     16228     16234     16230     16235     16230     16236     16237     16238
     16239     16240     16244     16245     16246     16247     16237     16244
     16237     16246     16239     16237     16239     16241     16239     16242
     16239     16243     16246     16248     16244     16249     16244     16250
     16246     16251     16246     16252     16253     16254     16255     16256
     16260     16261     16262     16263     16253     16260     16253     16262
     16255     16253     16255     16257     16255     16258     16255     16259
     16262     16264     16260     16265     16260     16266     16262     16267
     16262     16268     16269     16270     16271     16272     16276     16277
     16278     16279     16269     16276     16269     16278     16271     16269
     16271     16273     16271     16274     16271     16275     16278     16280
     16276     16281     16276     16282     16278     16283     16278     16284
     16285     16286     16287     16288     16292     16293     16294     16295
     16285     16292     16285     16294     16287     16285     16287     16289
     16287     16290     16287     16291     16294     16296     16292     16297
     16292     16298     16294     16299     16294     16300     16301     16302
     16303     16304     16308     16309     16310     16311     16301     16308
     16301     16310     16303     16301     16303     16305     16303     16306
     16303     16307     16310     16312     16308     16313     16308     16314
     16310     16315     16310     16316     16317     16318     16319     16320
     16324     16325     16326     16327     16317     16324     16317     16326
     16319     16317     16319     16321     16319     16322     16319     16323
     16326     16328     16324     16329     16324     16330     16326     16331
     16326     16332     16333     16334     16335     16336     16340     16341
     16342     16343     16333     16340     16333     16342     16335     16333
     16335     16337     16335     16338     16335     16339     16342     16344
     16340     16345     16340     16346     16342     16347     16342     16348
     16349     16350     16351     16352     16356     16357     16358     16359
     16349     16356     16349     16358     16351     16349     16351     16353
     16351     16354     16351     16355     16358     16360     16356     16361
     16356     16362     16358     16363     16358     16364     16365     16366
     16367     16368     16372     16373     16374     16375     16365     16372
     16365     16374     16367     16365     16367     16369     16367     16370
     16367     16371     16374     16376     16372     16377     16372     16378
     16374     16379     16374     16380     16381     16382     16383     16384
     16388     16389     16390     16391     16381     16388     16381     16390
     16383     16381     16383     16385     16383     16386     16383     16387
     16390     16392     16388     16393     16388     16394     16390     16395
     16390     16396     16397     16398     16399     16400     16404     16405
     16406     16407     16397     16404     16397     16406     16399     16397
     16399     16401     16399     16402     16399     16403     16406     16408
     16404     16409     16404     16410     16406     16411     16406     16412
     16413     16414     16415     16416     16420     16421     16422     16423
     16413     16420     16413     16422     16415     16413     16415     16417
     16415     16418     16415     16419     16422     16424     16420     16425
     16420     16426     16422     16427     16422     16428     16429     16430
     16431     16432     16436     16437     16438     16439     16429     16436
     16429     16438     16431     16429     16431     16433     16431     16434
     16431     16435     16438     16440     16436     16441     16436     16442
     16438     16443     16438     16444     16445     16446     16447     16448
     16452     16453     16454     16455     16445     16452     16445     16454
     16447     16445     16447     16449     16447     16450     16447     16451
     16454     16456     16452     16457     16452     16458     16454     16459
     16454     16460     16461     16462     16463     16464     16468     16469
     16470     16471     16461     16468     16461     16470     16463     16461
     16463     16465     16463     16466     16463     16467     16470     16472
     16468     16473     16468     16474     16470     16475     16470     16476
     16477     16478     16479     16480     16484     16485     16486     16487
     16477     16484     16477     16486     16479     16477     16479     16481
     16479     16482     16479     16483     16486     16488     16484     16489
     16484     16490     16486     16491     16486     16492     16493     16494
     16495     16496     16500     16501     16502     16503     16493     16500
     16493     16502     16495     16493     16495     16497     16495     16498
     16495     16499     16502     16504     16500     16505     16500     16506
     16502     16507     16502     16508     16509     16510     16511     16512
     16516     16517     16518     16519     16509     16516     16509     16518
     16511     16509     16511     16513     16511     16514     16511     16515
     16518     16520     16516     16521     16516     16522     16518     16523
     16518     16524     16525     16526     16527     16528     16532     16533
     16534     16535     16525     16532     16525     16534     16527     16525
     16527     16529     16527     16530     16527     16531     16534     16536
     16532     16537     16532     16538     16534     16539     16534     16540
     16541     16542     16543     16544     16548     16549     16550     16551
     16541     16548     16541     16550     16543     16541     16543     16545
     16543     16546     16543     16547     16550     16552     16548     16553
     16548     16554     16550     16555     16550     16556     16557     16558
     16559     16560     16564     16565     16566     16567     16557     16564
     16557     16566     16559     16557     16559     16561     16559     16562
     16559     16563     16566     16568     16564     16569     16564     16570
     16566     16571     16566     16572     16573     16574     16575     16576
     16580     16581     16582     16583     16573     16580     16573     16582
     16575     16573     16575     16577     16575     16578     16575     16579
     16582     16584     16580     16585     16580     16586     16582     16587
     16582     16588     16589     16590     16591     16592     16596     16597
     16598     16599     16589     16596     16589     16598     16591     16589
     16591     16593     16591     16594     16591     16595     16598     16600
     16596     16601     16596     16602     16598     16603     16598     16604
     16605     16606     16607     16608     16612     16613     16614     16615
     16605     16612     16605     16614     16607     16605     16607     16609
     16607     16610     16607     16611     16614     16616     16612     16617
     16612     16618     16614     16619     16614     16620     16621     16622
     16623     16624     16628     16629     16630     16631     16621     16628
     16621     16630     16623     16621     16623     16625     16623     16626
     16623     16627     16630     16632     16628     16633     16628     16634
     16630     16635     16630     16636     16637     16638     16639     16640
     16644     16645     16646     16647     16637     16644     16637     16646
     16639     16637     16639     16641     16639     16642     16639     16643
     16646     16648     16644     16649     16644     16650     16646     16651
     16646     16652     16653     16654     16655     16656     16660     16661
     16662     16663     16653     16660     16653     16662     16655     16653
     16655     16657     16655     16658     16655     16659     16662     16664
     16660     16665     16660     16666     16662     16667     16662     16668
     16669     16670     16671     16672     16676     16677     16678     16679
     16669     16676     16669     16678     16671     16669     16671     16673
     16671     16674     16671     16675     16678     16680     16676     16681
     16676     16682     16678     16683     16678     16684     16685     16686
     16687     16688     16692     16693     16694     16695     16685     16692
     16685     16694     16687     16685     16687     16689     16687     16690
     16687     16691     16694     16696     16692     16697     16692     16698
     16694     16699     16694     16700     16701     16702     16703     16704
     16708     16709     16710     16711     16701     16708     16701     16710
     16703     16701     16703     16705     16703     16706     16703     16707
     16710     16712     16708     16713     16708     16714     16710     16715
     16710     16716     16717     16718     16719     16720     16724     16725
     16726     16727     16717     16724     16717     16726     16719     16717
     16719     16721     16719     16722     16719     16723     16726     16728
     16724     16729     16724     16730     16726     16731     16726     16732
     16733     16734     16735     16736     16740     16741     16742     16743
     16733     16740     16733     16742     16735     16733     16735     16737
     16735     16738     16735     16739     16742     16744     16740     16745
     16740     16746     16742     16747     16742     16748     16749     16750
     16751     16752     16756     16757     16758     16759     16749     16756
     16749     16758     16751     16749     16751     16753     16751     16754
     16751     16755     16758     16760     16756     16761     16756     16762
     16758     16763     16758     16764     16765     16766     16767     16768
     16772     16773     16774     16775     16765     16772     16765     16774
     16767     16765     16767     16769     16767     16770     16767     16771
     16774     16776     16772     16777     16772     16778     16774     16779
     16774     16780     16781     16782     16783     16784     16788     16789
     16790     16791     16781     16788     16781     16790     16783     16781
     16783     16785     16783     16786     16783     16787     16790     16792
     16788     16793     16788     16794     16790     16795     16790     16796
     16797     16798     16799     16800     16804     16805     16806     16807
     16797     16804     16797     16806     16799     16797     16799     16801
     16799     16802     16799     16803     16806     16808     16804     16809
     16804     16810     16806     16811     16806     16812     16813     16814
     16815     16816     16820     16821     16822     16823     16813     16820
     16813     16822     16815     16813     16815     16817     16815     16818
     16815     16819     16822     16824     16820     16825     16820     16826
     16822     16827     16822     16828     16829     16830     16831     16832
     16836     16837     16838     16839     16829     16836     16829     16838
     16831     16829     16831     16833     16831     16834     16831     16835
     16838     16840     16836     16841     16836     16842     16838     16843
     16838     16844     16845     16846     16847     16848     16852     16853
     16854     16855     16845     16852     16845     16854     16847     16845
     16847     16849     16847     16850     16847     16851     16854     16856
     16852     16857     16852     16858     16854     16859     16854     16860
     16861     16862     16863     16864     16868     16869     16870     16871
     16861     16868     16861     16870     16863     16861     16863     16865
     16863     16866     16863     16867     16870     16872     16868     16873
     16868     16874     16870     16875     16870     16876     16877     16878
     16879     16880     16884     16885     16886     16887     16877     16884
     16877     16886     16879     16877     16879     16881     16879     16882
     16879     16883     16886     16888     16884     16889     16884     16890
     16886     16891     16886     16892     16893     16894     16895     16896
     16900     16901     16902     16903     16893     16900     16893     16902
     16895     16893     16895     16897     16895     16898     16895     16899
     16902     16904     16900     16905     16900     16906     16902     16907
     16902     16908     16909     16910     16911     16912     16916     16917
     16918     16919     16909     16916     16909     16918     16911     16909
     16911     16913     16911     16914     16911     16915     16918     16920
     16916     16921     16916     16922     16918     16923     16918     16924
     16925     16926     16927     16928     16932     16933     16934     16935
     16925     16932     16925     16934     16927     16925     16927     16929
     16927     16930     16927     16931     16934     16936     16932     16937
     16932     16938     16934     16939     16934     16940     16941     16942
     16943     16944     16948     16949     16950     16951     16941     16948
     16941     16950     16943     16941     16943     16945     16943     16946
     16943     16947     16950     16952     16948     16953     16948     16954
     16950     16955     16950     16956     16957     16958     16959     16960
     16964     16965     16966     16967     16957     16964     16957     16966
     16959     16957     16959     16961     16959     16962     16959     16963
     16966     16968     16964     16969     16964     16970     16966     16971
     16966     16972     16973     16974     16975     16976     16980     16981
     16982     16983     16973     16980     16973     16982     16975     16973
     16975     16977     16975     16978     16975     16979     16982     16984
     16980     16985     16980     16986     16982     16987     16982     16988
     16989     16990     16991     16992     16996     16997     16998     16999
     16989     16996     16989     16998     16991     16989     16991     16993
     16991     16994     16991     16995     16998     17000     16996     17001
     16996     17002     16998     17003     16998     17004     17005     17006
     17007     17008     17012     17013     17014     17015     17005     17012
     17005     17014     17007     17005     17007     17009     17007     17010
     17007     17011     17014     17016     17012     17017     17012     17018
     17014     17019     17014     17020     17021     17022     17023     17024
     17028     17029     17030     17031     17021     17028     17021     17030
     17023     17021     17023     17025     17023     17026     17023     17027
     17030     17032     17028     17033     17028     17034     17030     17035
     17030     17036     17037     17038     17039     17040     17044     17045
     17046     17047     17037     17044     17037     17046     17039     17037
     17039     17041     17039     17042     17039     17043     17046     17048
     17044     17049     17044     17050     17046     17051     17046     17052
     17053     17054     17055     17056     17060     17061     17062     17063
     17053     17060     17053     17062     17055     17053     17055     17057
     17055     17058     17055     17059     17062     17064     17060     17065
     17060     17066     17062     17067     17062     17068     17069     17070
     17071     17072     17076     17077     17078     17079     17069     17076
     17069     17078     17071     17069     17071     17073     17071     17074
     17071     17075     17078     17080     17076     17081     17076     17082
     17078     17083     17078     17084     17085     17086     17087     17088
     17092     17093     17094     17095     17085     17092     17085     17094
     17087     17085     17087     17089     17087     17090     17087     17091
     17094     17096     17092     17097     17092     17098     17094     17099
     17094     17100     17101     17102     17103     17104     17108     17109
     17110     17111     17101     17108     17101     17110     17103     17101
     17103     17105     17103     17106     17103     17107     17110     17112
     17108     17113     17108     17114     17110     17115     17110     17116
     17117     17118     17119     17120     17124     17125     17126     17127
     17117     17124     17117     17126     17119     17117     17119     17121
     17119     17122     17119     17123     17126     17128     17124     17129
     17124     17130     17126     17131     17126     17132     17133     17134
     17135     17136     17140     17141     17142     17143     17133     17140
     17133     17142     17135     17133     17135     17137     17135     17138
     17135     17139     17142     17144     17140     17145     17140     17146
     17142     17147     17142     17148     17149     17150     17151     17152
     17156     17157     17158     17159     17149     17156     17149     17158
     17151     17149     17151     17153     17151     17154     17151     17155
     17158     17160     17156     17161     17156     17162     17158     17163
     17158     17164     17165     17166     17167     17168     17172     17173
     17174     17175     17165     17172     17165     17174     17167     17165
     17167     17169     17167     17170     17167     17171     17174     17176
     17172     17177     17172     17178     17174     17179     17174     17180
     17181     17182     17183     17184     17188     17189     17190     17191
     17181     17188     17181     17190     17183     17181     17183     17185
     17183     17186     17183     17187     17190     17192     17188     17193
     17188     17194     17190     17195     17190     17196     17197     17198
     17199     17200     17204     17205     17206     17207     17197     17204
     17197     17206     17199     17197     17199     17201     17199     17202
     17199     17203     17206     17208     17204     17209     17204     17210
     17206     17211     17206     17212     17213     17214     17215     17216
     17220     17221     17222     17223     17213     17220     17213     17222
     17215     17213     17215     17217     17215     17218     17215     17219
     17222     17224     17220     17225     17220     17226     17222     17227
     17222     17228     17229     17230     17231     17232     17236     17237
     17238     17239     17229     17236     17229     17238     17231     17229
     17231     17233     17231     17234     17231     17235     17238     17240
     17236     17241     17236     17242     17238     17243     17238     17244
     17245     17246     17247     17248     17252     17253     17254     17255
     17245     17252     17245     17254     17247     17245     17247     17249
     17247     17250     17247     17251     17254     17256     17252     17257
     17252     17258     17254     17259     17254     17260     17261     17262
     17263     17264     17268     17269     17270     17271     17261     17268
     17261     17270     17263     17261     17263     17265     17263     17266
     17263     17267     17270     17272     17268     17273     17268     17274
     17270     17275     17270     17276     17277     17278     17279     17280
     17284     17285     17286     17287     17277     17284     17277     17286
     17279     17277     17279     17281     17279     17282     17279     17283
     17286     17288     17284     17289     17284     17290     17286     17291
     17286     17292     17293     17294     17295     17296     17300     17301
     17302     17303     17293     17300     17293     17302     17295     17293
     17295     17297     17295     17298     17295     17299     17302     17304
     17300     17305     17300     17306     17302     17307     17302     17308
     17309     17310     17311     17312     17316     17317     17318     17319
     17309     17316     17309     17318     17311     17309     17311     17313
     17311     17314     17311     17315     17318     17320     17316     17321
     17316     17322     17318     17323     17318     17324     17325     17326
     17327     17328     17332     17333     17334     17335     17325     17332
     17325     17334     17327     17325     17327     17329     17327     17330
     17327     17331     17334     17336     17332     17337     17332     17338
     17334     17339     17334     17340     17341     17342     17343     17344
     17348     17349     17350     17351     17341     17348     17341     17350
     17343     17341     17343     17345     17343     17346     17343     17347
     17350     17352     17348     17353     17348     17354     17350     17355
     17350     17356     17357     17358     17359     17360     17364     17365
     17366     17367     17357     17364     17357     17366     17359     17357
     17359     17361     17359     17362     17359     17363     17366     17368
     17364     17369     17364     17370     17366     17371     17366     17372
     17373     17374     17375     17376     17380     17381     17382     17383
     17373     17380     17373     17382     17375     17373     17375     17377
     17375     17378     17375     17379     17382     17384     17380     17385
     17380     17386     17382     17387     17382     17388     17389     17390
     17391     17392     17396     17397     17398     17399     17389     17396
     17389     17398     17391     17389     17391     17393     17391     17394
     17391     17395     17398     17400     17396     17401     17396     17402
     17398     17403     17398     17404     17405     17406     17407     17408
     17412     17413     17414     17415     17405     17412     17405     17414
     17407     17405     17407     17409     17407     17410     17407     17411
     17414     17416     17412     17417     17412     17418     17414     17419
     17414     17420     17421     17422     17423     17424     17428     17429
     17430     17431     17421     17428     17421     17430     17423     17421
     17423     17425     17423     17426     17423     17427     17430     17432
     17428     17433     17428     17434     17430     17435     17430     17436
     17437     17438     17439     17440     17444     17445     17446     17447
     17437     17444     17437     17446     17439     17437     17439     17441
     17439     17442     17439     17443     17446     17448     17444     17449
     17444     17450     17446     17451     17446     17452     17453     17454
     17455     17456     17460     17461     17462     17463     17453     17460
     17453     17462     17455     17453     17455     17457     17455     17458
     17455     17459     17462     17464     17460     17465     17460     17466
     17462     17467     17462     17468     17469     17470     17471     17472
     17476     17477     17478     17479     17469     17476     17469     17478
     17471     17469     17471     17473     17471     17474     17471     17475
     17478     17480     17476     17481     17476     17482     17478     17483
     17478     17484     17485     17486     17487     17488     17492     17493
     17494     17495     17485     17492     17485     17494     17487     17485
     17487     17489     17487     17490     17487     17491     17494     17496
     17492     17497     17492     17498     17494     17499     17494     17500
     17501     17502     17503     17504     17508     17509     17510     17511
     17501     17508     17501     17510     17503     17501     17503     17505
     17503     17506     17503     17507     17510     17512     17508     17513
     17508     17514     17510     17515     17510     17516     17517     17518
     17519     17520     17524     17525     17526     17527     17517     17524
     17517     17526     17519     17517     17519     17521     17519     17522
     17519     17523     17526     17528     17524     17529     17524     17530
     17526     17531     17526     17532     17533     17534     17535     17536
     17540     17541     17542     17543     17533     17540     17533     17542
     17535     17533     17535     17537     17535     17538     17535     17539
     17542     17544     17540     17545     17540     17546     17542     17547
     17542     17548     17549     17550     17551     17552     17556     17557
     17558     17559     17549     17556     17549     17558     17551     17549
     17551     17553     17551     17554     17551     17555     17558     17560
     17556     17561     17556     17562     17558     17563     17558     17564
     17565     17566     17567     17568     17572     17573     17574     17575
     17565     17572     17565     17574     17567     17565     17567     17569
     17567     17570     17567     17571     17574     17576     17572     17577
     17572     17578     17574     17579     17574     17580     17581     17582
     17583     17584     17588     17589     17590     17591     17581     17588
     17581     17590     17583     17581     17583     17585     17583     17586
     17583     17587     17590     17592     17588     17593     17588     17594
     17590     17595     17590     17596     17597     17598     17599     17600
     17604     17605     17606     17607     17597     17604     17597     17606
     17599     17597     17599     17601     17599     17602     17599     17603
     17606     17608     17604     17609     17604     17610     17606     17611
     17606     17612     17613     17614     17615     17616     17620     17621
     17622     17623     17613     17620     17613     17622     17615     17613
     17615     17617     17615     17618     17615     17619     17622     17624
     17620     17625     17620     17626     17622     17627     17622     17628
     17629     17630     17631     17632     17636     17637     17638     17639
     17629     17636     17629     17638     17631     17629     17631     17633
     17631     17634     17631     17635     17638     17640     17636     17641
     17636     17642     17638     17643     17638     17644     17645     17646
     17647     17648     17652     17653     17654     17655     17645     17652
     17645     17654     17647     17645     17647     17649     17647     17650
     17647     17651     17654     17656     17652     17657     17652     17658
     17654     17659     17654     17660     17661     17662     17663     17664
     17668     17669     17670     17671     17661     17668     17661     17670
     17663     17661     17663     17665     17663     17666     17663     17667
     17670     17672     17668     17673     17668     17674     17670     17675
     17670     17676     17677     17678     17679     17680     17684     17685
     17686     17687     17677     17684     17677     17686     17679     17677
     17679     17681     17679     17682     17679     17683     17686     17688
     17684     17689     17684     17690     17686     17691     17686     17692
     17693     17694     17695     17696     17700     17701     17702     17703
     17693     17700     17693     17702     17695     17693     17695     17697
     17695     17698     17695     17699     17702     17704     17700     17705
     17700     17706     17702     17707     17702     17708     17709     17710
     17711     17712     17716     17717     17718     17719     17709     17716
     17709     17718     17711     17709     17711     17713     17711     17714
     17711     17715     17718     17720     17716     17721     17716     17722
     17718     17723     17718     17724     17725     17726     17727     17728
     17732     17733     17734     17735     17725     17732     17725     17734
     17727     17725     17727     17729     17727     17730     17727     17731
     17734     17736     17732     17737     17732     17738     17734     17739
     17734     17740     17741     17742     17743     17744     17748     17749
     17750     17751     17741     17748     17741     17750     17743     17741
     17743     17745     17743     17746     17743     17747     17750     17752
     17748     17753     17748     17754     17750     17755     17750     17756
     17757     17758     17759     17760     17764     17765     17766     17767
     17757     17764     17757     17766     17759     17757     17759     17761
     17759     17762     17759     17763     17766     17768     17764     17769
     17764     17770     17766     17771     17766     17772     17773     17774
     17775     17776     17780     17781     17782     17783     17773     17780
     17773     17782     17775     17773     17775     17777     17775     17778
     17775     17779     17782     17784     17780     17785     17780     17786
     17782     17787     17782     17788     17789     17790     17791     17792
     17796     17797     17798     17799     17789     17796     17789     17798
     17791     17789     17791     17793     17791     17794     17791     17795
     17798     17800     17796     17801     17796     17802     17798     17803
     17798     17804     17805     17806     17807     17808     17812     17813
     17814     17815     17805     17812     17805     17814     17807     17805
     17807     17809     17807     17810     17807     17811     17814     17816
     17812     17817     17812     17818     17814     17819     17814     17820
     17821     17822     17823     17824     17828     17829     17830     17831
     17821     17828     17821     17830     17823     17821     17823     17825
     17823     17826     17823     17827     17830     17832     17828     17833
     17828     17834     17830     17835     17830     17836     17837     17838
     17839     17840     17844     17845     17846     17847     17837     17844
     17837     17846     17839     17837     17839     17841     17839     17842
     17839     17843     17846     17848     17844     17849     17844     17850
     17846     17851     17846     17852     17853     17854     17855     17856
     17860     17861     17862     17863     17853     17860     17853     17862
     17855     17853     17855     17857     17855     17858     17855     17859
     17862     17864     17860     17865     17860     17866     17862     17867
     17862     17868     17869     17870     17871     17872     17876     17877
     17878     17879     17869     17876     17869     17878     17871     17869
     17871     17873     17871     17874     17871     17875     17878     17880
     17876     17881     17876     17882     17878     17883     17878     17884
     17885     17886     17887     17888     17892     17893     17894     17895
     17885     17892     17885     17894     17887     17885     17887     17889
     17887     17890     17887     17891     17894     17896     17892     17897
     17892     17898     17894     17899     17894     17900     17901     17902
     17903     17904     17908     17909     17910     17911     17901     17908
     17901     17910     17903     17901     17903     17905     17903     17906
     17903     17907     17910     17912     17908     17913     17908     17914
     17910     17915     17910     17916     17917     17918     17919     17920
     17924     17925     17926     17927     17917     17924     17917     17926
     17919     17917     17919     17921     17919     17922     17919     17923
     17926     17928     17924     17929     17924     17930     17926     17931
     17926     17932     17933     17934     17935     17936     17940     17941
     17942     17943     17933     17940     17933     17942     17935     17933
     17935     17937     17935     17938     17935     17939     17942     17944
     17940     17945     17940     17946     17942     17947     17942     17948
     17949     17950     17951     17952     17956     17957     17958     17959
     17949     17956     17949     17958     17951     17949     17951     17953
     17951     17954     17951     17955     17958     17960     17956     17961
     17956     17962     17958     17963     17958     17964     17965     17966
     17967     17968     17972     17973     17974     17975     17965     17972
     17965     17974     17967     17965     17967     17969     17967     17970
     17967     17971     17974     17976     17972     17977     17972     17978
     17974     17979     17974     17980     17981     17982     17983     17984
     17988     17989     17990     17991     17981     17988     17981     17990
     17983     17981     17983     17985     17983     17986     17983     17987
     17990     17992     17988     17993     17988     17994     17990     17995
     17990     17996     17997     17998     17999     18000     18004     18005
     18006     18007     17997     18004     17997     18006     17999     17997
     17999     18001     17999     18002     17999     18003     18006     18008
     18004     18009     18004     18010     18006     18011     18006     18012
     18013     18014     18015     18016     18020     18021     18022     18023
     18013     18020     18013     18022     18015     18013     18015     18017
     18015     18018     18015     18019     18022     18024     18020     18025
     18020     18026     18022     18027     18022     18028     18029     18030
     18031     18032     18036     18037     18038     18039     18029     18036
     18029     18038     18031     18029     18031     18033     18031     18034
     18031     18035     18038     18040     18036     18041     18036     18042
     18038     18043     18038     18044     18045     18046     18047     18048
     18052     18053     18054     18055     18045     18052     18045     18054
     18047     18045     18047     18049     18047     18050     18047     18051
     18054     18056     18052     18057     18052     18058     18054     18059
     18054     18060     18061     18062     18063     18064     18068     18069
     18070     18071     18061     18068     18061     18070     18063     18061
     18063     18065     18063     18066     18063     18067     18070     18072
     18068     18073     18068     18074     18070     18075     18070     18076
     18077     18078     18079     18080     18084     18085     18086     18087
     18077     18084     18077     18086     18079     18077     18079     18081
     18079     18082     18079     18083     18086     18088     18084     18089
     18084     18090     18086     18091     18086     18092     18093     18094
     18095     18096     18100     18101     18102     18103     18093     18100
     18093     18102     18095     18093     18095     18097     18095     18098
     18095     18099     18102     18104     18100     18105     18100     18106
     18102     18107     18102     18108     18109     18110     18111     18112
     18116     18117     18118     18119     18109     18116     18109     18118
     18111     18109     18111     18113     18111     18114     18111     18115
     18118     18120     18116     18121     18116     18122     18118     18123
     18118     18124     18125     18126     18127     18128     18132     18133
     18134     18135     18125     18132     18125     18134     18127     18125
     18127     18129     18127     18130     18127     18131     18134     18136
     18132     18137     18132     18138     18134     18139     18134     18140
     18141     18142     18143     18144     18145     18146     18147     18148
     18149     18150     18151     18152     18153     18154     18155     18156
     18157     18158     18159     18160     18161     18162     18163     18164
     18165     18166     18167     18168     18169     18170     18171     18172
     18173     18174     18175     18176     18177     18178     18179     18180
     18181     18182     18183     18184     18185     18186     18187     18188
     18189     18190     18191     18192     18193     18194     18195     18196
     18197     18198     18141     18143     18141     18185     18141     18199
     18143     18145     18143     18200     18145     18147     18145     18155
     18147     18149     18147     18187     18149     18151     18149     18173
     18151     18153     18151     18165     18153     18155     18153     18201
     18155     18157     18157     18159     18157     18161     18157     18163
     18165     18167     18165     18169     18165     18171     18173     18175
     18173     18202     18175     18177     18175     18203     18177     18179
     18177     18187     18179     18181     18179     18191     18181     18183
     18181     18204     18183     18185     18183     18189     18185     18187
     18189     18205     18191     18193     18191     18195     18191     18197
     18206     18159     18207     18159     18208     18161     18209     18161
     18210     18163     18211     18163     18212     18167     18213     18167
     18214     18169     18215     18169     18216     18171     18217     18171
     18218     18189     18219     18189     18220     18193     18221     18193
     18222     18195     18223     18195     18224     18197     18225     18197
     18226     18227     18228     18229     18230     18231     18232     18233
     18234     18235     18236     18237     18238     18239     18240     18241
     18242     18243     18244     18245     18246     18247     18248     18249
     18250     18251     18252     18253     18254     18255     18256     18257
     18258     18259     18260     18261     18262     18263     18264     18265
     18266     18267     18268     18269     18270     18271     18272     18273
     18274     18275     18276     18277     18278     18279     18280     18281
     18282     18283     18226     18228     18226     18270     18226     18284
     18228     18230     18228     18285     18230     18232     18230     18240
     18232     18234     18232     18272     18234     18236     18234     18258
     18236     18238     18236     18250     18238     18240     18238     18286
     18240     18242     18242     18244     18242     18246     18242     18248
     18250     18252     18250     18254     18250     18256     18258     18260
     18258     18287     18260     18262     18260     18288     18262     18264
     18262     18272     18264     18266     18264     18276     18266     18268
     18266     18289     18268     18270     18268     18274     18270     18272
     18274     18290     18276     18278     18276     18280     18276     18282
     18291     18244     18292     18244     18293     18246     18294     18246
     18295     18248     18296     18248     18297     18252     18298     18252
     18299     18254     18300     18254     18301     18256     18302     18256
     18303     18274     18304     18274     18305     18278     18306     18278
     18307     18280     18308     18280     18309     18282     18310     18282

     15781 !NTHETA: angles
         3         1         4         3         1         5         3         1         6
         4         1         5         4         1         6         5         1         6
         1         6         8         1         6        14         8         6        14
         6         8        10         6         8        11        10         8        11
         8        11        13         8        11        17        13        11        17
         6        14        16         6        14        17        16        14        17
        11        17        14        11        17        19        14        17        19
        23        21        24        23        21        25        23        21        26
        24        21        25        24        21        26        25        21        26
        21        26        28        21        26        34        28        26        34
        26        28        30        26        28        31        30        28        31
        28        31        33        28        31        37        33        31        37
        26        34        36        26        34        37        36        34        37
        31        37        34        31        37        39        34        37        39
        43        41        44        43        41        45        43        41        46
        44        41        45        44        41        46        45        41        46
        41        46        48        41        46        54        48        46        54
        46        48        50        46        48        51        50        48        51
        48        51        53        48        51        57        53        51        57
        46        54        56        46        54        57        56        54        57
        51        57        54        51        57        59        54        57        59
        63        61        64        63        61        65        63        61        66
        64        61        65        64        61        66        65        61        66
        61        66        68        61        66        74        68        66        74
        66        68        70        66        68        71        70        68        71
        68        71        73        68        71        77        73        71        77
        66        74        76        66        74        77        76        74        77
        71        77        74        71        77        79        74        77        79
        83        81        84        83        81        85        83        81        86
        84        81        85        84        81        86        85        81        86
        81        86        88        81        86        94        88        86        94
        86        88        90        86        88        91        90        88        91
        88        91        93        88        91        97        93        91        97
        86        94        96        86        94        97        96        94        97
        91        97        94        91        97        99        94        97        99
       103       101       104       103       101       105       103       101       106
       104       101       105       104       101       106       105       101       106
       101       106       108       101       106       114       108       106       114
       106       108       110       106       108       111       110       108       111
       108       111       113       108       111       117       113       111       117
       106       114       116       106       114       117       116       114       117
       111       117       114       111       117       119       114       117       119
       123       121       124       123       121       125       123       121       126
       124       121       125       124       121       126       125       121       126
       121       126       128       121       126       134       128       126       134
       126       128       130       126       128       131       130       128       131
       128       131       133       128       131       137       133       131       137
       126       134       136       126       134       137       136       134       137
       131       137       134       131       137       139       134       137       139
       143       141       144       143       141       145       143       141       146
       144       141       145       144       141       146       145       141       146
       141       146       148       141       146       154       148       146       154
       146       148       150       146       148       151       150       148       151
       148       151       153       148       151       157       153       151       157
       146       154       156       146       154       157       156       154       157
       151       157       154       151       157       159       154       157       159
       163       161       164       163       161       165       163       161       166
       164       161       165       164       161       166       165       161       166
       161       166       168       161       166       174       168       166       174
       166       168       170       166       168       171       170       168       171
       168       171       173       168       171       177       173       171       177
       166       174       176       166       174       177       176       174       177
       171       177       174       171       177       179       174       177       179
       183       181       184       183       181       185       183       181       186
       184       181       185       184       181       186       185       181       186
       181       186       188       181       186       194       188       186       194
       186       188       190       186       188       191       190       188       191
       188       191       193       188       191       197       193       191       197
       186       194       196       186       194       197       196       194       197
       191       197       194       191       197       199       194       197       199
       203       201       204       203       201       205       203       201       206
       204       201       205       204       201       206       205       201       206
       201       206       208       201       206       214       208       206       214
       206       208       210       206       208       211       210       208       211
       208       211       213       208       211       217       213       211       217
       206       214       216       206       214       217       216       214       217
       211       217       214       211       217       219       214       217       219
       223       221       224       223       221       225       223       221       226
       224       221       225       224       221       226       225       221       226
       221       226       228       221       226       234       228       226       234
       226       228       230       226       228       231       230       228       231
       228       231       233       228       231       237       233       231       237
       226       234       236       226       234       237       236       234       237
       231       237       234       231       237       239       234       237       239
       243       241       244       243       241       245       243       241       246
       244       241       245       244       241       246       245       241       246
       241       246       248       241       246       254       248       246       254
       246       248       250       246       248       251       250       248       251
       248       251       253       248       251       257       253       251       257
       246       254       256       246       254       257       256       254       257
       251       257       254       251       257       259       254       257       259
       263       261       264       263       261       265       263       261       266
       264       261       265       264       261       266       265       261       266
       261       266       268       261       266       274       268       266       274
       266       268       270       266       268       271       270       268       271
       268       271       273       268       271       277       273       271       277
       266       274       276       266       274       277       276       274       277
       271       277       274       271       277       279       274       277       279
       283       281       284       283       281       285       283       281       286
       284       281       285       284       281       286       285       281       286
       281       286       288       281       286       294       288       286       294
       286       288       290       286       288       291       290       288       291
       288       291       293       288       291       297       293       291       297
       286       294       296       286       294       297       296       294       297
       291       297       294       291       297       299       294       297       299
       303       301       304       303       301       305       303       301       306
       304       301       305       304       301       306       305       301       306
       301       306       308       301       306       314       308       306       314
       306       308       310       306       308       311       310       308       311
       308       311       313       308       311       317       313       311       317
       306       314       316       306       314       317       316       314       317
       311       317       314       311       317       319       314       317       319
       323       321       324       323       321       325       323       321       326
       324       321       325       324       321       326       325       321       326
       321       326       328       321       326       334       328       326       334
       326       328       330       326       328       331       330       328       331
       328       331       333       328       331       337       333       331       337
       326       334       336       326       334       337       336       334       337
       331       337       334       331       337       339       334       337       339
       343       341       344       343       341       345       343       341       346
       344       341       345       344       341       346       345       341       346
       341       346       348       341       346       354       348       346       354
       346       348       350       346       348       351       350       348       351
       348       351       353       348       351       357       353       351       357
       346       354       356       346       354       357       356       354       357
       351       357       354       351       357       359       354       357       359
       363       361       364       363       361       365       363       361       366
       364       361       365       364       361       366       365       361       366
       361       366       368       361       366       374       368       366       374
       366       368       370       366       368       371       370       368       371
       368       371       373       368       371       377       373       371       377
       366       374       376       366       374       377       376       374       377
       371       377       374       371       377       379       374       377       379
       383       381       384       383       381       385       383       381       386
       384       381       385       384       381       386       385       381       386
       381       386       388       381       386       394       388       386       394
       386       388       390       386       388       391       390       388       391
       388       391       393       388       391       397       393       391       397
       386       394       396       386       394       397       396       394       397
       391       397       394       391       397       399       394       397       399
       403       401       404       403       401       405       403       401       406
       404       401       405       404       401       406       405       401       406
       401       406       408       401       406       414       408       406       414
       406       408       410       406       408       411       410       408       411
       408       411       413       408       411       417       413       411       417
       406       414       416       406       414       417       416       414       417
       411       417       414       411       417       419       414       417       419
       423       421       424       423       421       425       423       421       426
       424       421       425       424       421       426       425       421       426
       421       426       428       421       426       434       428       426       434
       426       428       430       426       428       431       430       428       431
       428       431       433       428       431       437       433       431       437
       426       434       436       426       434       437       436       434       437
       431       437       434       431       437       439       434       437       439
       443       441       444       443       441       445       443       441       446
       444       441       445       444       441       446       445       441       446
       441       446       448       441       446       454       448       446       454
       446       448       450       446       448       451       450       448       451
       448       451       453       448       451       457       453       451       457
       446       454       456       446       454       457       456       454       457
       451       457       454       451       457       459       454       457       459
       463       461       464       463       461       465       463       461       466
       464       461       465       464       461       466       465       461       466
       461       466       468       461       466       474       468       466       474
       466       468       470       466       468       471       470       468       471
       468       471       473       468       471       477       473       471       477
       466       474       476       466       474       477       476       474       477
       471       477       474       471       477       479       474       477       479
       483       481       484       483       481       485       483       481       486
       484       481       485       484       481       486       485       481       486
       481       486       488       481       486       494       488       486       494
       486       488       490       486       488       491       490       488       491
       488       491       493       488       491       497       493       491       497
       486       494       496       486       494       497       496       494       497
       491       497       494       491       497       499       494       497       499
       503       501       504       503       501       505       503       501       506
       504       501       505       504       501       506       505       501       506
       501       506       508       501       506       514       508       506       514
       506       508       510       506       508       511       510       508       511
       508       511       513       508       511       517       513       511       517
       506       514       516       506       514       517       516       514       517
       511       517       514       511       517       519       514       517       519
       523       521       524       523       521       525       523       521       526
       524       521       525       524       521       526       525       521       526
       521       526       528       521       526       534       528       526       534
       526       528       530       526       528       531       530       528       531
       528       531       533       528       531       537       533       531       537
       526       534       536       526       534       537       536       534       537
       531       537       534       531       537       539       534       537       539
       543       541       544       543       541       545       543       541       546
       544       541       545       544       541       546       545       541       546
       541       546       548       541       546       554       548       546       554
       546       548       550       546       548       551       550       548       551
       548       551       553       548       551       557       553       551       557
       546       554       556       546       554       557       556       554       557
       551       557       554       551       557       559       554       557       559
       563       561       564       563       561       565       563       561       566
       564       561       565       564       561       566       565       561       566
       561       566       568       561       566       574       568       566       574
       566       568       570       566       568       571       570       568       571
       568       571       573       568       571       577       573       571       577
       566       574       576       566       574       577       576       574       577
       571       577       574       571       577       579       574       577       579
       583       581       584       583       581       585       583       581       586
       584       581       585       584       581       586       585       581       586
       581       586       588       581       586       594       588       586       594
       586       588       590       586       588       591       590       588       591
       588       591       593       588       591       597       593       591       597
       586       594       596       586       594       597       596       594       597
       591       597       594       591       597       599       594       597       599
       603       601       604       603       601       605       603       601       606
       604       601       605       604       601       606       605       601       606
       601       606       608       601       606       614       608       606       614
       606       608       610       606       608       611       610       608       611
       608       611       613       608       611       617       613       611       617
       606       614       616       606       614       617       616       614       617
       611       617       614       611       617       619       614       617       619
       623       621       624       623       621       625       623       621       626
       624       621       625       624       621       626       625       621       626
       621       626       628       621       626       634       628       626       634
       626       628       630       626       628       631       630       628       631
       628       631       633       628       631       637       633       631       637
       626       634       636       626       634       637       636       634       637
       631       637       634       631       637       639       634       637       639
       643       641       644       643       641       645       643       641       646
       644       641       645       644       641       646       645       641       646
       641       646       648       641       646       654       648       646       654
       646       648       650       646       648       651       650       648       651
       648       651       653       648       651       657       653       651       657
       646       654       656       646       654       657       656       654       657
       651       657       654       651       657       659       654       657       659
       663       661       664       663       661       665       663       661       666
       664       661       665       664       661       666       665       661       666
       661       666       668       661       666       674       668       666       674
       666       668       670       666       668       671       670       668       671
       668       671       673       668       671       677       673       671       677
       666       674       676       666       674       677       676       674       677
       671       677       674       671       677       679       674       677       679
       683       681       684       683       681       685       683       681       686
       684       681       685       684       681       686       685       681       686
       681       686       688       681       686       694       688       686       694
       686       688       690       686       688       691       690       688       691
       688       691       693       688       691       697       693       691       697
       686       694       696       686       694       697       696       694       697
       691       697       694       691       697       699       694       697       699
       703       701       704       703       701       705       703       701       706
       704       701       705       704       701       706       705       701       706
       701       706       708       701       706       714       708       706       714
       706       708       710       706       708       711       710       708       711
       708       711       713       708       711       717       713       711       717
       706       714       716       706       714       717       716       714       717
       711       717       714       711       717       719       714       717       719
       723       721       724       723       721       725       723       721       726
       724       721       725       724       721       726       725       721       726
       721       726       728       721       726       734       728       726       734
       726       728       730       726       728       731       730       728       731
       728       731       733       728       731       737       733       731       737
       726       734       736       726       734       737       736       734       737
       731       737       734       731       737       739       734       737       739
       743       741       744       743       741       745       743       741       746
       744       741       745       744       741       746       745       741       746
       741       746       748       741       746       754       748       746       754
       746       748       750       746       748       751       750       748       751
       748       751       753       748       751       757       753       751       757
       746       754       756       746       754       757       756       754       757
       751       757       754       751       757       759       754       757       759
       763       761       764       763       761       765       763       761       766
       764       761       765       764       761       766       765       761       766
       761       766       768       761       766       774       768       766       774
       766       768       770       766       768       771       770       768       771
       768       771       773       768       771       777       773       771       777
       766       774       776       766       774       777       776       774       777
       771       777       774       771       777       779       774       777       779
       783       781       784       783       781       785       783       781       786
       784       781       785       784       781       786       785       781       786
       781       786       788       781       786       794       788       786       794
       786       788       790       786       788       791       790       788       791
       788       791       793       788       791       797       793       791       797
       786       794       796       786       794       797       796       794       797
       791       797       794       791       797       799       794       797       799
       803       801       804       803       801       805       803       801       806
       804       801       805       804       801       806       805       801       806
       801       806       808       801       806       814       808       806       814
       806       808       810       806       808       811       810       808       811
       808       811       813       808       811       817       813       811       817
       806       814       816       806       814       817       816       814       817
       811       817       814       811       817       819       814       817       819
       823       821       824       823       821       825       823       821       826
       824       821       825       824       821       826       825       821       826
       821       826       828       821       826       834       828       826       834
       826       828       830       826       828       831       830       828       831
       828       831       833       828       831       837       833       831       837
       826       834       836       826       834       837       836       834       837
       831       837       834       831       837       839       834       837       839
       843       841       844       843       841       845       843       841       846
       844       841       845       844       841       846       845       841       846
       841       846       848       841       846       854       848       846       854
       846       848       850       846       848       851       850       848       851
       848       851       853       848       851       857       853       851       857
       846       854       856       846       854       857       856       854       857
       851       857       854       851       857       859       854       857       859
       863       861       864       863       861       865       863       861       866
       864       861       865       864       861       866       865       861       866
       861       866       868       861       866       874       868       866       874
       866       868       870       866       868       871       870       868       871
       868       871       873       868       871       877       873       871       877
       866       874       876       866       874       877       876       874       877
       871       877       874       871       877       879       874       877       879
       883       881       884       883       881       885       883       881       886
       884       881       885       884       881       886       885       881       886
       881       886       888       881       886       894       888       886       894
       886       888       890       886       888       891       890       888       891
       888       891       893       888       891       897       893       891       897
       886       894       896       886       894       897       896       894       897
       891       897       894       891       897       899       894       897       899
       903       901       904       903       901       905       903       901       906
       904       901       905       904       901       906       905       901       906
       901       906       908       901       906       914       908       906       914
       906       908       910       906       908       911       910       908       911
       908       911       913       908       911       917       913       911       917
       906       914       916       906       914       917       916       914       917
       911       917       914       911       917       919       914       917       919
       923       921       924       923       921       925       923       921       926
       924       921       925       924       921       926       925       921       926
       921       926       928       921       926       934       928       926       934
       926       928       930       926       928       931       930       928       931
       928       931       933       928       931       937       933       931       937
       926       934       936       926       934       937       936       934       937
       931       937       934       931       937       939       934       937       939
       943       941       944       943       941       945       943       941       946
       944       941       945       944       941       946       945       941       946
       941       946       948       941       946       954       948       946       954
       946       948       950       946       948       951       950       948       951
       948       951       953       948       951       957       953       951       957
       946       954       956       946       954       957       956       954       957
       951       957       954       951       957       959       954       957       959
       963       961       964       963       961       965       963       961       966
       964       961       965       964       961       966       965       961       966
       961       966       968       961       966       974       968       966       974
       966       968       970       966       968       971       970       968       971
       968       971       973       968       971       977       973       971       977
       966       974       976       966       974       977       976       974       977
       971       977       974       971       977       979       974       977       979
       983       981       984       983       981       985       983       981       986
       984       981       985       984       981       986       985       981       986
       981       986       988       981       986       994       988       986       994
       986       988       990       986       988       991       990       988       991
       988       991       993       988       991       997       993       991       997
       986       994       996       986       994       997       996       994       997
       991       997       994       991       997       999       994       997       999
      1003      1001      1004      1003      1001      1005      1003      1001      1006
      1004      1001      1005      1004      1001      1006      1005      1001      1006
      1001      1006      1008      1001      1006      1014      1008      1006      1014
      1006      1008      1010      1006      1008      1011      1010      1008      1011
      1008      1011      1013      1008      1011      1017      1013      1011      1017
      1006      1014      1016      1006      1014      1017      1016      1014      1017
      1011      1017      1014      1011      1017      1019      1014      1017      1019
      1023      1021      1024      1023      1021      1025      1023      1021      1026
      1024      1021      1025      1024      1021      1026      1025      1021      1026
      1021      1026      1028      1021      1026      1034      1028      1026      1034
      1026      1028      1030      1026      1028      1031      1030      1028      1031
      1028      1031      1033      1028      1031      1037      1033      1031      1037
      1026      1034      1036      1026      1034      1037      1036      1034      1037
      1031      1037      1034      1031      1037      1039      1034      1037      1039
      1043      1041      1044      1043      1041      1045      1043      1041      1046
      1044      1041      1045      1044      1041      1046      1045      1041      1046
      1041      1046      1048      1041      1046      1054      1048      1046      1054
      1046      1048      1050      1046      1048      1051      1050      1048      1051
      1048      1051      1053      1048      1051      1057      1053      1051      1057
      1046      1054      1056      1046      1054      1057      1056      1054      1057
      1051      1057      1054      1051      1057      1059      1054      1057      1059
      1063      1061      1064      1063      1061      1065      1063      1061      1066
      1064      1061      1065      1064      1061      1066      1065      1061      1066
      1061      1066      1068      1061      1066      1074      1068      1066      1074
      1066      1068      1070      1066      1068      1071      1070      1068      1071
      1068      1071      1073      1068      1071      1077      1073      1071      1077
      1066      1074      1076      1066      1074      1077      1076      1074      1077
      1071      1077      1074      1071      1077      1079      1074      1077      1079
      1083      1081      1084      1083      1081      1085      1083      1081      1086
      1084      1081      1085      1084      1081      1086      1085      1081      1086
      1081      1086      1088      1081      1086      1094      1088      1086      1094
      1086      1088      1090      1086      1088      1091      1090      1088      1091
      1088      1091      1093      1088      1091      1097      1093      1091      1097
      1086      1094      1096      1086      1094      1097      1096      1094      1097
      1091      1097      1094      1091      1097      1099      1094      1097      1099
      1103      1101      1104      1103      1101      1105      1103      1101      1106
      1104      1101      1105      1104      1101      1106      1105      1101      1106
      1101      1106      1108      1101      1106      1114      1108      1106      1114
      1106      1108      1110      1106      1108      1111      1110      1108      1111
      1108      1111      1113      1108      1111      1117      1113      1111      1117
      1106      1114      1116      1106      1114      1117      1116      1114      1117
      1111      1117      1114      1111      1117      1119      1114      1117      1119
      1123      1121      1124      1123      1121      1125      1123      1121      1126
      1124      1121      1125      1124      1121      1126      1125      1121      1126
      1121      1126      1128      1121      1126      1134      1128      1126      1134
      1126      1128      1130      1126      1128      1131      1130      1128      1131
      1128      1131      1133      1128      1131      1137      1133      1131      1137
      1126      1134      1136      1126      1134      1137      1136      1134      1137
      1131      1137      1134      1131      1137      1139      1134      1137      1139
      1143      1141      1144      1143      1141      1145      1143      1141      1146
      1144      1141      1145      1144      1141      1146      1145      1141      1146
      1141      1146      1148      1141      1146      1154      1148      1146      1154
      1146      1148      1150      1146      1148      1151      1150      1148      1151
      1148      1151      1153      1148      1151      1157      1153      1151      1157
      1146      1154      1156      1146      1154      1157      1156      1154      1157
      1151      1157      1154      1151      1157      1159      1154      1157      1159
      1163      1161      1164      1163      1161      1165      1163      1161      1166
      1164      1161      1165      1164      1161      1166      1165      1161      1166
      1161      1166      1168      1161      1166      1174      1168      1166      1174
      1166      1168      1170      1166      1168      1171      1170      1168      1171
      1168      1171      1173      1168      1171      1177      1173      1171      1177
      1166      1174      1176      1166      1174      1177      1176      1174      1177
      1171      1177      1174      1171      1177      1179      1174      1177      1179
      1183      1181      1184      1183      1181      1185      1183      1181      1186
      1184      1181      1185      1184      1181      1186      1185      1181      1186
      1181      1186      1188      1181      1186      1194      1188      1186      1194
      1186      1188      1190      1186      1188      1191      1190      1188      1191
      1188      1191      1193      1188      1191      1197      1193      1191      1197
      1186      1194      1196      1186      1194      1197      1196      1194      1197
      1191      1197      1194      1191      1197      1199      1194      1197      1199
      1203      1201      1204      1203      1201      1205      1203      1201      1206
      1204      1201      1205      1204      1201      1206      1205      1201      1206
      1201      1206      1208      1201      1206      1214      1208      1206      1214
      1206      1208      1210      1206      1208      1211      1210      1208      1211
      1208      1211      1213      1208      1211      1217      1213      1211      1217
      1206      1214      1216      1206      1214      1217      1216      1214      1217
      1211      1217      1214      1211      1217      1219      1214      1217      1219
      1223      1221      1224      1223      1221      1225      1223      1221      1226
      1224      1221      1225      1224      1221      1226      1225      1221      1226
      1221      1226      1228      1221      1226      1234      1228      1226      1234
      1226      1228      1230      1226      1228      1231      1230      1228      1231
      1228      1231      1233      1228      1231      1237      1233      1231      1237
      1226      1234      1236      1226      1234      1237      1236      1234      1237
      1231      1237      1234      1231      1237      1239      1234      1237      1239
      1243      1241      1244      1243      1241      1245      1243      1241      1246
      1244      1241      1245      1244      1241      1246      1245      1241      1246
      1241      1246      1248      1241      1246      1254      1248      1246      1254
      1246      1248      1250      1246      1248      1251      1250      1248      1251
      1248      1251      1253      1248      1251      1257      1253      1251      1257
      1246      1254      1256      1246      1254      1257      1256      1254      1257
      1251      1257      1254      1251      1257      1259      1254      1257      1259
      1263      1261      1264      1263      1261      1265      1263      1261      1266
      1264      1261      1265      1264      1261      1266      1265      1261      1266
      1261      1266      1268      1261      1266      1274      1268      1266      1274
      1266      1268      1270      1266      1268      1271      1270      1268      1271
      1268      1271      1273      1268      1271      1277      1273      1271      1277
      1266      1274      1276      1266      1274      1277      1276      1274      1277
      1271      1277      1274      1271      1277      1279      1274      1277      1279
      1283      1281      1284      1283      1281      1285      1283      1281      1286
      1284      1281      1285      1284      1281      1286      1285      1281      1286
      1281      1286      1288      1281      1286      1294      1288      1286      1294
      1286      1288      1290      1286      1288      1291      1290      1288      1291
      1288      1291      1293      1288      1291      1297      1293      1291      1297
      1286      1294      1296      1286      1294      1297      1296      1294      1297
      1291      1297      1294      1291      1297      1299      1294      1297      1299
      1303      1301      1304      1303      1301      1305      1303      1301      1306
      1304      1301      1305      1304      1301      1306      1305      1301      1306
      1301      1306      1308      1301      1306      1314      1308      1306      1314
      1306      1308      1310      1306      1308      1311      1310      1308      1311
      1308      1311      1313      1308      1311      1317      1313      1311      1317
      1306      1314      1316      1306      1314      1317      1316      1314      1317
      1311      1317      1314      1311      1317      1319      1314      1317      1319
      1323      1321      1324      1323      1321      1325      1323      1321      1326
      1324      1321      1325      1324      1321      1326      1325      1321      1326
      1321      1326      1328      1321      1326      1334      1328      1326      1334
      1326      1328      1330      1326      1328      1331      1330      1328      1331
      1328      1331      1333      1328      1331      1337      1333      1331      1337
      1326      1334      1336      1326      1334      1337      1336      1334      1337
      1331      1337      1334      1331      1337      1339      1334      1337      1339
      1343      1341      1344      1343      1341      1345      1343      1341      1346
      1344      1341      1345      1344      1341      1346      1345      1341      1346
      1341      1346      1348      1341      1346      1354      1348      1346      1354
      1346      1348      1350      1346      1348      1351      1350      1348      1351
      1348      1351      1353      1348      1351      1357      1353      1351      1357
      1346      1354      1356      1346      1354      1357      1356      1354      1357
      1351      1357      1354      1351      1357      1359      1354      1357      1359
      1363      1361      1364      1363      1361      1365      1363      1361      1366
      1364      1361      1365      1364      1361      1366      1365      1361      1366
      1361      1366      1368      1361      1366      1374      1368      1366      1374
      1366      1368      1370      1366      1368      1371      1370      1368      1371
      1368      1371      1373      1368      1371      1377      1373      1371      1377
      1366      1374      1376      1366      1374      1377      1376      1374      1377
      1371      1377      1374      1371      1377      1379      1374      1377      1379
      1383      1381      1384      1383      1381      1385      1383      1381      1386
      1384      1381      1385      1384      1381      1386      1385      1381      1386
      1381      1386      1388      1381      1386      1394      1388      1386      1394
      1386      1388      1390      1386      1388      1391      1390      1388      1391
      1388      1391      1393      1388      1391      1397      1393      1391      1397
      1386      1394      1396      1386      1394      1397      1396      1394      1397
      1391      1397      1394      1391      1397      1399      1394      1397      1399
      1403      1401      1404      1403      1401      1405      1403      1401      1406
      1404      1401      1405      1404      1401      1406      1405      1401      1406
      1401      1406      1408      1401      1406      1414      1408      1406      1414
      1406      1408      1410      1406      1408      1411      1410      1408      1411
      1408      1411      1413      1408      1411      1417      1413      1411      1417
      1406      1414      1416      1406      1414      1417      1416      1414      1417
      1411      1417      1414      1411      1417      1419      1414      1417      1419
      1423      1421      1424      1423      1421      1425      1423      1421      1426
      1424      1421      1425      1424      1421      1426      1425      1421      1426
      1421      1426      1428      1421      1426      1434      1428      1426      1434
      1426      1428      1430      1426      1428      1431      1430      1428      1431
      1428      1431      1433      1428      1431      1437      1433      1431      1437
      1426      1434      1436      1426      1434      1437      1436      1434      1437
      1431      1437      1434      1431      1437      1439      1434      1437      1439
      1443      1441      1444      1443      1441      1445      1443      1441      1446
      1444      1441      1445      1444      1441      1446      1445      1441      1446
      1441      1446      1448      1441      1446      1454      1448      1446      1454
      1446      1448      1450      1446      1448      1451      1450      1448      1451
      1448      1451      1453      1448      1451      1457      1453      1451      1457
      1446      1454      1456      1446      1454      1457      1456      1454      1457
      1451      1457      1454      1451      1457      1459      1454      1457      1459
      1463      1461      1464      1463      1461      1465      1463      1461      1466
      1464      1461      1465      1464      1461      1466      1465      1461      1466
      1461      1466      1468      1461      1466      1474      1468      1466      1474
      1466      1468      1470      1466      1468      1471      1470      1468      1471
      1468      1471      1473      1468      1471      1477      1473      1471      1477
      1466      1474      1476      1466      1474      1477      1476      1474      1477
      1471      1477      1474      1471      1477      1479      1474      1477      1479
      1483      1481      1484      1483      1481      1485      1483      1481      1486
      1484      1481      1485      1484      1481      1486      1485      1481      1486
      1481      1486      1488      1481      1486      1494      1488      1486      1494
      1486      1488      1490      1486      1488      1491      1490      1488      1491
      1488      1491      1493      1488      1491      1497      1493      1491      1497
      1486      1494      1496      1486      1494      1497      1496      1494      1497
      1491      1497      1494      1491      1497      1499      1494      1497      1499
      1503      1501      1504      1503      1501      1505      1503      1501      1506
      1504      1501      1505      1504      1501      1506      1505      1501      1506
      1501      1506      1508      1501      1506      1514      1508      1506      1514
      1506      1508      1510      1506      1508      1511      1510      1508      1511
      1508      1511      1513      1508      1511      1517      1513      1511      1517
      1506      1514      1516      1506      1514      1517      1516      1514      1517
      1511      1517      1514      1511      1517      1519      1514      1517      1519
      1523      1521      1524      1523      1521      1525      1523      1521      1526
      1524      1521      1525      1524      1521      1526      1525      1521      1526
      1521      1526      1528      1521      1526      1534      1528      1526      1534
      1526      1528      1530      1526      1528      1531      1530      1528      1531
      1528      1531      1533      1528      1531      1537      1533      1531      1537
      1526      1534      1536      1526      1534      1537      1536      1534      1537
      1531      1537      1534      1531      1537      1539      1534      1537      1539
      1543      1541      1544      1543      1541      1545      1543      1541      1546
      1544      1541      1545      1544      1541      1546      1545      1541      1546
      1541      1546      1548      1541      1546      1554      1548      1546      1554
      1546      1548      1550      1546      1548      1551      1550      1548      1551
      1548      1551      1553      1548      1551      1557      1553      1551      1557
      1546      1554      1556      1546      1554      1557      1556      1554      1557
      1551      1557      1554      1551      1557      1559      1554      1557      1559
      1563      1561      1564      1563      1561      1565      1563      1561      1566
      1564      1561      1565      1564      1561      1566      1565      1561      1566
      1561      1566      1568      1561      1566      1574      1568      1566      1574
      1566      1568      1570      1566      1568      1571      1570      1568      1571
      1568      1571      1573      1568      1571      1577      1573      1571      1577
      1566      1574      1576      1566      1574      1577      1576      1574      1577
      1571      1577      1574      1571      1577      1579      1574      1577      1579
      1583      1581      1584      1583      1581      1585      1583      1581      1586
      1584      1581      1585      1584      1581      1586      1585      1581      1586
      1581      1586      1588      1581      1586      1594      1588      1586      1594
      1586      1588      1590      1586      1588      1591      1590      1588      1591
      1588      1591      1593      1588      1591      1597      1593      1591      1597
      1586      1594      1596      1586      1594      1597      1596      1594      1597
      1591      1597      1594      1591      1597      1599      1594      1597      1599
      1603      1601      1604      1603      1601      1605      1603      1601      1606
      1604      1601      1605      1604      1601      1606      1605      1601      1606
      1601      1606      1608      1601      1606      1614      1608      1606      1614
      1606      1608      1610      1606      1608      1611      1610      1608      1611
      1608      1611      1613      1608      1611      1617      1613      1611      1617
      1606      1614      1616      1606      1614      1617      1616      1614      1617
      1611      1617      1614      1611      1617      1619      1614      1617      1619
      1623      1621      1624      1623      1621      1625      1623      1621      1626
      1624      1621      1625      1624      1621      1626      1625      1621      1626
      1621      1626      1628      1621      1626      1634      1628      1626      1634
      1626      1628      1630      1626      1628      1631      1630      1628      1631
      1628      1631      1633      1628      1631      1637      1633      1631      1637
      1626      1634      1636      1626      1634      1637      1636      1634      1637
      1631      1637      1634      1631      1637      1639      1634      1637      1639
      1643      1641      1644      1643      1641      1645      1643      1641      1646
      1644      1641      1645      1644      1641      1646      1645      1641      1646
      1641      1646      1648      1641      1646      1654      1648      1646      1654
      1646      1648      1650      1646      1648      1651      1650      1648      1651
      1648      1651      1653      1648      1651      1657      1653      1651      1657
      1646      1654      1656      1646      1654      1657      1656      1654      1657
      1651      1657      1654      1651      1657      1659      1654      1657      1659
      1663      1661      1664      1663      1661      1665      1663      1661      1666
      1664      1661      1665      1664      1661      1666      1665      1661      1666
      1661      1666      1668      1661      1666      1674      1668      1666      1674
      1666      1668      1670      1666      1668      1671      1670      1668      1671
      1668      1671      1673      1668      1671      1677      1673      1671      1677
      1666      1674      1676      1666      1674      1677      1676      1674      1677
      1671      1677      1674      1671      1677      1679      1674      1677      1679
      1683      1681      1684      1683      1681      1685      1683      1681      1686
      1684      1681      1685      1684      1681      1686      1685      1681      1686
      1681      1686      1688      1681      1686      1694      1688      1686      1694
      1686      1688      1690      1686      1688      1691      1690      1688      1691
      1688      1691      1693      1688      1691      1697      1693      1691      1697
      1686      1694      1696      1686      1694      1697      1696      1694      1697
      1691      1697      1694      1691      1697      1699      1694      1697      1699
      1703      1701      1704      1703      1701      1705      1703      1701      1706
      1704      1701      1705      1704      1701      1706      1705      1701      1706
      1701      1706      1708      1701      1706      1714      1708      1706      1714
      1706      1708      1710      1706      1708      1711      1710      1708      1711
      1708      1711      1713      1708      1711      1717      1713      1711      1717
      1706      1714      1716      1706      1714      1717      1716      1714      1717
      1711      1717      1714      1711      1717      1719      1714      1717      1719
      1723      1721      1724      1723      1721      1725      1723      1721      1726
      1724      1721      1725      1724      1721      1726      1725      1721      1726
      1721      1726      1728      1721      1726      1734      1728      1726      1734
      1726      1728      1730      1726      1728      1731      1730      1728      1731
      1728      1731      1733      1728      1731      1737      1733      1731      1737
      1726      1734      1736      1726      1734      1737      1736      1734      1737
      1731      1737      1734      1731      1737      1739      1734      1737      1739
      1743      1741      1744      1743      1741      1745      1743      1741      1746
      1744      1741      1745      1744      1741      1746      1745      1741      1746
      1741      1746      1748      1741      1746      1754      1748      1746      1754
      1746      1748      1750      1746      1748      1751      1750      1748      1751
      1748      1751      1753      1748      1751      1757      1753      1751      1757
      1746      1754      1756      1746      1754      1757      1756      1754      1757
      1751      1757      1754      1751      1757      1759      1754      1757      1759
      1763      1761      1764      1763      1761      1765      1763      1761      1766
      1764      1761      1765      1764      1761      1766      1765      1761      1766
      1761      1766      1768      1761      1766      1774      1768      1766      1774
      1766      1768      1770      1766      1768      1771      1770      1768      1771
      1768      1771      1773      1768      1771      1777      1773      1771      1777
      1766      1774      1776      1766      1774      1777      1776      1774      1777
      1771      1777      1774      1771      1777      1779      1774      1777      1779
      1783      1781      1784      1783      1781      1785      1783      1781      1786
      1784      1781      1785      1784      1781      1786      1785      1781      1786
      1781      1786      1788      1781      1786      1794      1788      1786      1794
      1786      1788      1790      1786      1788      1791      1790      1788      1791
      1788      1791      1793      1788      1791      1797      1793      1791      1797
      1786      1794      1796      1786      1794      1797      1796      1794      1797
      1791      1797      1794      1791      1797      1799      1794      1797      1799
      1803      1801      1804      1803      1801      1805      1803      1801      1806
      1804      1801      1805      1804      1801      1806      1805      1801      1806
      1801      1806      1808      1801      1806      1814      1808      1806      1814
      1806      1808      1810      1806      1808      1811      1810      1808      1811
      1808      1811      1813      1808      1811      1817      1813      1811      1817
      1806      1814      1816      1806      1814      1817      1816      1814      1817
      1811      1817      1814      1811      1817      1819      1814      1817      1819
      1823      1821      1824      1823      1821      1825      1823      1821      1826
      1824      1821      1825      1824      1821      1826      1825      1821      1826
      1821      1826      1828      1821      1826      1834      1828      1826      1834
      1826      1828      1830      1826      1828      1831      1830      1828      1831
      1828      1831      1833      1828      1831      1837      1833      1831      1837
      1826      1834      1836      1826      1834      1837      1836      1834      1837
      1831      1837      1834      1831      1837      1839      1834      1837      1839
      1843      1841      1844      1843      1841      1845      1843      1841      1846
      1844      1841      1845      1844      1841      1846      1845      1841      1846
      1841      1846      1848      1841      1846      1854      1848      1846      1854
      1846      1848      1850      1846      1848      1851      1850      1848      1851
      1848      1851      1853      1848      1851      1857      1853      1851      1857
      1846      1854      1856      1846      1854      1857      1856      1854      1857
      1851      1857      1854      1851      1857      1859      1854      1857      1859
      1863      1861      1864      1863      1861      1865      1863      1861      1866
      1864      1861      1865      1864      1861      1866      1865      1861      1866
      1861      1866      1868      1861      1866      1874      1868      1866      1874
      1866      1868      1870      1866      1868      1871      1870      1868      1871
      1868      1871      1873      1868      1871      1877      1873      1871      1877
      1866      1874      1876      1866      1874      1877      1876      1874      1877
      1871      1877      1874      1871      1877      1879      1874      1877      1879
      1883      1881      1884      1883      1881      1885      1883      1881      1886
      1884      1881      1885      1884      1881      1886      1885      1881      1886
      1881      1886      1888      1881      1886      1894      1888      1886      1894
      1886      1888      1890      1886      1888      1891      1890      1888      1891
      1888      1891      1893      1888      1891      1897      1893      1891      1897
      1886      1894      1896      1886      1894      1897      1896      1894      1897
      1891      1897      1894      1891      1897      1899      1894      1897      1899
      1903      1901      1904      1903      1901      1905      1903      1901      1906
      1904      1901      1905      1904      1901      1906      1905      1901      1906
      1901      1906      1908      1901      1906      1914      1908      1906      1914
      1906      1908      1910      1906      1908      1911      1910      1908      1911
      1908      1911      1913      1908      1911      1917      1913      1911      1917
      1906      1914      1916      1906      1914      1917      1916      1914      1917
      1911      1917      1914      1911      1917      1919      1914      1917      1919
      1923      1921      1924      1923      1921      1925      1923      1921      1926
      1924      1921      1925      1924      1921      1926      1925      1921      1926
      1921      1926      1928      1921      1926      1934      1928      1926      1934
      1926      1928      1930      1926      1928      1931      1930      1928      1931
      1928      1931      1933      1928      1931      1937      1933      1931      1937
      1926      1934      1936      1926      1934      1937      1936      1934      1937
      1931      1937      1934      1931      1937      1939      1934      1937      1939
      1943      1941      1944      1943      1941      1945      1943      1941      1946
      1944      1941      1945      1944      1941      1946      1945      1941      1946
      1941      1946      1948      1941      1946      1954      1948      1946      1954
      1946      1948      1950      1946      1948      1951      1950      1948      1951
      1948      1951      1953      1948      1951      1957      1953      1951      1957
      1946      1954      1956      1946      1954      1957      1956      1954      1957
      1951      1957      1954      1951      1957      1959      1954      1957      1959
      1963      1961      1964      1963      1961      1965      1963      1961      1966
      1964      1961      1965      1964      1961      1966      1965      1961      1966
      1961      1966      1968      1961      1966      1974      1968      1966      1974
      1966      1968      1970      1966      1968      1971      1970      1968      1971
      1968      1971      1973      1968      1971      1977      1973      1971      1977
      1966      1974      1976      1966      1974      1977      1976      1974      1977
      1971      1977      1974      1971      1977      1979      1974      1977      1979
      1983      1981      1984      1983      1981      1985      1983      1981      1986
      1984      1981      1985      1984      1981      1986      1985      1981      1986
      1981      1986      1988      1981      1986      1994      1988      1986      1994
      1986      1988      1990      1986      1988      1991      1990      1988      1991
      1988      1991      1993      1988      1991      1997      1993      1991      1997
      1986      1994      1996      1986      1994      1997      1996      1994      1997
      1991      1997      1994      1991      1997      1999      1994      1997      1999
      2003      2001      2004      2003      2001      2005      2003      2001      2006
      2004      2001      2005      2004      2001      2006      2005      2001      2006
      2001      2006      2008      2001      2006      2014      2008      2006      2014
      2006      2008      2010      2006      2008      2011      2010      2008      2011
      2008      2011      2013      2008      2011      2017      2013      2011      2017
      2006      2014      2016      2006      2014      2017      2016      2014      2017
      2011      2017      2014      2011      2017      2019      2014      2017      2019
      2023      2021      2024      2023      2021      2025      2023      2021      2026
      2024      2021      2025      2024      2021      2026      2025      2021      2026
      2021      2026      2028      2021      2026      2034      2028      2026      2034
      2026      2028      2030      2026      2028      2031      2030      2028      2031
      2028      2031      2033      2028      2031      2037      2033      2031      2037
      2026      2034      2036      2026      2034      2037      2036      2034      2037
      2031      2037      2034      2031      2037      2039      2034      2037      2039
      2043      2041      2044      2043      2041      2045      2043      2041      2046
      2044      2041      2045      2044      2041      2046      2045      2041      2046
      2041      2046      2048      2041      2046      2054      2048      2046      2054
      2046      2048      2050      2046      2048      2051      2050      2048      2051
      2048      2051      2053      2048      2051      2057      2053      2051      2057
      2046      2054      2056      2046      2054      2057      2056      2054      2057
      2051      2057      2054      2051      2057      2059      2054      2057      2059
      2063      2061      2064      2063      2061      2065      2063      2061      2066
      2064      2061      2065      2064      2061      2066      2065      2061      2066
      2061      2066      2068      2061      2066      2074      2068      2066      2074
      2066      2068      2070      2066      2068      2071      2070      2068      2071
      2068      2071      2073      2068      2071      2077      2073      2071      2077
      2066      2074      2076      2066      2074      2077      2076      2074      2077
      2071      2077      2074      2071      2077      2079      2074      2077      2079
      2083      2081      2084      2083      2081      2085      2083      2081      2086
      2084      2081      2085      2084      2081      2086      2085      2081      2086
      2081      2086      2088      2081      2086      2094      2088      2086      2094
      2086      2088      2090      2086      2088      2091      2090      2088      2091
      2088      2091      2093      2088      2091      2097      2093      2091      2097
      2086      2094      2096      2086      2094      2097      2096      2094      2097
      2091      2097      2094      2091      2097      2099      2094      2097      2099
      2103      2101      2104      2103      2101      2105      2103      2101      2106
      2104      2101      2105      2104      2101      2106      2105      2101      2106
      2101      2106      2108      2101      2106      2114      2108      2106      2114
      2106      2108      2110      2106      2108      2111      2110      2108      2111
      2108      2111      2113      2108      2111      2117      2113      2111      2117
      2106      2114      2116      2106      2114      2117      2116      2114      2117
      2111      2117      2114      2111      2117      2119      2114      2117      2119
      2123      2121      2124      2123      2121      2125      2123      2121      2126
      2124      2121      2125      2124      2121      2126      2125      2121      2126
      2121      2126      2128      2121      2126      2134      2128      2126      2134
      2126      2128      2130      2126      2128      2131      2130      2128      2131
      2128      2131      2133      2128      2131      2137      2133      2131      2137
      2126      2134      2136      2126      2134      2137      2136      2134      2137
      2131      2137      2134      2131      2137      2139      2134      2137      2139
      2143      2141      2144      2143      2141      2145      2143      2141      2146
      2144      2141      2145      2144      2141      2146      2145      2141      2146
      2141      2146      2148      2141      2146      2154      2148      2146      2154
      2146      2148      2150      2146      2148      2151      2150      2148      2151
      2148      2151      2153      2148      2151      2157      2153      2151      2157
      2146      2154      2156      2146      2154      2157      2156      2154      2157
      2151      2157      2154      2151      2157      2159      2154      2157      2159
      2163      2161      2164      2163      2161      2165      2163      2161      2166
      2164      2161      2165      2164      2161      2166      2165      2161      2166
      2161      2166      2168      2161      2166      2174      2168      2166      2174
      2166      2168      2170      2166      2168      2171      2170      2168      2171
      2168      2171      2173      2168      2171      2177      2173      2171      2177
      2166      2174      2176      2166      2174      2177      2176      2174      2177
      2171      2177      2174      2171      2177      2179      2174      2177      2179
      2183      2181      2184      2183      2181      2185      2183      2181      2186
      2184      2181      2185      2184      2181      2186      2185      2181      2186
      2181      2186      2188      2181      2186      2194      2188      2186      2194
      2186      2188      2190      2186      2188      2191      2190      2188      2191
      2188      2191      2193      2188      2191      2197      2193      2191      2197
      2186      2194      2196      2186      2194      2197      2196      2194      2197
      2191      2197      2194      2191      2197      2199      2194      2197      2199
      2203      2201      2204      2203      2201      2205      2203      2201      2206
      2204      2201      2205      2204      2201      2206      2205      2201      2206
      2201      2206      2208      2201      2206      2214      2208      2206      2214
      2206      2208      2210      2206      2208      2211      2210      2208      2211
      2208      2211      2213      2208      2211      2217      2213      2211      2217
      2206      2214      2216      2206      2214      2217      2216      2214      2217
      2211      2217      2214      2211      2217      2219      2214      2217      2219
      2223      2221      2224      2223      2221      2225      2223      2221      2226
      2224      2221      2225      2224      2221      2226      2225      2221      2226
      2221      2226      2228      2221      2226      2234      2228      2226      2234
      2226      2228      2230      2226      2228      2231      2230      2228      2231
      2228      2231      2233      2228      2231      2237      2233      2231      2237
      2226      2234      2236      2226      2234      2237      2236      2234      2237
      2231      2237      2234      2231      2237      2239      2234      2237      2239
      2243      2241      2244      2243      2241      2245      2243      2241      2246
      2244      2241      2245      2244      2241      2246      2245      2241      2246
      2241      2246      2248      2241      2246      2254      2248      2246      2254
      2246      2248      2250      2246      2248      2251      2250      2248      2251
      2248      2251      2253      2248      2251      2257      2253      2251      2257
      2246      2254      2256      2246      2254      2257      2256      2254      2257
      2251      2257      2254      2251      2257      2259      2254      2257      2259
      2263      2261      2264      2263      2261      2265      2263      2261      2266
      2264      2261      2265      2264      2261      2266      2265      2261      2266
      2261      2266      2268      2261      2266      2274      2268      2266      2274
      2266      2268      2270      2266      2268      2271      2270      2268      2271
      2268      2271      2273      2268      2271      2277      2273      2271      2277
      2266      2274      2276      2266      2274      2277      2276      2274      2277
      2271      2277      2274      2271      2277      2279      2274      2277      2279
      2283      2281      2284      2283      2281      2285      2283      2281      2286
      2284      2281      2285      2284      2281      2286      2285      2281      2286
      2281      2286      2288      2281      2286      2294      2288      2286      2294
      2286      2288      2290      2286      2288      2291      2290      2288      2291
      2288      2291      2293      2288      2291      2297      2293      2291      2297
      2286      2294      2296      2286      2294      2297      2296      2294      2297
      2291      2297      2294      2291      2297      2299      2294      2297      2299
      2303      2301      2304      2303      2301      2305      2303      2301      2306
      2304      2301      2305      2304      2301      2306      2305      2301      2306
      2301      2306      2308      2301      2306      2314      2308      2306      2314
      2306      2308      2310      2306      2308      2311      2310      2308      2311
      2308      2311      2313      2308      2311      2317      2313      2311      2317
      2306      2314      2316      2306      2314      2317      2316      2314      2317
      2311      2317      2314      2311      2317      2319      2314      2317      2319
      2323      2321      2324      2323      2321      2325      2323      2321      2326
      2324      2321      2325      2324      2321      2326      2325      2321      2326
      2321      2326      2328      2321      2326      2334      2328      2326      2334
      2326      2328      2330      2326      2328      2331      2330      2328      2331
      2328      2331      2333      2328      2331      2337      2333      2331      2337
      2326      2334      2336      2326      2334      2337      2336      2334      2337
      2331      2337      2334      2331      2337      2339      2334      2337      2339
      2343      2341      2344      2343      2341      2345      2343      2341      2346
      2344      2341      2345      2344      2341      2346      2345      2341      2346
      2341      2346      2348      2341      2346      2354      2348      2346      2354
      2346      2348      2350      2346      2348      2351      2350      2348      2351
      2348      2351      2353      2348      2351      2357      2353      2351      2357
      2346      2354      2356      2346      2354      2357      2356      2354      2357
      2351      2357      2354      2351      2357      2359      2354      2357      2359
      2363      2361      2364      2363      2361      2365      2363      2361      2366
      2364      2361      2365      2364      2361      2366      2365      2361      2366
      2361      2366      2368      2361      2366      2374      2368      2366      2374
      2366      2368      2370      2366      2368      2371      2370      2368      2371
      2368      2371      2373      2368      2371      2377      2373      2371      2377
      2366      2374      2376      2366      2374      2377      2376      2374      2377
      2371      2377      2374      2371      2377      2379      2374      2377      2379
      2383      2381      2384      2383      2381      2385      2383      2381      2386
      2384      2381      2385      2384      2381      2386      2385      2381      2386
      2381      2386      2388      2381      2386      2394      2388      2386      2394
      2386      2388      2390      2386      2388      2391      2390      2388      2391
      2388      2391      2393      2388      2391      2397      2393      2391      2397
      2386      2394      2396      2386      2394      2397      2396      2394      2397
      2391      2397      2394      2391      2397      2399      2394      2397      2399
      2403      2401      2404      2403      2401      2405      2403      2401      2406
      2404      2401      2405      2404      2401      2406      2405      2401      2406
      2401      2406      2408      2401      2406      2414      2408      2406      2414
      2406      2408      2410      2406      2408      2411      2410      2408      2411
      2408      2411      2413      2408      2411      2417      2413      2411      2417
      2406      2414      2416      2406      2414      2417      2416      2414      2417
      2411      2417      2414      2411      2417      2419      2414      2417      2419
      2423      2421      2424      2423      2421      2425      2423      2421      2426
      2424      2421      2425      2424      2421      2426      2425      2421      2426
      2421      2426      2428      2421      2426      2434      2428      2426      2434
      2426      2428      2430      2426      2428      2431      2430      2428      2431
      2428      2431      2433      2428      2431      2437      2433      2431      2437
      2426      2434      2436      2426      2434      2437      2436      2434      2437
      2431      2437      2434      2431      2437      2439      2434      2437      2439
      2443      2441      2444      2443      2441      2445      2443      2441      2446
      2444      2441      2445      2444      2441      2446      2445      2441      2446
      2441      2446      2448      2441      2446      2454      2448      2446      2454
      2446      2448      2450      2446      2448      2451      2450      2448      2451
      2448      2451      2453      2448      2451      2457      2453      2451      2457
      2446      2454      2456      2446      2454      2457      2456      2454      2457
      2451      2457      2454      2451      2457      2459      2454      2457      2459
      2463      2461      2464      2463      2461      2465      2463      2461      2466
      2464      2461      2465      2464      2461      2466      2465      2461      2466
      2461      2466      2468      2461      2466      2474      2468      2466      2474
      2466      2468      2470      2466      2468      2471      2470      2468      2471
      2468      2471      2473      2468      2471      2477      2473      2471      2477
      2466      2474      2476      2466      2474      2477      2476      2474      2477
      2471      2477      2474      2471      2477      2479      2474      2477      2479
      2483      2481      2484      2483      2481      2485      2483      2481      2486
      2484      2481      2485      2484      2481      2486      2485      2481      2486
      2481      2486      2488      2481      2486      2494      2488      2486      2494
      2486      2488      2490      2486      2488      2491      2490      2488      2491
      2488      2491      2493      2488      2491      2497      2493      2491      2497
      2486      2494      2496      2486      2494      2497      2496      2494      2497
      2491      2497      2494      2491      2497      2499      2494      2497      2499
      2503      2501      2504      2503      2501      2505      2503      2501      2506
      2504      2501      2505      2504      2501      2506      2505      2501      2506
      2501      2506      2508      2501      2506      2514      2508      2506      2514
      2506      2508      2510      2506      2508      2511      2510      2508      2511
      2508      2511      2513      2508      2511      2517      2513      2511      2517
      2506      2514      2516      2506      2514      2517      2516      2514      2517
      2511      2517      2514      2511      2517      2519      2514      2517      2519
      2523      2521      2524      2523      2521      2525      2523      2521      2526
      2524      2521      2525      2524      2521      2526      2525      2521      2526
      2521      2526      2528      2521      2526      2534      2528      2526      2534
      2526      2528      2530      2526      2528      2531      2530      2528      2531
      2528      2531      2533      2528      2531      2537      2533      2531      2537
      2526      2534      2536      2526      2534      2537      2536      2534      2537
      2531      2537      2534      2531      2537      2539      2534      2537      2539
      2543      2541      2544      2543      2541      2545      2543      2541      2546
      2544      2541      2545      2544      2541      2546      2545      2541      2546
      2541      2546      2548      2541      2546      2554      2548      2546      2554
      2546      2548      2550      2546      2548      2551      2550      2548      2551
      2548      2551      2553      2548      2551      2557      2553      2551      2557
      2546      2554      2556      2546      2554      2557      2556      2554      2557
      2551      2557      2554      2551      2557      2559      2554      2557      2559
      2563      2561      2564      2563      2561      2565      2563      2561      2566
      2564      2561      2565      2564      2561      2566      2565      2561      2566
      2561      2566      2568      2561      2566      2574      2568      2566      2574
      2566      2568      2570      2566      2568      2571      2570      2568      2571
      2568      2571      2573      2568      2571      2577      2573      2571      2577
      2566      2574      2576      2566      2574      2577      2576      2574      2577
      2571      2577      2574      2571      2577      2579      2574      2577      2579
      2583      2581      2584      2583      2581      2585      2583      2581      2586
      2584      2581      2585      2584      2581      2586      2585      2581      2586
      2581      2586      2588      2581      2586      2594      2588      2586      2594
      2586      2588      2590      2586      2588      2591      2590      2588      2591
      2588      2591      2593      2588      2591      2597      2593      2591      2597
      2586      2594      2596      2586      2594      2597      2596      2594      2597
      2591      2597      2594      2591      2597      2599      2594      2597      2599
      2603      2601      2604      2603      2601      2605      2603      2601      2606
      2604      2601      2605      2604      2601      2606      2605      2601      2606
      2601      2606      2608      2601      2606      2614      2608      2606      2614
      2606      2608      2610      2606      2608      2611      2610      2608      2611
      2608      2611      2613      2608      2611      2617      2613      2611      2617
      2606      2614      2616      2606      2614      2617      2616      2614      2617
      2611      2617      2614      2611      2617      2619      2614      2617      2619
      2623      2621      2624      2623      2621      2625      2623      2621      2626
      2624      2621      2625      2624      2621      2626      2625      2621      2626
      2621      2626      2628      2621      2626      2634      2628      2626      2634
      2626      2628      2630      2626      2628      2631      2630      2628      2631
      2628      2631      2633      2628      2631      2637      2633      2631      2637
      2626      2634      2636      2626      2634      2637      2636      2634      2637
      2631      2637      2634      2631      2637      2639      2634      2637      2639
      2643      2641      2644      2643      2641      2645      2643      2641      2646
      2644      2641      2645      2644      2641      2646      2645      2641      2646
      2641      2646      2648      2641      2646      2654      2648      2646      2654
      2646      2648      2650      2646      2648      2651      2650      2648      2651
      2648      2651      2653      2648      2651      2657      2653      2651      2657
      2646      2654      2656      2646      2654      2657      2656      2654      2657
      2651      2657      2654      2651      2657      2659      2654      2657      2659
      2663      2661      2664      2663      2661      2665      2663      2661      2666
      2664      2661      2665      2664      2661      2666      2665      2661      2666
      2661      2666      2668      2661      2666      2674      2668      2666      2674
      2666      2668      2670      2666      2668      2671      2670      2668      2671
      2668      2671      2673      2668      2671      2677      2673      2671      2677
      2666      2674      2676      2666      2674      2677      2676      2674      2677
      2671      2677      2674      2671      2677      2679      2674      2677      2679
      2683      2681      2684      2683      2681      2685      2683      2681      2686
      2684      2681      2685      2684      2681      2686      2685      2681      2686
      2681      2686      2688      2681      2686      2694      2688      2686      2694
      2686      2688      2690      2686      2688      2691      2690      2688      2691
      2688      2691      2693      2688      2691      2697      2693      2691      2697
      2686      2694      2696      2686      2694      2697      2696      2694      2697
      2691      2697      2694      2691      2697      2699      2694      2697      2699
      2703      2701      2704      2703      2701      2705      2703      2701      2706
      2704      2701      2705      2704      2701      2706      2705      2701      2706
      2701      2706      2708      2701      2706      2714      2708      2706      2714
      2706      2708      2710      2706      2708      2711      2710      2708      2711
      2708      2711      2713      2708      2711      2717      2713      2711      2717
      2706      2714      2716      2706      2714      2717      2716      2714      2717
      2711      2717      2714      2711      2717      2719      2714      2717      2719
      2723      2721      2724      2723      2721      2725      2723      2721      2726
      2724      2721      2725      2724      2721      2726      2725      2721      2726
      2721      2726      2728      2721      2726      2734      2728      2726      2734
      2726      2728      2730      2726      2728      2731      2730      2728      2731
      2728      2731      2733      2728      2731      2737      2733      2731      2737
      2726      2734      2736      2726      2734      2737      2736      2734      2737
      2731      2737      2734      2731      2737      2739      2734      2737      2739
      2743      2741      2744      2743      2741      2745      2743      2741      2746
      2744      2741      2745      2744      2741      2746      2745      2741      2746
      2741      2746      2748      2741      2746      2754      2748      2746      2754
      2746      2748      2750      2746      2748      2751      2750      2748      2751
      2748      2751      2753      2748      2751      2757      2753      2751      2757
      2746      2754      2756      2746      2754      2757      2756      2754      2757
      2751      2757      2754      2751      2757      2759      2754      2757      2759
      2763      2761      2764      2763      2761      2765      2763      2761      2766
      2764      2761      2765      2764      2761      2766      2765      2761      2766
      2761      2766      2768      2761      2766      2774      2768      2766      2774
      2766      2768      2770      2766      2768      2771      2770      2768      2771
      2768      2771      2773      2768      2771      2777      2773      2771      2777
      2766      2774      2776      2766      2774      2777      2776      2774      2777
      2771      2777      2774      2771      2777      2779      2774      2777      2779
      2783      2781      2784      2783      2781      2785      2783      2781      2786
      2784      2781      2785      2784      2781      2786      2785      2781      2786
      2781      2786      2788      2781      2786      2794      2788      2786      2794
      2786      2788      2790      2786      2788      2791      2790      2788      2791
      2788      2791      2793      2788      2791      2797      2793      2791      2797
      2786      2794      2796      2786      2794      2797      2796      2794      2797
      2791      2797      2794      2791      2797      2799      2794      2797      2799
      2803      2801      2804      2803      2801      2805      2803      2801      2806
      2804      2801      2805      2804      2801      2806      2805      2801      2806
      2801      2806      2808      2801      2806      2814      2808      2806      2814
      2806      2808      2810      2806      2808      2811      2810      2808      2811
      2808      2811      2813      2808      2811      2817      2813      2811      2817
      2806      2814      2816      2806      2814      2817      2816      2814      2817
      2811      2817      2814      2811      2817      2819      2814      2817      2819
      2823      2821      2824      2823      2821      2825      2823      2821      2826
      2824      2821      2825      2824      2821      2826      2825      2821      2826
      2821      2826      2828      2821      2826      2834      2828      2826      2834
      2826      2828      2830      2826      2828      2831      2830      2828      2831
      2828      2831      2833      2828      2831      2837      2833      2831      2837
      2826      2834      2836      2826      2834      2837      2836      2834      2837
      2831      2837      2834      2831      2837      2839      2834      2837      2839
      2843      2841      2844      2843      2841      2845      2843      2841      2846
      2844      2841      2845      2844      2841      2846      2845      2841      2846
      2841      2846      2848      2841      2846      2854      2848      2846      2854
      2846      2848      2850      2846      2848      2851      2850      2848      2851
      2848      2851      2853      2848      2851      2857      2853      2851      2857
      2846      2854      2856      2846      2854      2857      2856      2854      2857
      2851      2857      2854      2851      2857      2859      2854      2857      2859
      2863      2861      2864      2863      2861      2865      2863      2861      2866
      2864      2861      2865      2864      2861      2866      2865      2861      2866
      2861      2866      2868      2861      2866      2874      2868      2866      2874
      2866      2868      2870      2866      2868      2871      2870      2868      2871
      2868      2871      2873      2868      2871      2877      2873      2871      2877
      2866      2874      2876      2866      2874      2877      2876      2874      2877
      2871      2877      2874      2871      2877      2879      2874      2877      2879
      2883      2881      2884      2883      2881      2885      2883      2881      2886
      2884      2881      2885      2884      2881      2886      2885      2881      2886
      2881      2886      2888      2881      2886      2894      2888      2886      2894
      2886      2888      2890      2886      2888      2891      2890      2888      2891
      2888      2891      2893      2888      2891      2897      2893      2891      2897
      2886      2894      2896      2886      2894      2897      2896      2894      2897
      2891      2897      2894      2891      2897      2899      2894      2897      2899
      2903      2901      2904      2903      2901      2905      2903      2901      2906
      2904      2901      2905      2904      2901      2906      2905      2901      2906
      2901      2906      2908      2901      2906      2914      2908      2906      2914
      2906      2908      2910      2906      2908      2911      2910      2908      2911
      2908      2911      2913      2908      2911      2917      2913      2911      2917
      2906      2914      2916      2906      2914      2917      2916      2914      2917
      2911      2917      2914      2911      2917      2919      2914      2917      2919
      2923      2921      2924      2923      2921      2925      2923      2921      2926
      2924      2921      2925      2924      2921      2926      2925      2921      2926
      2921      2926      2928      2921      2926      2934      2928      2926      2934
      2926      2928      2930      2926      2928      2931      2930      2928      2931
      2928      2931      2933      2928      2931      2937      2933      2931      2937
      2926      2934      2936      2926      2934      2937      2936      2934      2937
      2931      2937      2934      2931      2937      2939      2934      2937      2939
      2943      2941      2944      2943      2941      2945      2943      2941      2946
      2944      2941      2945      2944      2941      2946      2945      2941      2946
      2941      2946      2948      2941      2946      2954      2948      2946      2954
      2946      2948      2950      2946      2948      2951      2950      2948      2951
      2948      2951      2953      2948      2951      2957      2953      2951      2957
      2946      2954      2956      2946      2954      2957      2956      2954      2957
      2951      2957      2954      2951      2957      2959      2954      2957      2959
      2963      2961      2964      2963      2961      2965      2963      2961      2966
      2964      2961      2965      2964      2961      2966      2965      2961      2966
      2961      2966      2968      2961      2966      2974      2968      2966      2974
      2966      2968      2970      2966      2968      2971      2970      2968      2971
      2968      2971      2973      2968      2971      2977      2973      2971      2977
      2966      2974      2976      2966      2974      2977      2976      2974      2977
      2971      2977      2974      2971      2977      2979      2974      2977      2979
      2983      2981      2984      2983      2981      2985      2983      2981      2986
      2984      2981      2985      2984      2981      2986      2985      2981      2986
      2981      2986      2988      2981      2986      2994      2988      2986      2994
      2986      2988      2990      2986      2988      2991      2990      2988      2991
      2988      2991      2993      2988      2991      2997      2993      2991      2997
      2986      2994      2996      2986      2994      2997      2996      2994      2997
      2991      2997      2994      2991      2997      2999      2994      2997      2999
      3003      3001      3004      3003      3001      3005      3003      3001      3006
      3004      3001      3005      3004      3001      3006      3005      3001      3006
      3001      3006      3008      3001      3006      3014      3008      3006      3014
      3006      3008      3010      3006      3008      3011      3010      3008      3011
      3008      3011      3013      3008      3011      3017      3013      3011      3017
      3006      3014      3016      3006      3014      3017      3016      3014      3017
      3011      3017      3014      3011      3017      3019      3014      3017      3019
      3023      3021      3024      3023      3021      3025      3023      3021      3026
      3024      3021      3025      3024      3021      3026      3025      3021      3026
      3021      3026      3028      3021      3026      3034      3028      3026      3034
      3026      3028      3030      3026      3028      3031      3030      3028      3031
      3028      3031      3033      3028      3031      3037      3033      3031      3037
      3026      3034      3036      3026      3034      3037      3036      3034      3037
      3031      3037      3034      3031      3037      3039      3034      3037      3039
      3043      3041      3044      3043      3041      3045      3043      3041      3046
      3044      3041      3045      3044      3041      3046      3045      3041      3046
      3041      3046      3048      3041      3046      3054      3048      3046      3054
      3046      3048      3050      3046      3048      3051      3050      3048      3051
      3048      3051      3053      3048      3051      3057      3053      3051      3057
      3046      3054      3056      3046      3054      3057      3056      3054      3057
      3051      3057      3054      3051      3057      3059      3054      3057      3059
      3063      3061      3064      3063      3061      3065      3063      3061      3066
      3064      3061      3065      3064      3061      3066      3065      3061      3066
      3061      3066      3068      3061      3066      3074      3068      3066      3074
      3066      3068      3070      3066      3068      3071      3070      3068      3071
      3068      3071      3073      3068      3071      3077      3073      3071      3077
      3066      3074      3076      3066      3074      3077      3076      3074      3077
      3071      3077      3074      3071      3077      3079      3074      3077      3079
      3083      3081      3084      3083      3081      3085      3083      3081      3086
      3084      3081      3085      3084      3081      3086      3085      3081      3086
      3081      3086      3088      3081      3086      3094      3088      3086      3094
      3086      3088      3090      3086      3088      3091      3090      3088      3091
      3088      3091      3093      3088      3091      3097      3093      3091      3097
      3086      3094      3096      3086      3094      3097      3096      3094      3097
      3091      3097      3094      3091      3097      3099      3094      3097      3099
      3103      3101      3104      3103      3101      3105      3103      3101      3106
      3104      3101      3105      3104      3101      3106      3105      3101      3106
      3101      3106      3108      3101      3106      3114      3108      3106      3114
      3106      3108      3110      3106      3108      3111      3110      3108      3111
      3108      3111      3113      3108      3111      3117      3113      3111      3117
      3106      3114      3116      3106      3114      3117      3116      3114      3117
      3111      3117      3114      3111      3117      3119      3114      3117      3119
      3123      3121      3124      3123      3121      3125      3123      3121      3126
      3124      3121      3125      3124      3121      3126      3125      3121      3126
      3121      3126      3128      3121      3126      3134      3128      3126      3134
      3126      3128      3130      3126      3128      3131      3130      3128      3131
      3128      3131      3133      3128      3131      3137      3133      3131      3137
      3126      3134      3136      3126      3134      3137      3136      3134      3137
      3131      3137      3134      3131      3137      3139      3134      3137      3139
      3143      3141      3148      3143      3141      3150      3148      3141      3150
      3141      3143      3145      3141      3143      3146      3141      3143      3147
      3145      3143      3146      3145      3143      3147      3146      3143      3147
      3141      3150      3152      3159      3157      3164      3159      3157      3166
      3164      3157      3166      3157      3159      3161      3157      3159      3162
      3157      3159      3163      3161      3159      3162      3161      3159      3163
      3162      3159      3163      3157      3166      3168      3175      3173      3180
      3175      3173      3182      3180      3173      3182      3173      3175      3177
      3173      3175      3178      3173      3175      3179      3177      3175      3178
      3177      3175      3179      3178      3175      3179      3173      3182      3184
      3191      3189      3196      3191      3189      3198      3196      3189      3198
      3189      3191      3193      3189      3191      3194      3189      3191      3195
      3193      3191      3194      3193      3191      3195      3194      3191      3195
      3189      3198      3200      3207      3205      3212      3207      3205      3214
      3212      3205      3214      3205      3207      3209      3205      3207      3210
      3205      3207      3211      3209      3207      3210      3209      3207      3211
      3210      3207      3211      3205      3214      3216      3223      3221      3228
      3223      3221      3230      3228      3221      3230      3221      3223      3225
      3221      3223      3226      3221      3223      3227      3225      3223      3226
      3225      3223      3227      3226      3223      3227      3221      3230      3232
      3239      3237      3244      3239      3237      3246      3244      3237      3246
      3237      3239      3241      3237      3239      3242      3237      3239      3243
      3241      3239      3242      3241      3239      3243      3242      3239      3243
      3237      3246      3248      3255      3253      3260      3255      3253      3262
      3260      3253      3262      3253      3255      3257      3253      3255      3258
      3253      3255      3259      3257      3255      3258      3257      3255      3259
      3258      3255      3259      3253      3262      3264      3271      3269      3276
      3271      3269      3278      3276      3269      3278      3269      3271      3273
      3269      3271      3274      3269      3271      3275      3273      3271      3274
      3273      3271      3275      3274      3271      3275      3269      3278      3280
      3287      3285      3292      3287      3285      3294      3292      3285      3294
      3285      3287      3289      3285      3287      3290      3285      3287      3291
      3289      3287      3290      3289      3287      3291      3290      3287      3291
      3285      3294      3296      3303      3301      3308      3303      3301      3310
      3308      3301      3310      3301      3303      3305      3301      3303      3306
      3301      3303      3307      3305      3303      3306      3305      3303      3307
      3306      3303      3307      3301      3310      3312      3319      3317      3324
      3319      3317      3326      3324      3317      3326      3317      3319      3321
      3317      3319      3322      3317      3319      3323      3321      3319      3322
      3321      3319      3323      3322      3319      3323      3317      3326      3328
      3335      3333      3340      3335      3333      3342      3340      3333      3342
      3333      3335      3337      3333      3335      3338      3333      3335      3339
      3337      3335      3338      3337      3335      3339      3338      3335      3339
      3333      3342      3344      3351      3349      3356      3351      3349      3358
      3356      3349      3358      3349      3351      3353      3349      3351      3354
      3349      3351      3355      3353      3351      3354      3353      3351      3355
      3354      3351      3355      3349      3358      3360      3367      3365      3372
      3367      3365      3374      3372      3365      3374      3365      3367      3369
      3365      3367      3370      3365      3367      3371      3369      3367      3370
      3369      3367      3371      3370      3367      3371      3365      3374      3376
      3383      3381      3388      3383      3381      3390      3388      3381      3390
      3381      3383      3385      3381      3383      3386      3381      3383      3387
      3385      3383      3386      3385      3383      3387      3386      3383      3387
      3381      3390      3392      3399      3397      3404      3399      3397      3406
      3404      3397      3406      3397      3399      3401      3397      3399      3402
      3397      3399      3403      3401      3399      3402      3401      3399      3403
      3402      3399      3403      3397      3406      3408      3415      3413      3420
      3415      3413      3422      3420      3413      3422      3413      3415      3417
      3413      3415      3418      3413      3415      3419      3417      3415      3418
      3417      3415      3419      3418      3415      3419      3413      3422      3424
      3431      3429      3436      3431      3429      3438      3436      3429      3438
      3429      3431      3433      3429      3431      3434      3429      3431      3435
      3433      3431      3434      3433      3431      3435      3434      3431      3435
      3429      3438      3440      3447      3445      3452      3447      3445      3454
      3452      3445      3454      3445      3447      3449      3445      3447      3450
      3445      3447      3451      3449      3447      3450      3449      3447      3451
      3450      3447      3451      3445      3454      3456      3463      3461      3468
      3463      3461      3470      3468      3461      3470      3461      3463      3465
      3461      3463      3466      3461      3463      3467      3465      3463      3466
      3465      3463      3467      3466      3463      3467      3461      3470      3472
      3479      3477      3484      3479      3477      3486      3484      3477      3486
      3477      3479      3481      3477      3479      3482      3477      3479      3483
      3481      3479      3482      3481      3479      3483      3482      3479      3483
      3477      3486      3488      3495      3493      3500      3495      3493      3502
      3500      3493      3502      3493      3495      3497      3493      3495      3498
      3493      3495      3499      3497      3495      3498      3497      3495      3499
      3498      3495      3499      3493      3502      3504      3511      3509      3516
      3511      3509      3518      3516      3509      3518      3509      3511      3513
      3509      3511      3514      3509      3511      3515      3513      3511      3514
      3513      3511      3515      3514      3511      3515      3509      3518      3520
      3527      3525      3532      3527      3525      3534      3532      3525      3534
      3525      3527      3529      3525      3527      3530      3525      3527      3531
      3529      3527      3530      3529      3527      3531      3530      3527      3531
      3525      3534      3536      3543      3541      3548      3543      3541      3550
      3548      3541      3550      3541      3543      3545      3541      3543      3546
      3541      3543      3547      3545      3543      3546      3545      3543      3547
      3546      3543      3547      3541      3550      3552      3559      3557      3564
      3559      3557      3566      3564      3557      3566      3557      3559      3561
      3557      3559      3562      3557      3559      3563      3561      3559      3562
      3561      3559      3563      3562      3559      3563      3557      3566      3568
      3575      3573      3580      3575      3573      3582      3580      3573      3582
      3573      3575      3577      3573      3575      3578      3573      3575      3579
      3577      3575      3578      3577      3575      3579      3578      3575      3579
      3573      3582      3584      3591      3589      3596      3591      3589      3598
      3596      3589      3598      3589      3591      3593      3589      3591      3594
      3589      3591      3595      3593      3591      3594      3593      3591      3595
      3594      3591      3595      3589      3598      3600      3607      3605      3612
      3607      3605      3614      3612      3605      3614      3605      3607      3609
      3605      3607      3610      3605      3607      3611      3609      3607      3610
      3609      3607      3611      3610      3607      3611      3605      3614      3616
      3623      3621      3628      3623      3621      3630      3628      3621      3630
      3621      3623      3625      3621      3623      3626      3621      3623      3627
      3625      3623      3626      3625      3623      3627      3626      3623      3627
      3621      3630      3632      3639      3637      3644      3639      3637      3646
      3644      3637      3646      3637      3639      3641      3637      3639      3642
      3637      3639      3643      3641      3639      3642      3641      3639      3643
      3642      3639      3643      3637      3646      3648      3655      3653      3660
      3655      3653      3662      3660      3653      3662      3653      3655      3657
      3653      3655      3658      3653      3655      3659      3657      3655      3658
      3657      3655      3659      3658      3655      3659      3653      3662      3664
      3671      3669      3676      3671      3669      3678      3676      3669      3678
      3669      3671      3673      3669      3671      3674      3669      3671      3675
      3673      3671      3674      3673      3671      3675      3674      3671      3675
      3669      3678      3680      3687      3685      3692      3687      3685      3694
      3692      3685      3694      3685      3687      3689      3685      3687      3690
      3685      3687      3691      3689      3687      3690      3689      3687      3691
      3690      3687      3691      3685      3694      3696      3703      3701      3708
      3703      3701      3710      3708      3701      3710      3701      3703      3705
      3701      3703      3706      3701      3703      3707      3705      3703      3706
      3705      3703      3707      3706      3703      3707      3701      3710      3712
      3719      3717      3724      3719      3717      3726      3724      3717      3726
      3717      3719      3721      3717      3719      3722      3717      3719      3723
      3721      3719      3722      3721      3719      3723      3722      3719      3723
      3717      3726      3728      3735      3733      3740      3735      3733      3742
      3740      3733      3742      3733      3735      3737      3733      3735      3738
      3733      3735      3739      3737      3735      3738      3737      3735      3739
      3738      3735      3739      3733      3742      3744      3751      3749      3756
      3751      3749      3758      3756      3749      3758      3749      3751      3753
      3749      3751      3754      3749      3751      3755      3753      3751      3754
      3753      3751      3755      3754      3751      3755      3749      3758      3760
      3767      3765      3772      3767      3765      3774      3772      3765      3774
      3765      3767      3769      3765      3767      3770      3765      3767      3771
      3769      3767      3770      3769      3767      3771      3770      3767      3771
      3765      3774      3776      3783      3781      3788      3783      3781      3790
      3788      3781      3790      3781      3783      3785      3781      3783      3786
      3781      3783      3787      3785      3783      3786      3785      3783      3787
      3786      3783      3787      3781      3790      3792      3799      3797      3804
      3799      3797      3806      3804      3797      3806      3797      3799      3801
      3797      3799      3802      3797      3799      3803      3801      3799      3802
      3801      3799      3803      3802      3799      3803      3797      3806      3808
      3815      3813      3820      3815      3813      3822      3820      3813      3822
      3813      3815      3817      3813      3815      3818      3813      3815      3819
      3817      3815      3818      3817      3815      3819      3818      3815      3819
      3813      3822      3824      3831      3829      3836      3831      3829      3838
      3836      3829      3838      3829      3831      3833      3829      3831      3834
      3829      3831      3835      3833      3831      3834      3833      3831      3835
      3834      3831      3835      3829      3838      3840      3847      3845      3852
      3847      3845      3854      3852      3845      3854      3845      3847      3849
      3845      3847      3850      3845      3847      3851      3849      3847      3850
      3849      3847      3851      3850      3847      3851      3845      3854      3856
      3863      3861      3868      3863      3861      3870      3868      3861      3870
      3861      3863      3865      3861      3863      3866      3861      3863      3867
      3865      3863      3866      3865      3863      3867      3866      3863      3867
      3861      3870      3872      3879      3877      3884      3879      3877      3886
      3884      3877      3886      3877      3879      3881      3877      3879      3882
      3877      3879      3883      3881      3879      3882      3881      3879      3883
      3882      3879      3883      3877      3886      3888      3895      3893      3900
      3895      3893      3902      3900      3893      3902      3893      3895      3897
      3893      3895      3898      3893      3895      3899      3897      3895      3898
      3897      3895      3899      3898      3895      3899      3893      3902      3904
      3911      3909      3916      3911      3909      3918      3916      3909      3918
      3909      3911      3913      3909      3911      3914      3909      3911      3915
      3913      3911      3914      3913      3911      3915      3914      3911      3915
      3909      3918      3920      3927      3925      3932      3927      3925      3934
      3932      3925      3934      3925      3927      3929      3925      3927      3930
      3925      3927      3931      3929      3927      3930      3929      3927      3931
      3930      3927      3931      3925      3934      3936      3943      3941      3948
      3943      3941      3950      3948      3941      3950      3941      3943      3945
      3941      3943      3946      3941      3943      3947      3945      3943      3946
      3945      3943      3947      3946      3943      3947      3941      3950      3952
      3959      3957      3964      3959      3957      3966      3964      3957      3966
      3957      3959      3961      3957      3959      3962      3957      3959      3963
      3961      3959      3962      3961      3959      3963      3962      3959      3963
      3957      3966      3968      3975      3973      3980      3975      3973      3982
      3980      3973      3982      3973      3975      3977      3973      3975      3978
      3973      3975      3979      3977      3975      3978      3977      3975      3979
      3978      3975      3979      3973      3982      3984      3991      3989      3996
      3991      3989      3998      3996      3989      3998      3989      3991      3993
      3989      3991      3994      3989      3991      3995      3993      3991      3994
      3993      3991      3995      3994      3991      3995      3989      3998      4000
      4007      4005      4012      4007      4005      4014      4012      4005      4014
      4005      4007      4009      4005      4007      4010      4005      4007      4011
      4009      4007      4010      4009      4007      4011      4010      4007      4011
      4005      4014      4016      4023      4021      4028      4023      4021      4030
      4028      4021      4030      4021      4023      4025      4021      4023      4026
      4021      4023      4027      4025      4023      4026      4025      4023      4027
      4026      4023      4027      4021      4030      4032      4039      4037      4044
      4039      4037      4046      4044      4037      4046      4037      4039      4041
      4037      4039      4042      4037      4039      4043      4041      4039      4042
      4041      4039      4043      4042      4039      4043      4037      4046      4048
      4055      4053      4060      4055      4053      4062      4060      4053      4062
      4053      4055      4057      4053      4055      4058      4053      4055      4059
      4057      4055      4058      4057      4055      4059      4058      4055      4059
      4053      4062      4064      4071      4069      4076      4071      4069      4078
      4076      4069      4078      4069      4071      4073      4069      4071      4074
      4069      4071      4075      4073      4071      4074      4073      4071      4075
      4074      4071      4075      4069      4078      4080      4087      4085      4092
      4087      4085      4094      4092      4085      4094      4085      4087      4089
      4085      4087      4090      4085      4087      4091      4089      4087      4090
      4089      4087      4091      4090      4087      4091      4085      4094      4096
      4103      4101      4108      4103      4101      4110      4108      4101      4110
      4101      4103      4105      4101      4103      4106      4101      4103      4107
      4105      4103      4106      4105      4103      4107      4106      4103      4107
      4101      4110      4112      4119      4117      4124      4119      4117      4126
      4124      4117      4126      4117      4119      4121      4117      4119      4122
      4117      4119      4123      4121      4119      4122      4121      4119      4123
      4122      4119      4123      4117      4126      4128      4135      4133      4140
      4135      4133      4142      4140      4133      4142      4133      4135      4137
      4133      4135      4138      4133      4135      4139      4137      4135      4138
      4137      4135      4139      4138      4135      4139      4133      4142      4144
      4151      4149      4156      4151      4149      4158      4156      4149      4158
      4149      4151      4153      4149      4151      4154      4149      4151      4155
      4153      4151      4154      4153      4151      4155      4154      4151      4155
      4149      4158      4160      4167      4165      4172      4167      4165      4174
      4172      4165      4174      4165      4167      4169      4165      4167      4170
      4165      4167      4171      4169      4167      4170      4169      4167      4171
      4170      4167      4171      4165      4174      4176      4183      4181      4188
      4183      4181      4190      4188      4181      4190      4181      4183      4185
      4181      4183      4186      4181      4183      4187      4185      4183      4186
      4185      4183      4187      4186      4183      4187      4181      4190      4192
      4199      4197      4204      4199      4197      4206      4204      4197      4206
      4197      4199      4201      4197      4199      4202      4197      4199      4203
      4201      4199      4202      4201      4199      4203      4202      4199      4203
      4197      4206      4208      4215      4213      4220      4215      4213      4222
      4220      4213      4222      4213      4215      4217      4213      4215      4218
      4213      4215      4219      4217      4215      4218      4217      4215      4219
      4218      4215      4219      4213      4222      4224      4231      4229      4236
      4231      4229      4238      4236      4229      4238      4229      4231      4233
      4229      4231      4234      4229      4231      4235      4233      4231      4234
      4233      4231      4235      4234      4231      4235      4229      4238      4240
      4247      4245      4252      4247      4245      4254      4252      4245      4254
      4245      4247      4249      4245      4247      4250      4245      4247      4251
      4249      4247      4250      4249      4247      4251      4250      4247      4251
      4245      4254      4256      4263      4261      4268      4263      4261      4270
      4268      4261      4270      4261      4263      4265      4261      4263      4266
      4261      4263      4267      4265      4263      4266      4265      4263      4267
      4266      4263      4267      4261      4270      4272      4279      4277      4284
      4279      4277      4286      4284      4277      4286      4277      4279      4281
      4277      4279      4282      4277      4279      4283      4281      4279      4282
      4281      4279      4283      4282      4279      4283      4277      4286      4288
      4295      4293      4300      4295      4293      4302      4300      4293      4302
      4293      4295      4297      4293      4295      4298      4293      4295      4299
      4297      4295      4298      4297      4295      4299      4298      4295      4299
      4293      4302      4304      4311      4309      4316      4311      4309      4318
      4316      4309      4318      4309      4311      4313      4309      4311      4314
      4309      4311      4315      4313      4311      4314      4313      4311      4315
      4314      4311      4315      4309      4318      4320      4327      4325      4332
      4327      4325      4334      4332      4325      4334      4325      4327      4329
      4325      4327      4330      4325      4327      4331      4329      4327      4330
      4329      4327      4331      4330      4327      4331      4325      4334      4336
      4343      4341      4348      4343      4341      4350      4348      4341      4350
      4341      4343      4345      4341      4343      4346      4341      4343      4347
      4345      4343      4346      4345      4343      4347      4346      4343      4347
      4341      4350      4352      4359      4357      4364      4359      4357      4366
      4364      4357      4366      4357      4359      4361      4357      4359      4362
      4357      4359      4363      4361      4359      4362      4361      4359      4363
      4362      4359      4363      4357      4366      4368      4375      4373      4380
      4375      4373      4382      4380      4373      4382      4373      4375      4377
      4373      4375      4378      4373      4375      4379      4377      4375      4378
      4377      4375      4379      4378      4375      4379      4373      4382      4384
      4391      4389      4396      4391      4389      4398      4396      4389      4398
      4389      4391      4393      4389      4391      4394      4389      4391      4395
      4393      4391      4394      4393      4391      4395      4394      4391      4395
      4389      4398      4400      4407      4405      4412      4407      4405      4414
      4412      4405      4414      4405      4407      4409      4405      4407      4410
      4405      4407      4411      4409      4407      4410      4409      4407      4411
      4410      4407      4411      4405      4414      4416      4423      4421      4428
      4423      4421      4430      4428      4421      4430      4421      4423      4425
      4421      4423      4426      4421      4423      4427      4425      4423      4426
      4425      4423      4427      4426      4423      4427      4421      4430      4432
      4439      4437      4444      4439      4437      4446      4444      4437      4446
      4437      4439      4441      4437      4439      4442      4437      4439      4443
      4441      4439      4442      4441      4439      4443      4442      4439      4443
      4437      4446      4448      4455      4453      4460      4455      4453      4462
      4460      4453      4462      4453      4455      4457      4453      4455      4458
      4453      4455      4459      4457      4455      4458      4457      4455      4459
      4458      4455      4459      4453      4462      4464      4471      4469      4476
      4471      4469      4478      4476      4469      4478      4469      4471      4473
      4469      4471      4474      4469      4471      4475      4473      4471      4474
      4473      4471      4475      4474      4471      4475      4469      4478      4480
      4487      4485      4492      4487      4485      4494      4492      4485      4494
      4485      4487      4489      4485      4487      4490      4485      4487      4491
      4489      4487      4490      4489      4487      4491      4490      4487      4491
      4485      4494      4496      4503      4501      4508      4503      4501      4510
      4508      4501      4510      4501      4503      4505      4501      4503      4506
      4501      4503      4507      4505      4503      4506      4505      4503      4507
      4506      4503      4507      4501      4510      4512      4519      4517      4524
      4519      4517      4526      4524      4517      4526      4517      4519      4521
      4517      4519      4522      4517      4519      4523      4521      4519      4522
      4521      4519      4523      4522      4519      4523      4517      4526      4528
      4535      4533      4540      4535      4533      4542      4540      4533      4542
      4533      4535      4537      4533      4535      4538      4533      4535      4539
      4537      4535      4538      4537      4535      4539      4538      4535      4539
      4533      4542      4544      4551      4549      4556      4551      4549      4558
      4556      4549      4558      4549      4551      4553      4549      4551      4554
      4549      4551      4555      4553      4551      4554      4553      4551      4555
      4554      4551      4555      4549      4558      4560      4567      4565      4572
      4567      4565      4574      4572      4565      4574      4565      4567      4569
      4565      4567      4570      4565      4567      4571      4569      4567      4570
      4569      4567      4571      4570      4567      4571      4565      4574      4576
      4583      4581      4588      4583      4581      4590      4588      4581      4590
      4581      4583      4585      4581      4583      4586      4581      4583      4587
      4585      4583      4586      4585      4583      4587      4586      4583      4587
      4581      4590      4592      4599      4597      4604      4599      4597      4606
      4604      4597      4606      4597      4599      4601      4597      4599      4602
      4597      4599      4603      4601      4599      4602      4601      4599      4603
      4602      4599      4603      4597      4606      4608      4615      4613      4620
      4615      4613      4622      4620      4613      4622      4613      4615      4617
      4613      4615      4618      4613      4615      4619      4617      4615      4618
      4617      4615      4619      4618      4615      4619      4613      4622      4624
      4631      4629      4636      4631      4629      4638      4636      4629      4638
      4629      4631      4633      4629      4631      4634      4629      4631      4635
      4633      4631      4634      4633      4631      4635      4634      4631      4635
      4629      4638      4640      4647      4645      4652      4647      4645      4654
      4652      4645      4654      4645      4647      4649      4645      4647      4650
      4645      4647      4651      4649      4647      4650      4649      4647      4651
      4650      4647      4651      4645      4654      4656      4663      4661      4668
      4663      4661      4670      4668      4661      4670      4661      4663      4665
      4661      4663      4666      4661      4663      4667      4665      4663      4666
      4665      4663      4667      4666      4663      4667      4661      4670      4672
      4679      4677      4684      4679      4677      4686      4684      4677      4686
      4677      4679      4681      4677      4679      4682      4677      4679      4683
      4681      4679      4682      4681      4679      4683      4682      4679      4683
      4677      4686      4688      4695      4693      4700      4695      4693      4702
      4700      4693      4702      4693      4695      4697      4693      4695      4698
      4693      4695      4699      4697      4695      4698      4697      4695      4699
      4698      4695      4699      4693      4702      4704      4711      4709      4716
      4711      4709      4718      4716      4709      4718      4709      4711      4713
      4709      4711      4714      4709      4711      4715      4713      4711      4714
      4713      4711      4715      4714      4711      4715      4709      4718      4720
      4727      4725      4732      4727      4725      4734      4732      4725      4734
      4725      4727      4729      4725      4727      4730      4725      4727      4731
      4729      4727      4730      4729      4727      4731      4730      4727      4731
      4725      4734      4736      4743      4741      4748      4743      4741      4750
      4748      4741      4750      4741      4743      4745      4741      4743      4746
      4741      4743      4747      4745      4743      4746      4745      4743      4747
      4746      4743      4747      4741      4750      4752      4759      4757      4764
      4759      4757      4766      4764      4757      4766      4757      4759      4761
      4757      4759      4762      4757      4759      4763      4761      4759      4762
      4761      4759      4763      4762      4759      4763      4757      4766      4768
      4775      4773      4780      4775      4773      4782      4780      4773      4782
      4773      4775      4777      4773      4775      4778      4773      4775      4779
      4777      4775      4778      4777      4775      4779      4778      4775      4779
      4773      4782      4784      4791      4789      4796      4791      4789      4798
      4796      4789      4798      4789      4791      4793      4789      4791      4794
      4789      4791      4795      4793      4791      4794      4793      4791      4795
      4794      4791      4795      4789      4798      4800      4807      4805      4812
      4807      4805      4814      4812      4805      4814      4805      4807      4809
      4805      4807      4810      4805      4807      4811      4809      4807      4810
      4809      4807      4811      4810      4807      4811      4805      4814      4816
      4823      4821      4828      4823      4821      4830      4828      4821      4830
      4821      4823      4825      4821      4823      4826      4821      4823      4827
      4825      4823      4826      4825      4823      4827      4826      4823      4827
      4821      4830      4832      4839      4837      4844      4839      4837      4846
      4844      4837      4846      4837      4839      4841      4837      4839      4842
      4837      4839      4843      4841      4839      4842      4841      4839      4843
      4842      4839      4843      4837      4846      4848      4855      4853      4860
      4855      4853      4862      4860      4853      4862      4853      4855      4857
      4853      4855      4858      4853      4855      4859      4857      4855      4858
      4857      4855      4859      4858      4855      4859      4853      4862      4864
      4871      4869      4876      4871      4869      4878      4876      4869      4878
      4869      4871      4873      4869      4871      4874      4869      4871      4875
      4873      4871      4874      4873      4871      4875      4874      4871      4875
      4869      4878      4880      4887      4885      4892      4887      4885      4894
      4892      4885      4894      4885      4887      4889      4885      4887      4890
      4885      4887      4891      4889      4887      4890      4889      4887      4891
      4890      4887      4891      4885      4894      4896      4903      4901      4908
      4903      4901      4910      4908      4901      4910      4901      4903      4905
      4901      4903      4906      4901      4903      4907      4905      4903      4906
      4905      4903      4907      4906      4903      4907      4901      4910      4912
      4919      4917      4924      4919      4917      4926      4924      4917      4926
      4917      4919      4921      4917      4919      4922      4917      4919      4923
      4921      4919      4922      4921      4919      4923      4922      4919      4923
      4917      4926      4928      4935      4933      4940      4935      4933      4942
      4940      4933      4942      4933      4935      4937      4933      4935      4938
      4933      4935      4939      4937      4935      4938      4937      4935      4939
      4938      4935      4939      4933      4942      4944      4951      4949      4956
      4951      4949      4958      4956      4949      4958      4949      4951      4953
      4949      4951      4954      4949      4951      4955      4953      4951      4954
      4953      4951      4955      4954      4951      4955      4949      4958      4960
      4967      4965      4972      4967      4965      4974      4972      4965      4974
      4965      4967      4969      4965      4967      4970      4965      4967      4971
      4969      4967      4970      4969      4967      4971      4970      4967      4971
      4965      4974      4976      4983      4981      4988      4983      4981      4990
      4988      4981      4990      4981      4983      4985      4981      4983      4986
      4981      4983      4987      4985      4983      4986      4985      4983      4987
      4986      4983      4987      4981      4990      4992      4999      4997      5004
      4999      4997      5006      5004      4997      5006      4997      4999      5001
      4997      4999      5002      4997      4999      5003      5001      4999      5002
      5001      4999      5003      5002      4999      5003      4997      5006      5008
      5015      5013      5020      5015      5013      5022      5020      5013      5022
      5013      5015      5017      5013      5015      5018      5013      5015      5019
      5017      5015      5018      5017      5015      5019      5018      5015      5019
      5013      5022      5024      5031      5029      5036      5031      5029      5038
      5036      5029      5038      5029      5031      5033      5029      5031      5034
      5029      5031      5035      5033      5031      5034      5033      5031      5035
      5034      5031      5035      5029      5038      5040      5047      5045      5052
      5047      5045      5054      5052      5045      5054      5045      5047      5049
      5045      5047      5050      5045      5047      5051      5049      5047      5050
      5049      5047      5051      5050      5047      5051      5045      5054      5056
      5063      5061      5068      5063      5061      5070      5068      5061      5070
      5061      5063      5065      5061      5063      5066      5061      5063      5067
      5065      5063      5066      5065      5063      5067      5066      5063      5067
      5061      5070      5072      5079      5077      5084      5079      5077      5086
      5084      5077      5086      5077      5079      5081      5077      5079      5082
      5077      5079      5083      5081      5079      5082      5081      5079      5083
      5082      5079      5083      5077      5086      5088      5095      5093      5100
      5095      5093      5102      5100      5093      5102      5093      5095      5097
      5093      5095      5098      5093      5095      5099      5097      5095      5098
      5097      5095      5099      5098      5095      5099      5093      5102      5104
      5111      5109      5116      5111      5109      5118      5116      5109      5118
      5109      5111      5113      5109      5111      5114      5109      5111      5115
      5113      5111      5114      5113      5111      5115      5114      5111      5115
      5109      5118      5120      5127      5125      5132      5127      5125      5134
      5132      5125      5134      5125      5127      5129      5125      5127      5130
      5125      5127      5131      5129      5127      5130      5129      5127      5131
      5130      5127      5131      5125      5134      5136      5143      5141      5148
      5143      5141      5150      5148      5141      5150      5141      5143      5145
      5141      5143      5146      5141      5143      5147      5145      5143      5146
      5145      5143      5147      5146      5143      5147      5141      5150      5152
      5159      5157      5164      5159      5157      5166      5164      5157      5166
      5157      5159      5161      5157      5159      5162      5157      5159      5163
      5161      5159      5162      5161      5159      5163      5162      5159      5163
      5157      5166      5168      5175      5173      5180      5175      5173      5182
      5180      5173      5182      5173      5175      5177      5173      5175      5178
      5173      5175      5179      5177      5175      5178      5177      5175      5179
      5178      5175      5179      5173      5182      5184      5191      5189      5196
      5191      5189      5198      5196      5189      5198      5189      5191      5193
      5189      5191      5194      5189      5191      5195      5193      5191      5194
      5193      5191      5195      5194      5191      5195      5189      5198      5200
      5207      5205      5212      5207      5205      5214      5212      5205      5214
      5205      5207      5209      5205      5207      5210      5205      5207      5211
      5209      5207      5210      5209      5207      5211      5210      5207      5211
      5205      5214      5216      5223      5221      5228      5223      5221      5230
      5228      5221      5230      5221      5223      5225      5221      5223      5226
      5221      5223      5227      5225      5223      5226      5225      5223      5227
      5226      5223      5227      5221      5230      5232      5239      5237      5244
      5239      5237      5246      5244      5237      5246      5237      5239      5241
      5237      5239      5242      5237      5239      5243      5241      5239      5242
      5241      5239      5243      5242      5239      5243      5237      5246      5248
      5255      5253      5260      5255      5253      5262      5260      5253      5262
      5253      5255      5257      5253      5255      5258      5253      5255      5259
      5257      5255      5258      5257      5255      5259      5258      5255      5259
      5253      5262      5264      5271      5269      5276      5271      5269      5278
      5276      5269      5278      5269      5271      5273      5269      5271      5274
      5269      5271      5275      5273      5271      5274      5273      5271      5275
      5274      5271      5275      5269      5278      5280      5287      5285      5292
      5287      5285      5294      5292      5285      5294      5285      5287      5289
      5285      5287      5290      5285      5287      5291      5289      5287      5290
      5289      5287      5291      5290      5287      5291      5285      5294      5296
      5303      5301      5308      5303      5301      5310      5308      5301      5310
      5301      5303      5305      5301      5303      5306      5301      5303      5307
      5305      5303      5306      5305      5303      5307      5306      5303      5307
      5301      5310      5312      5319      5317      5324      5319      5317      5326
      5324      5317      5326      5317      5319      5321      5317      5319      5322
      5317      5319      5323      5321      5319      5322      5321      5319      5323
      5322      5319      5323      5317      5326      5328      5335      5333      5340
      5335      5333      5342      5340      5333      5342      5333      5335      5337
      5333      5335      5338      5333      5335      5339      5337      5335      5338
      5337      5335      5339      5338      5335      5339      5333      5342      5344
      5351      5349      5356      5351      5349      5358      5356      5349      5358
      5349      5351      5353      5349      5351      5354      5349      5351      5355
      5353      5351      5354      5353      5351      5355      5354      5351      5355
      5349      5358      5360      5367      5365      5372      5367      5365      5374
      5372      5365      5374      5365      5367      5369      5365      5367      5370
      5365      5367      5371      5369      5367      5370      5369      5367      5371
      5370      5367      5371      5365      5374      5376      5383      5381      5388
      5383      5381      5390      5388      5381      5390      5381      5383      5385
      5381      5383      5386      5381      5383      5387      5385      5383      5386
      5385      5383      5387      5386      5383      5387      5381      5390      5392
      5399      5397      5404      5399      5397      5406      5404      5397      5406
      5397      5399      5401      5397      5399      5402      5397      5399      5403
      5401      5399      5402      5401      5399      5403      5402      5399      5403
      5397      5406      5408      5415      5413      5420      5415      5413      5422
      5420      5413      5422      5413      5415      5417      5413      5415      5418
      5413      5415      5419      5417      5415      5418      5417      5415      5419
      5418      5415      5419      5413      5422      5424      5431      5429      5436
      5431      5429      5438      5436      5429      5438      5429      5431      5433
      5429      5431      5434      5429      5431      5435      5433      5431      5434
      5433      5431      5435      5434      5431      5435      5429      5438      5440
      5447      5445      5452      5447      5445      5454      5452      5445      5454
      5445      5447      5449      5445      5447      5450      5445      5447      5451
      5449      5447      5450      5449      5447      5451      5450      5447      5451
      5445      5454      5456      5463      5461      5468      5463      5461      5470
      5468      5461      5470      5461      5463      5465      5461      5463      5466
      5461      5463      5467      5465      5463      5466      5465      5463      5467
      5466      5463      5467      5461      5470      5472      5479      5477      5484
      5479      5477      5486      5484      5477      5486      5477      5479      5481
      5477      5479      5482      5477      5479      5483      5481      5479      5482
      5481      5479      5483      5482      5479      5483      5477      5486      5488
      5495      5493      5500      5495      5493      5502      5500      5493      5502
      5493      5495      5497      5493      5495      5498      5493      5495      5499
      5497      5495      5498      5497      5495      5499      5498      5495      5499
      5493      5502      5504      5511      5509      5516      5511      5509      5518
      5516      5509      5518      5509      5511      5513      5509      5511      5514
      5509      5511      5515      5513      5511      5514      5513      5511      5515
      5514      5511      5515      5509      5518      5520      5527      5525      5532
      5527      5525      5534      5532      5525      5534      5525      5527      5529
      5525      5527      5530      5525      5527      5531      5529      5527      5530
      5529      5527      5531      5530      5527      5531      5525      5534      5536
      5543      5541      5544      5543      5541      5545      5543      5541      5546
      5544      5541      5545      5544      5541      5546      5545      5541      5546
      5541      5546      5548      5541      5546      5554      5548      5546      5554
      5546      5548      5550      5546      5548      5551      5550      5548      5551
      5548      5551      5553      5548      5551      5557      5553      5551      5557
      5546      5554      5556      5546      5554      5557      5556      5554      5557
      5551      5557      5554      5551      5557      5559      5554      5557      5559
      5563      5561      5564      5563      5561      5565      5563      5561      5566
      5564      5561      5565      5564      5561      5566      5565      5561      5566
      5561      5566      5568      5561      5566      5574      5568      5566      5574
      5566      5568      5570      5566      5568      5571      5570      5568      5571
      5568      5571      5573      5568      5571      5577      5573      5571      5577
      5566      5574      5576      5566      5574      5577      5576      5574      5577
      5571      5577      5574      5571      5577      5579      5574      5577      5579
      5583      5581      5584      5583      5581      5585      5583      5581      5586
      5584      5581      5585      5584      5581      5586      5585      5581      5586
      5581      5586      5588      5581      5586      5594      5588      5586      5594
      5586      5588      5590      5586      5588      5591      5590      5588      5591
      5588      5591      5593      5588      5591      5597      5593      5591      5597
      5586      5594      5596      5586      5594      5597      5596      5594      5597
      5591      5597      5594      5591      5597      5599      5594      5597      5599
      5603      5601      5604      5603      5601      5605      5603      5601      5606
      5604      5601      5605      5604      5601      5606      5605      5601      5606
      5601      5606      5608      5601      5606      5614      5608      5606      5614
      5606      5608      5610      5606      5608      5611      5610      5608      5611
      5608      5611      5613      5608      5611      5617      5613      5611      5617
      5606      5614      5616      5606      5614      5617      5616      5614      5617
      5611      5617      5614      5611      5617      5619      5614      5617      5619
      5623      5621      5624      5623      5621      5625      5623      5621      5626
      5624      5621      5625      5624      5621      5626      5625      5621      5626
      5621      5626      5628      5621      5626      5634      5628      5626      5634
      5626      5628      5630      5626      5628      5631      5630      5628      5631
      5628      5631      5633      5628      5631      5637      5633      5631      5637
      5626      5634      5636      5626      5634      5637      5636      5634      5637
      5631      5637      5634      5631      5637      5639      5634      5637      5639
      5643      5641      5644      5643      5641      5645      5643      5641      5646
      5644      5641      5645      5644      5641      5646      5645      5641      5646
      5641      5646      5648      5641      5646      5654      5648      5646      5654
      5646      5648      5650      5646      5648      5651      5650      5648      5651
      5648      5651      5653      5648      5651      5657      5653      5651      5657
      5646      5654      5656      5646      5654      5657      5656      5654      5657
      5651      5657      5654      5651      5657      5659      5654      5657      5659
      5663      5661      5664      5663      5661      5665      5663      5661      5666
      5664      5661      5665      5664      5661      5666      5665      5661      5666
      5661      5666      5668      5661      5666      5674      5668      5666      5674
      5666      5668      5670      5666      5668      5671      5670      5668      5671
      5668      5671      5673      5668      5671      5677      5673      5671      5677
      5666      5674      5676      5666      5674      5677      5676      5674      5677
      5671      5677      5674      5671      5677      5679      5674      5677      5679
      5683      5681      5684      5683      5681      5685      5683      5681      5686
      5684      5681      5685      5684      5681      5686      5685      5681      5686
      5681      5686      5688      5681      5686      5694      5688      5686      5694
      5686      5688      5690      5686      5688      5691      5690      5688      5691
      5688      5691      5693      5688      5691      5697      5693      5691      5697
      5686      5694      5696      5686      5694      5697      5696      5694      5697
      5691      5697      5694      5691      5697      5699      5694      5697      5699
      5703      5701      5704      5703      5701      5705      5703      5701      5706
      5704      5701      5705      5704      5701      5706      5705      5701      5706
      5701      5706      5708      5701      5706      5714      5708      5706      5714
      5706      5708      5710      5706      5708      5711      5710      5708      5711
      5708      5711      5713      5708      5711      5717      5713      5711      5717
      5706      5714      5716      5706      5714      5717      5716      5714      5717
      5711      5717      5714      5711      5717      5719      5714      5717      5719
      5723      5721      5724      5723      5721      5725      5723      5721      5726
      5724      5721      5725      5724      5721      5726      5725      5721      5726
      5721      5726      5728      5721      5726      5734      5728      5726      5734
      5726      5728      5730      5726      5728      5731      5730      5728      5731
      5728      5731      5733      5728      5731      5737      5733      5731      5737
      5726      5734      5736      5726      5734      5737      5736      5734      5737
      5731      5737      5734      5731      5737      5739      5734      5737      5739
      5743      5741      5744      5743      5741      5745      5743      5741      5746
      5744      5741      5745      5744      5741      5746      5745      5741      5746
      5741      5746      5748      5741      5746      5754      5748      5746      5754
      5746      5748      5750      5746      5748      5751      5750      5748      5751
      5748      5751      5753      5748      5751      5757      5753      5751      5757
      5746      5754      5756      5746      5754      5757      5756      5754      5757
      5751      5757      5754      5751      5757      5759      5754      5757      5759
      5763      5761      5764      5763      5761      5765      5763      5761      5766
      5764      5761      5765      5764      5761      5766      5765      5761      5766
      5761      5766      5768      5761      5766      5774      5768      5766      5774
      5766      5768      5770      5766      5768      5771      5770      5768      5771
      5768      5771      5773      5768      5771      5777      5773      5771      5777
      5766      5774      5776      5766      5774      5777      5776      5774      5777
      5771      5777      5774      5771      5777      5779      5774      5777      5779
      5783      5781      5784      5783      5781      5785      5783      5781      5786
      5784      5781      5785      5784      5781      5786      5785      5781      5786
      5781      5786      5788      5781      5786      5794      5788      5786      5794
      5786      5788      5790      5786      5788      5791      5790      5788      5791
      5788      5791      5793      5788      5791      5797      5793      5791      5797
      5786      5794      5796      5786      5794      5797      5796      5794      5797
      5791      5797      5794      5791      5797      5799      5794      5797      5799
      5803      5801      5804      5803      5801      5805      5803      5801      5806
      5804      5801      5805      5804      5801      5806      5805      5801      5806
      5801      5806      5808      5801      5806      5814      5808      5806      5814
      5806      5808      5810      5806      5808      5811      5810      5808      5811
      5808      5811      5813      5808      5811      5817      5813      5811      5817
      5806      5814      5816      5806      5814      5817      5816      5814      5817
      5811      5817      5814      5811      5817      5819      5814      5817      5819
      5823      5821      5824      5823      5821      5825      5823      5821      5826
      5824      5821      5825      5824      5821      5826      5825      5821      5826
      5821      5826      5828      5821      5826      5834      5828      5826      5834
      5826      5828      5830      5826      5828      5831      5830      5828      5831
      5828      5831      5833      5828      5831      5837      5833      5831      5837
      5826      5834      5836      5826      5834      5837      5836      5834      5837
      5831      5837      5834      5831      5837      5839      5834      5837      5839
      5843      5841      5844      5843      5841      5845      5843      5841      5846
      5844      5841      5845      5844      5841      5846      5845      5841      5846
      5841      5846      5848      5841      5846      5854      5848      5846      5854
      5846      5848      5850      5846      5848      5851      5850      5848      5851
      5848      5851      5853      5848      5851      5857      5853      5851      5857
      5846      5854      5856      5846      5854      5857      5856      5854      5857
      5851      5857      5854      5851      5857      5859      5854      5857      5859
      5863      5861      5864      5863      5861      5865      5863      5861      5866
      5864      5861      5865      5864      5861      5866      5865      5861      5866
      5861      5866      5868      5861      5866      5874      5868      5866      5874
      5866      5868      5870      5866      5868      5871      5870      5868      5871
      5868      5871      5873      5868      5871      5877      5873      5871      5877
      5866      5874      5876      5866      5874      5877      5876      5874      5877
      5871      5877      5874      5871      5877      5879      5874      5877      5879
      5883      5881      5884      5883      5881      5885      5883      5881      5886
      5884      5881      5885      5884      5881      5886      5885      5881      5886
      5881      5886      5888      5881      5886      5894      5888      5886      5894
      5886      5888      5890      5886      5888      5891      5890      5888      5891
      5888      5891      5893      5888      5891      5897      5893      5891      5897
      5886      5894      5896      5886      5894      5897      5896      5894      5897
      5891      5897      5894      5891      5897      5899      5894      5897      5899
      5903      5901      5904      5903      5901      5905      5903      5901      5906
      5904      5901      5905      5904      5901      5906      5905      5901      5906
      5901      5906      5908      5901      5906      5914      5908      5906      5914
      5906      5908      5910      5906      5908      5911      5910      5908      5911
      5908      5911      5913      5908      5911      5917      5913      5911      5917
      5906      5914      5916      5906      5914      5917      5916      5914      5917
      5911      5917      5914      5911      5917      5919      5914      5917      5919
      5923      5921      5924      5923      5921      5925      5923      5921      5926
      5924      5921      5925      5924      5921      5926      5925      5921      5926
      5921      5926      5928      5921      5926      5934      5928      5926      5934
      5926      5928      5930      5926      5928      5931      5930      5928      5931
      5928      5931      5933      5928      5931      5937      5933      5931      5937
      5926      5934      5936      5926      5934      5937      5936      5934      5937
      5931      5937      5934      5931      5937      5939      5934      5937      5939
      5943      5941      5944      5943      5941      5945      5943      5941      5946
      5944      5941      5945      5944      5941      5946      5945      5941      5946
      5941      5946      5948      5941      5946      5954      5948      5946      5954
      5946      5948      5950      5946      5948      5951      5950      5948      5951
      5948      5951      5953      5948      5951      5957      5953      5951      5957
      5946      5954      5956      5946      5954      5957      5956      5954      5957
      5951      5957      5954      5951      5957      5959      5954      5957      5959
      5963      5961      5964      5963      5961      5965      5963      5961      5966
      5964      5961      5965      5964      5961      5966      5965      5961      5966
      5961      5966      5968      5961      5966      5974      5968      5966      5974
      5966      5968      5970      5966      5968      5971      5970      5968      5971
      5968      5971      5973      5968      5971      5977      5973      5971      5977
      5966      5974      5976      5966      5974      5977      5976      5974      5977
      5971      5977      5974      5971      5977      5979      5974      5977      5979
      5983      5981      5984      5983      5981      5985      5983      5981      5986
      5984      5981      5985      5984      5981      5986      5985      5981      5986
      5981      5986      5988      5981      5986      5994      5988      5986      5994
      5986      5988      5990      5986      5988      5991      5990      5988      5991
      5988      5991      5993      5988      5991      5997      5993      5991      5997
      5986      5994      5996      5986      5994      5997      5996      5994      5997
      5991      5997      5994      5991      5997      5999      5994      5997      5999
      6003      6001      6004      6003      6001      6005      6003      6001      6006
      6004      6001      6005      6004      6001      6006      6005      6001      6006
      6001      6006      6008      6001      6006      6014      6008      6006      6014
      6006      6008      6010      6006      6008      6011      6010      6008      6011
      6008      6011      6013      6008      6011      6017      6013      6011      6017
      6006      6014      6016      6006      6014      6017      6016      6014      6017
      6011      6017      6014      6011      6017      6019      6014      6017      6019
      6023      6021      6024      6023      6021      6025      6023      6021      6026
      6024      6021      6025      6024      6021      6026      6025      6021      6026
      6021      6026      6028      6021      6026      6034      6028      6026      6034
      6026      6028      6030      6026      6028      6031      6030      6028      6031
      6028      6031      6033      6028      6031      6037      6033      6031      6037
      6026      6034      6036      6026      6034      6037      6036      6034      6037
      6031      6037      6034      6031      6037      6039      6034      6037      6039
      6043      6041      6044      6043      6041      6045      6043      6041      6046
      6044      6041      6045      6044      6041      6046      6045      6041      6046
      6041      6046      6048      6041      6046      6054      6048      6046      6054
      6046      6048      6050      6046      6048      6051      6050      6048      6051
      6048      6051      6053      6048      6051      6057      6053      6051      6057
      6046      6054      6056      6046      6054      6057      6056      6054      6057
      6051      6057      6054      6051      6057      6059      6054      6057      6059
      6063      6061      6064      6063      6061      6065      6063      6061      6066
      6064      6061      6065      6064      6061      6066      6065      6061      6066
      6061      6066      6068      6061      6066      6074      6068      6066      6074
      6066      6068      6070      6066      6068      6071      6070      6068      6071
      6068      6071      6073      6068      6071      6077      6073      6071      6077
      6066      6074      6076      6066      6074      6077      6076      6074      6077
      6071      6077      6074      6071      6077      6079      6074      6077      6079
      6083      6081      6084      6083      6081      6085      6083      6081      6086
      6084      6081      6085      6084      6081      6086      6085      6081      6086
      6081      6086      6088      6081      6086      6094      6088      6086      6094
      6086      6088      6090      6086      6088      6091      6090      6088      6091
      6088      6091      6093      6088      6091      6097      6093      6091      6097
      6086      6094      6096      6086      6094      6097      6096      6094      6097
      6091      6097      6094      6091      6097      6099      6094      6097      6099
      6103      6101      6104      6103      6101      6105      6103      6101      6106
      6104      6101      6105      6104      6101      6106      6105      6101      6106
      6101      6106      6108      6101      6106      6114      6108      6106      6114
      6106      6108      6110      6106      6108      6111      6110      6108      6111
      6108      6111      6113      6108      6111      6117      6113      6111      6117
      6106      6114      6116      6106      6114      6117      6116      6114      6117
      6111      6117      6114      6111      6117      6119      6114      6117      6119
      6123      6121      6124      6123      6121      6125      6123      6121      6126
      6124      6121      6125      6124      6121      6126      6125      6121      6126
      6121      6126      6128      6121      6126      6134      6128      6126      6134
      6126      6128      6130      6126      6128      6131      6130      6128      6131
      6128      6131      6133      6128      6131      6137      6133      6131      6137
      6126      6134      6136      6126      6134      6137      6136      6134      6137
      6131      6137      6134      6131      6137      6139      6134      6137      6139
      6143      6141      6144      6143      6141      6145      6143      6141      6146
      6144      6141      6145      6144      6141      6146      6145      6141      6146
      6141      6146      6148      6141      6146      6154      6148      6146      6154
      6146      6148      6150      6146      6148      6151      6150      6148      6151
      6148      6151      6153      6148      6151      6157      6153      6151      6157
      6146      6154      6156      6146      6154      6157      6156      6154      6157
      6151      6157      6154      6151      6157      6159      6154      6157      6159
      6163      6161      6164      6163      6161      6165      6163      6161      6166
      6164      6161      6165      6164      6161      6166      6165      6161      6166
      6161      6166      6168      6161      6166      6174      6168      6166      6174
      6166      6168      6170      6166      6168      6171      6170      6168      6171
      6168      6171      6173      6168      6171      6177      6173      6171      6177
      6166      6174      6176      6166      6174      6177      6176      6174      6177
      6171      6177      6174      6171      6177      6179      6174      6177      6179
      6183      6181      6184      6183      6181      6185      6183      6181      6186
      6184      6181      6185      6184      6181      6186      6185      6181      6186
      6181      6186      6188      6181      6186      6194      6188      6186      6194
      6186      6188      6190      6186      6188      6191      6190      6188      6191
      6188      6191      6193      6188      6191      6197      6193      6191      6197
      6186      6194      6196      6186      6194      6197      6196      6194      6197
      6191      6197      6194      6191      6197      6199      6194      6197      6199
      6203      6201      6204      6203      6201      6205      6203      6201      6206
      6204      6201      6205      6204      6201      6206      6205      6201      6206
      6201      6206      6208      6201      6206      6214      6208      6206      6214
      6206      6208      6210      6206      6208      6211      6210      6208      6211
      6208      6211      6213      6208      6211      6217      6213      6211      6217
      6206      6214      6216      6206      6214      6217      6216      6214      6217
      6211      6217      6214      6211      6217      6219      6214      6217      6219
      6223      6221      6224      6223      6221      6225      6223      6221      6226
      6224      6221      6225      6224      6221      6226      6225      6221      6226
      6221      6226      6228      6221      6226      6234      6228      6226      6234
      6226      6228      6230      6226      6228      6231      6230      6228      6231
      6228      6231      6233      6228      6231      6237      6233      6231      6237
      6226      6234      6236      6226      6234      6237      6236      6234      6237
      6231      6237      6234      6231      6237      6239      6234      6237      6239
      6243      6241      6244      6243      6241      6245      6243      6241      6246
      6244      6241      6245      6244      6241      6246      6245      6241      6246
      6241      6246      6248      6241      6246      6254      6248      6246      6254
      6246      6248      6250      6246      6248      6251      6250      6248      6251
      6248      6251      6253      6248      6251      6257      6253      6251      6257
      6246      6254      6256      6246      6254      6257      6256      6254      6257
      6251      6257      6254      6251      6257      6259      6254      6257      6259
      6263      6261      6264      6263      6261      6265      6263      6261      6266
      6264      6261      6265      6264      6261      6266      6265      6261      6266
      6261      6266      6268      6261      6266      6274      6268      6266      6274
      6266      6268      6270      6266      6268      6271      6270      6268      6271
      6268      6271      6273      6268      6271      6277      6273      6271      6277
      6266      6274      6276      6266      6274      6277      6276      6274      6277
      6271      6277      6274      6271      6277      6279      6274      6277      6279
      6283      6281      6284      6283      6281      6285      6283      6281      6286
      6284      6281      6285      6284      6281      6286      6285      6281      6286
      6281      6286      6288      6281      6286      6294      6288      6286      6294
      6286      6288      6290      6286      6288      6291      6290      6288      6291
      6288      6291      6293      6288      6291      6297      6293      6291      6297
      6286      6294      6296      6286      6294      6297      6296      6294      6297
      6291      6297      6294      6291      6297      6299      6294      6297      6299
      6303      6301      6304      6303      6301      6305      6303      6301      6306
      6304      6301      6305      6304      6301      6306      6305      6301      6306
      6301      6306      6308      6301      6306      6314      6308      6306      6314
      6306      6308      6310      6306      6308      6311      6310      6308      6311
      6308      6311      6313      6308      6311      6317      6313      6311      6317
      6306      6314      6316      6306      6314      6317      6316      6314      6317
      6311      6317      6314      6311      6317      6319      6314      6317      6319
      6323      6321      6324      6323      6321      6325      6323      6321      6326
      6324      6321      6325      6324      6321      6326      6325      6321      6326
      6321      6326      6328      6321      6326      6334      6328      6326      6334
      6326      6328      6330      6326      6328      6331      6330      6328      6331
      6328      6331      6333      6328      6331      6337      6333      6331      6337
      6326      6334      6336      6326      6334      6337      6336      6334      6337
      6331      6337      6334      6331      6337      6339      6334      6337      6339
      6343      6341      6344      6343      6341      6345      6343      6341      6346
      6344      6341      6345      6344      6341      6346      6345      6341      6346
      6341      6346      6348      6341      6346      6354      6348      6346      6354
      6346      6348      6350      6346      6348      6351      6350      6348      6351
      6348      6351      6353      6348      6351      6357      6353      6351      6357
      6346      6354      6356      6346      6354      6357      6356      6354      6357
      6351      6357      6354      6351      6357      6359      6354      6357      6359
      6363      6361      6364      6363      6361      6365      6363      6361      6366
      6364      6361      6365      6364      6361      6366      6365      6361      6366
      6361      6366      6368      6361      6366      6374      6368      6366      6374
      6366      6368      6370      6366      6368      6371      6370      6368      6371
      6368      6371      6373      6368      6371      6377      6373      6371      6377
      6366      6374      6376      6366      6374      6377      6376      6374      6377
      6371      6377      6374      6371      6377      6379      6374      6377      6379
      6383      6381      6384      6383      6381      6385      6383      6381      6386
      6384      6381      6385      6384      6381      6386      6385      6381      6386
      6381      6386      6388      6381      6386      6394      6388      6386      6394
      6386      6388      6390      6386      6388      6391      6390      6388      6391
      6388      6391      6393      6388      6391      6397      6393      6391      6397
      6386      6394      6396      6386      6394      6397      6396      6394      6397
      6391      6397      6394      6391      6397      6399      6394      6397      6399
      6403      6401      6404      6403      6401      6405      6403      6401      6406
      6404      6401      6405      6404      6401      6406      6405      6401      6406
      6401      6406      6408      6401      6406      6414      6408      6406      6414
      6406      6408      6410      6406      6408      6411      6410      6408      6411
      6408      6411      6413      6408      6411      6417      6413      6411      6417
      6406      6414      6416      6406      6414      6417      6416      6414      6417
      6411      6417      6414      6411      6417      6419      6414      6417      6419
      6423      6421      6424      6423      6421      6425      6423      6421      6426
      6424      6421      6425      6424      6421      6426      6425      6421      6426
      6421      6426      6428      6421      6426      6434      6428      6426      6434
      6426      6428      6430      6426      6428      6431      6430      6428      6431
      6428      6431      6433      6428      6431      6437      6433      6431      6437
      6426      6434      6436      6426      6434      6437      6436      6434      6437
      6431      6437      6434      6431      6437      6439      6434      6437      6439
      6443      6441      6444      6443      6441      6445      6443      6441      6446
      6444      6441      6445      6444      6441      6446      6445      6441      6446
      6441      6446      6448      6441      6446      6454      6448      6446      6454
      6446      6448      6450      6446      6448      6451      6450      6448      6451
      6448      6451      6453      6448      6451      6457      6453      6451      6457
      6446      6454      6456      6446      6454      6457      6456      6454      6457
      6451      6457      6454      6451      6457      6459      6454      6457      6459
      6463      6461      6464      6463      6461      6465      6463      6461      6466
      6464      6461      6465      6464      6461      6466      6465      6461      6466
      6461      6466      6468      6461      6466      6474      6468      6466      6474
      6466      6468      6470      6466      6468      6471      6470      6468      6471
      6468      6471      6473      6468      6471      6477      6473      6471      6477
      6466      6474      6476      6466      6474      6477      6476      6474      6477
      6471      6477      6474      6471      6477      6479      6474      6477      6479
      6483      6481      6484      6483      6481      6485      6483      6481      6486
      6484      6481      6485      6484      6481      6486      6485      6481      6486
      6481      6486      6488      6481      6486      6494      6488      6486      6494
      6486      6488      6490      6486      6488      6491      6490      6488      6491
      6488      6491      6493      6488      6491      6497      6493      6491      6497
      6486      6494      6496      6486      6494      6497      6496      6494      6497
      6491      6497      6494      6491      6497      6499      6494      6497      6499
      6503      6501      6504      6503      6501      6505      6503      6501      6506
      6504      6501      6505      6504      6501      6506      6505      6501      6506
      6501      6506      6508      6501      6506      6514      6508      6506      6514
      6506      6508      6510      6506      6508      6511      6510      6508      6511
      6508      6511      6513      6508      6511      6517      6513      6511      6517
      6506      6514      6516      6506      6514      6517      6516      6514      6517
      6511      6517      6514      6511      6517      6519      6514      6517      6519
      6523      6521      6524      6523      6521      6525      6523      6521      6526
      6524      6521      6525      6524      6521      6526      6525      6521      6526
      6521      6526      6528      6521      6526      6534      6528      6526      6534
      6526      6528      6530      6526      6528      6531      6530      6528      6531
      6528      6531      6533      6528      6531      6537      6533      6531      6537
      6526      6534      6536      6526      6534      6537      6536      6534      6537
      6531      6537      6534      6531      6537      6539      6534      6537      6539
      6543      6541      6544      6543      6541      6545      6543      6541      6546
      6544      6541      6545      6544      6541      6546      6545      6541      6546
      6541      6546      6548      6541      6546      6554      6548      6546      6554
      6546      6548      6550      6546      6548      6551      6550      6548      6551
      6548      6551      6553      6548      6551      6557      6553      6551      6557
      6546      6554      6556      6546      6554      6557      6556      6554      6557
      6551      6557      6554      6551      6557      6559      6554      6557      6559
      6563      6561      6564      6563      6561      6565      6563      6561      6566
      6564      6561      6565      6564      6561      6566      6565      6561      6566
      6561      6566      6568      6561      6566      6574      6568      6566      6574
      6566      6568      6570      6566      6568      6571      6570      6568      6571
      6568      6571      6573      6568      6571      6577      6573      6571      6577
      6566      6574      6576      6566      6574      6577      6576      6574      6577
      6571      6577      6574      6571      6577      6579      6574      6577      6579
      6583      6581      6584      6583      6581      6585      6583      6581      6586
      6584      6581      6585      6584      6581      6586      6585      6581      6586
      6581      6586      6588      6581      6586      6594      6588      6586      6594
      6586      6588      6590      6586      6588      6591      6590      6588      6591
      6588      6591      6593      6588      6591      6597      6593      6591      6597
      6586      6594      6596      6586      6594      6597      6596      6594      6597
      6591      6597      6594      6591      6597      6599      6594      6597      6599
      6603      6601      6604      6603      6601      6605      6603      6601      6606
      6604      6601      6605      6604      6601      6606      6605      6601      6606
      6601      6606      6608      6601      6606      6614      6608      6606      6614
      6606      6608      6610      6606      6608      6611      6610      6608      6611
      6608      6611      6613      6608      6611      6617      6613      6611      6617
      6606      6614      6616      6606      6614      6617      6616      6614      6617
      6611      6617      6614      6611      6617      6619      6614      6617      6619
      6623      6621      6624      6623      6621      6625      6623      6621      6626
      6624      6621      6625      6624      6621      6626      6625      6621      6626
      6621      6626      6628      6621      6626      6634      6628      6626      6634
      6626      6628      6630      6626      6628      6631      6630      6628      6631
      6628      6631      6633      6628      6631      6637      6633      6631      6637
      6626      6634      6636      6626      6634      6637      6636      6634      6637
      6631      6637      6634      6631      6637      6639      6634      6637      6639
      6643      6641      6644      6643      6641      6645      6643      6641      6646
      6644      6641      6645      6644      6641      6646      6645      6641      6646
      6641      6646      6648      6641      6646      6654      6648      6646      6654
      6646      6648      6650      6646      6648      6651      6650      6648      6651
      6648      6651      6653      6648      6651      6657      6653      6651      6657
      6646      6654      6656      6646      6654      6657      6656      6654      6657
      6651      6657      6654      6651      6657      6659      6654      6657      6659
      6663      6661      6664      6663      6661      6665      6663      6661      6666
      6664      6661      6665      6664      6661      6666      6665      6661      6666
      6661      6666      6668      6661      6666      6674      6668      6666      6674
      6666      6668      6670      6666      6668      6671      6670      6668      6671
      6668      6671      6673      6668      6671      6677      6673      6671      6677
      6666      6674      6676      6666      6674      6677      6676      6674      6677
      6671      6677      6674      6671      6677      6679      6674      6677      6679
      6683      6681      6684      6683      6681      6685      6683      6681      6686
      6684      6681      6685      6684      6681      6686      6685      6681      6686
      6681      6686      6688      6681      6686      6694      6688      6686      6694
      6686      6688      6690      6686      6688      6691      6690      6688      6691
      6688      6691      6693      6688      6691      6697      6693      6691      6697
      6686      6694      6696      6686      6694      6697      6696      6694      6697
      6691      6697      6694      6691      6697      6699      6694      6697      6699
      6703      6701      6704      6703      6701      6705      6703      6701      6706
      6704      6701      6705      6704      6701      6706      6705      6701      6706
      6701      6706      6708      6701      6706      6714      6708      6706      6714
      6706      6708      6710      6706      6708      6711      6710      6708      6711
      6708      6711      6713      6708      6711      6717      6713      6711      6717
      6706      6714      6716      6706      6714      6717      6716      6714      6717
      6711      6717      6714      6711      6717      6719      6714      6717      6719
      6723      6721      6724      6723      6721      6725      6723      6721      6726
      6724      6721      6725      6724      6721      6726      6725      6721      6726
      6721      6726      6728      6721      6726      6734      6728      6726      6734
      6726      6728      6730      6726      6728      6731      6730      6728      6731
      6728      6731      6733      6728      6731      6737      6733      6731      6737
      6726      6734      6736      6726      6734      6737      6736      6734      6737
      6731      6737      6734      6731      6737      6739      6734      6737      6739
      6743      6741      6744      6743      6741      6745      6743      6741      6746
      6744      6741      6745      6744      6741      6746      6745      6741      6746
      6741      6746      6748      6741      6746      6754      6748      6746      6754
      6746      6748      6750      6746      6748      6751      6750      6748      6751
      6748      6751      6753      6748      6751      6757      6753      6751      6757
      6746      6754      6756      6746      6754      6757      6756      6754      6757
      6751      6757      6754      6751      6757      6759      6754      6757      6759
      6763      6761      6764      6763      6761      6765      6763      6761      6766
      6764      6761      6765      6764      6761      6766      6765      6761      6766
      6761      6766      6768      6761      6766      6774      6768      6766      6774
      6766      6768      6770      6766      6768      6771      6770      6768      6771
      6768      6771      6773      6768      6771      6777      6773      6771      6777
      6766      6774      6776      6766      6774      6777      6776      6774      6777
      6771      6777      6774      6771      6777      6779      6774      6777      6779
      6783      6781      6784      6783      6781      6785      6783      6781      6786
      6784      6781      6785      6784      6781      6786      6785      6781      6786
      6781      6786      6788      6781      6786      6794      6788      6786      6794
      6786      6788      6790      6786      6788      6791      6790      6788      6791
      6788      6791      6793      6788      6791      6797      6793      6791      6797
      6786      6794      6796      6786      6794      6797      6796      6794      6797
      6791      6797      6794      6791      6797      6799      6794      6797      6799
      6803      6801      6804      6803      6801      6805      6803      6801      6806
      6804      6801      6805      6804      6801      6806      6805      6801      6806
      6801      6806      6808      6801      6806      6814      6808      6806      6814
      6806      6808      6810      6806      6808      6811      6810      6808      6811
      6808      6811      6813      6808      6811      6817      6813      6811      6817
      6806      6814      6816      6806      6814      6817      6816      6814      6817
      6811      6817      6814      6811      6817      6819      6814      6817      6819
      6823      6821      6824      6823      6821      6825      6823      6821      6826
      6824      6821      6825      6824      6821      6826      6825      6821      6826
      6821      6826      6828      6821      6826      6834      6828      6826      6834
      6826      6828      6830      6826      6828      6831      6830      6828      6831
      6828      6831      6833      6828      6831      6837      6833      6831      6837
      6826      6834      6836      6826      6834      6837      6836      6834      6837
      6831      6837      6834      6831      6837      6839      6834      6837      6839
      6843      6841      6844      6843      6841      6845      6843      6841      6846
      6844      6841      6845      6844      6841      6846      6845      6841      6846
      6841      6846      6848      6841      6846      6854      6848      6846      6854
      6846      6848      6850      6846      6848      6851      6850      6848      6851
      6848      6851      6853      6848      6851      6857      6853      6851      6857
      6846      6854      6856      6846      6854      6857      6856      6854      6857
      6851      6857      6854      6851      6857      6859      6854      6857      6859
      6863      6861      6864      6863      6861      6865      6863      6861      6866
      6864      6861      6865      6864      6861      6866      6865      6861      6866
      6861      6866      6868      6861      6866      6874      6868      6866      6874
      6866      6868      6870      6866      6868      6871      6870      6868      6871
      6868      6871      6873      6868      6871      6877      6873      6871      6877
      6866      6874      6876      6866      6874      6877      6876      6874      6877
      6871      6877      6874      6871      6877      6879      6874      6877      6879
      6883      6881      6884      6883      6881      6885      6883      6881      6886
      6884      6881      6885      6884      6881      6886      6885      6881      6886
      6881      6886      6888      6881      6886      6894      6888      6886      6894
      6886      6888      6890      6886      6888      6891      6890      6888      6891
      6888      6891      6893      6888      6891      6897      6893      6891      6897
      6886      6894      6896      6886      6894      6897      6896      6894      6897
      6891      6897      6894      6891      6897      6899      6894      6897      6899
      6903      6901      6904      6903      6901      6905      6903      6901      6906
      6904      6901      6905      6904      6901      6906      6905      6901      6906
      6901      6906      6908      6901      6906      6914      6908      6906      6914
      6906      6908      6910      6906      6908      6911      6910      6908      6911
      6908      6911      6913      6908      6911      6917      6913      6911      6917
      6906      6914      6916      6906      6914      6917      6916      6914      6917
      6911      6917      6914      6911      6917      6919      6914      6917      6919
      6923      6921      6924      6923      6921      6925      6923      6921      6926
      6924      6921      6925      6924      6921      6926      6925      6921      6926
      6921      6926      6928      6921      6926      6934      6928      6926      6934
      6926      6928      6930      6926      6928      6931      6930      6928      6931
      6928      6931      6933      6928      6931      6937      6933      6931      6937
      6926      6934      6936      6926      6934      6937      6936      6934      6937
      6931      6937      6934      6931      6937      6939      6934      6937      6939
      6943      6941      6944      6943      6941      6945      6943      6941      6946
      6944      6941      6945      6944      6941      6946      6945      6941      6946
      6941      6946      6948      6941      6946      6954      6948      6946      6954
      6946      6948      6950      6946      6948      6951      6950      6948      6951
      6948      6951      6953      6948      6951      6957      6953      6951      6957
      6946      6954      6956      6946      6954      6957      6956      6954      6957
      6951      6957      6954      6951      6957      6959      6954      6957      6959
      6963      6961      6964      6963      6961      6965      6963      6961      6966
      6964      6961      6965      6964      6961      6966      6965      6961      6966
      6961      6966      6968      6961      6966      6974      6968      6966      6974
      6966      6968      6970      6966      6968      6971      6970      6968      6971
      6968      6971      6973      6968      6971      6977      6973      6971      6977
      6966      6974      6976      6966      6974      6977      6976      6974      6977
      6971      6977      6974      6971      6977      6979      6974      6977      6979
      6983      6981      6984      6983      6981      6985      6983      6981      6986
      6984      6981      6985      6984      6981      6986      6985      6981      6986
      6981      6986      6988      6981      6986      6994      6988      6986      6994
      6986      6988      6990      6986      6988      6991      6990      6988      6991
      6988      6991      6993      6988      6991      6997      6993      6991      6997
      6986      6994      6996      6986      6994      6997      6996      6994      6997
      6991      6997      6994      6991      6997      6999      6994      6997      6999
      7003      7001      7004      7003      7001      7005      7003      7001      7006
      7004      7001      7005      7004      7001      7006      7005      7001      7006
      7001      7006      7008      7001      7006      7014      7008      7006      7014
      7006      7008      7010      7006      7008      7011      7010      7008      7011
      7008      7011      7013      7008      7011      7017      7013      7011      7017
      7006      7014      7016      7006      7014      7017      7016      7014      7017
      7011      7017      7014      7011      7017      7019      7014      7017      7019
      7023      7021      7024      7023      7021      7025      7023      7021      7026
      7024      7021      7025      7024      7021      7026      7025      7021      7026
      7021      7026      7028      7021      7026      7034      7028      7026      7034
      7026      7028      7030      7026      7028      7031      7030      7028      7031
      7028      7031      7033      7028      7031      7037      7033      7031      7037
      7026      7034      7036      7026      7034      7037      7036      7034      7037
      7031      7037      7034      7031      7037      7039      7034      7037      7039
      7043      7041      7044      7043      7041      7045      7043      7041      7046
      7044      7041      7045      7044      7041      7046      7045      7041      7046
      7041      7046      7048      7041      7046      7054      7048      7046      7054
      7046      7048      7050      7046      7048      7051      7050      7048      7051
      7048      7051      7053      7048      7051      7057      7053      7051      7057
      7046      7054      7056      7046      7054      7057      7056      7054      7057
      7051      7057      7054      7051      7057      7059      7054      7057      7059
      7063      7061      7064      7063      7061      7065      7063      7061      7066
      7064      7061      7065      7064      7061      7066      7065      7061      7066
      7061      7066      7068      7061      7066      7074      7068      7066      7074
      7066      7068      7070      7066      7068      7071      7070      7068      7071
      7068      7071      7073      7068      7071      7077      7073      7071      7077
      7066      7074      7076      7066      7074      7077      7076      7074      7077
      7071      7077      7074      7071      7077      7079      7074      7077      7079
      7083      7081      7084      7083      7081      7085      7083      7081      7086
      7084      7081      7085      7084      7081      7086      7085      7081      7086
      7081      7086      7088      7081      7086      7094      7088      7086      7094
      7086      7088      7090      7086      7088      7091      7090      7088      7091
      7088      7091      7093      7088      7091      7097      7093      7091      7097
      7086      7094      7096      7086      7094      7097      7096      7094      7097
      7091      7097      7094      7091      7097      7099      7094      7097      7099
      7103      7101      7104      7103      7101      7105      7103      7101      7106
      7104      7101      7105      7104      7101      7106      7105      7101      7106
      7101      7106      7108      7101      7106      7114      7108      7106      7114
      7106      7108      7110      7106      7108      7111      7110      7108      7111
      7108      7111      7113      7108      7111      7117      7113      7111      7117
      7106      7114      7116      7106      7114      7117      7116      7114      7117
      7111      7117      7114      7111      7117      7119      7114      7117      7119
      7123      7121      7124      7123      7121      7125      7123      7121      7126
      7124      7121      7125      7124      7121      7126      7125      7121      7126
      7121      7126      7128      7121      7126      7134      7128      7126      7134
      7126      7128      7130      7126      7128      7131      7130      7128      7131
      7128      7131      7133      7128      7131      7137      7133      7131      7137
      7126      7134      7136      7126      7134      7137      7136      7134      7137
      7131      7137      7134      7131      7137      7139      7134      7137      7139
      7143      7141      7144      7143      7141      7145      7143      7141      7146
      7144      7141      7145      7144      7141      7146      7145      7141      7146
      7141      7146      7148      7141      7146      7154      7148      7146      7154
      7146      7148      7150      7146      7148      7151      7150      7148      7151
      7148      7151      7153      7148      7151      7157      7153      7151      7157
      7146      7154      7156      7146      7154      7157      7156      7154      7157
      7151      7157      7154      7151      7157      7159      7154      7157      7159
      7163      7161      7164      7163      7161      7165      7163      7161      7166
      7164      7161      7165      7164      7161      7166      7165      7161      7166
      7161      7166      7168      7161      7166      7174      7168      7166      7174
      7166      7168      7170      7166      7168      7171      7170      7168      7171
      7168      7171      7173      7168      7171      7177      7173      7171      7177
      7166      7174      7176      7166      7174      7177      7176      7174      7177
      7171      7177      7174      7171      7177      7179      7174      7177      7179
      7183      7181      7184      7183      7181      7185      7183      7181      7186
      7184      7181      7185      7184      7181      7186      7185      7181      7186
      7181      7186      7188      7181      7186      7194      7188      7186      7194
      7186      7188      7190      7186      7188      7191      7190      7188      7191
      7188      7191      7193      7188      7191      7197      7193      7191      7197
      7186      7194      7196      7186      7194      7197      7196      7194      7197
      7191      7197      7194      7191      7197      7199      7194      7197      7199
      7203      7201      7204      7203      7201      7205      7203      7201      7206
      7204      7201      7205      7204      7201      7206      7205      7201      7206
      7201      7206      7208      7201      7206      7214      7208      7206      7214
      7206      7208      7210      7206      7208      7211      7210      7208      7211
      7208      7211      7213      7208      7211      7217      7213      7211      7217
      7206      7214      7216      7206      7214      7217      7216      7214      7217
      7211      7217      7214      7211      7217      7219      7214      7217      7219
      7223      7221      7224      7223      7221      7225      7223      7221      7226
      7224      7221      7225      7224      7221      7226      7225      7221      7226
      7221      7226      7228      7221      7226      7234      7228      7226      7234
      7226      7228      7230      7226      7228      7231      7230      7228      7231
      7228      7231      7233      7228      7231      7237      7233      7231      7237
      7226      7234      7236      7226      7234      7237      7236      7234      7237
      7231      7237      7234      7231      7237      7239      7234      7237      7239
      7243      7241      7244      7243      7241      7245      7243      7241      7246
      7244      7241      7245      7244      7241      7246      7245      7241      7246
      7241      7246      7248      7241      7246      7254      7248      7246      7254
      7246      7248      7250      7246      7248      7251      7250      7248      7251
      7248      7251      7253      7248      7251      7257      7253      7251      7257
      7246      7254      7256      7246      7254      7257      7256      7254      7257
      7251      7257      7254      7251      7257      7259      7254      7257      7259
      7263      7261      7264      7263      7261      7265      7263      7261      7266
      7264      7261      7265      7264      7261      7266      7265      7261      7266
      7261      7266      7268      7261      7266      7274      7268      7266      7274
      7266      7268      7270      7266      7268      7271      7270      7268      7271
      7268      7271      7273      7268      7271      7277      7273      7271      7277
      7266      7274      7276      7266      7274      7277      7276      7274      7277
      7271      7277      7274      7271      7277      7279      7274      7277      7279
      7283      7281      7284      7283      7281      7285      7283      7281      7286
      7284      7281      7285      7284      7281      7286      7285      7281      7286
      7281      7286      7288      7281      7286      7294      7288      7286      7294
      7286      7288      7290      7286      7288      7291      7290      7288      7291
      7288      7291      7293      7288      7291      7297      7293      7291      7297
      7286      7294      7296      7286      7294      7297      7296      7294      7297
      7291      7297      7294      7291      7297      7299      7294      7297      7299
      7303      7301      7304      7303      7301      7305      7303      7301      7306
      7304      7301      7305      7304      7301      7306      7305      7301      7306
      7301      7306      7308      7301      7306      7314      7308      7306      7314
      7306      7308      7310      7306      7308      7311      7310      7308      7311
      7308      7311      7313      7308      7311      7317      7313      7311      7317
      7306      7314      7316      7306      7314      7317      7316      7314      7317
      7311      7317      7314      7311      7317      7319      7314      7317      7319
      7323      7321      7324      7323      7321      7325      7323      7321      7326
      7324      7321      7325      7324      7321      7326      7325      7321      7326
      7321      7326      7328      7321      7326      7334      7328      7326      7334
      7326      7328      7330      7326      7328      7331      7330      7328      7331
      7328      7331      7333      7328      7331      7337      7333      7331      7337
      7326      7334      7336      7326      7334      7337      7336      7334      7337
      7331      7337      7334      7331      7337      7339      7334      7337      7339
      7343      7341      7344      7343      7341      7345      7343      7341      7346
      7344      7341      7345      7344      7341      7346      7345      7341      7346
      7341      7346      7348      7341      7346      7354      7348      7346      7354
      7346      7348      7350      7346      7348      7351      7350      7348      7351
      7348      7351      7353      7348      7351      7357      7353      7351      7357
      7346      7354      7356      7346      7354      7357      7356      7354      7357
      7351      7357      7354      7351      7357      7359      7354      7357      7359
      7363      7361      7364      7363      7361      7365      7363      7361      7366
      7364      7361      7365      7364      7361      7366      7365      7361      7366
      7361      7366      7368      7361      7366      7374      7368      7366      7374
      7366      7368      7370      7366      7368      7371      7370      7368      7371
      7368      7371      7373      7368      7371      7377      7373      7371      7377
      7366      7374      7376      7366      7374      7377      7376      7374      7377
      7371      7377      7374      7371      7377      7379      7374      7377      7379
      7383      7381      7384      7383      7381      7385      7383      7381      7386
      7384      7381      7385      7384      7381      7386      7385      7381      7386
      7381      7386      7388      7381      7386      7394      7388      7386      7394
      7386      7388      7390      7386      7388      7391      7390      7388      7391
      7388      7391      7393      7388      7391      7397      7393      7391      7397
      7386      7394      7396      7386      7394      7397      7396      7394      7397
      7391      7397      7394      7391      7397      7399      7394      7397      7399
      7403      7401      7404      7403      7401      7405      7403      7401      7406
      7404      7401      7405      7404      7401      7406      7405      7401      7406
      7401      7406      7408      7401      7406      7414      7408      7406      7414
      7406      7408      7410      7406      7408      7411      7410      7408      7411
      7408      7411      7413      7408      7411      7417      7413      7411      7417
      7406      7414      7416      7406      7414      7417      7416      7414      7417
      7411      7417      7414      7411      7417      7419      7414      7417      7419
      7423      7421      7424      7423      7421      7425      7423      7421      7426
      7424      7421      7425      7424      7421      7426      7425      7421      7426
      7421      7426      7428      7421      7426      7434      7428      7426      7434
      7426      7428      7430      7426      7428      7431      7430      7428      7431
      7428      7431      7433      7428      7431      7437      7433      7431      7437
      7426      7434      7436      7426      7434      7437      7436      7434      7437
      7431      7437      7434      7431      7437      7439      7434      7437      7439
      7443      7441      7444      7443      7441      7445      7443      7441      7446
      7444      7441      7445      7444      7441      7446      7445      7441      7446
      7441      7446      7448      7441      7446      7454      7448      7446      7454
      7446      7448      7450      7446      7448      7451      7450      7448      7451
      7448      7451      7453      7448      7451      7457      7453      7451      7457
      7446      7454      7456      7446      7454      7457      7456      7454      7457
      7451      7457      7454      7451      7457      7459      7454      7457      7459
      7463      7461      7464      7463      7461      7465      7463      7461      7466
      7464      7461      7465      7464      7461      7466      7465      7461      7466
      7461      7466      7468      7461      7466      7474      7468      7466      7474
      7466      7468      7470      7466      7468      7471      7470      7468      7471
      7468      7471      7473      7468      7471      7477      7473      7471      7477
      7466      7474      7476      7466      7474      7477      7476      7474      7477
      7471      7477      7474      7471      7477      7479      7474      7477      7479
      7483      7481      7484      7483      7481      7485      7483      7481      7486
      7484      7481      7485      7484      7481      7486      7485      7481      7486
      7481      7486      7488      7481      7486      7494      7488      7486      7494
      7486      7488      7490      7486      7488      7491      7490      7488      7491
      7488      7491      7493      7488      7491      7497      7493      7491      7497
      7486      7494      7496      7486      7494      7497      7496      7494      7497
      7491      7497      7494      7491      7497      7499      7494      7497      7499
      7503      7501      7504      7503      7501      7505      7503      7501      7506
      7504      7501      7505      7504      7501      7506      7505      7501      7506
      7501      7506      7508      7501      7506      7514      7508      7506      7514
      7506      7508      7510      7506      7508      7511      7510      7508      7511
      7508      7511      7513      7508      7511      7517      7513      7511      7517
      7506      7514      7516      7506      7514      7517      7516      7514      7517
      7511      7517      7514      7511      7517      7519      7514      7517      7519
      7523      7521      7524      7523      7521      7525      7523      7521      7526
      7524      7521      7525      7524      7521      7526      7525      7521      7526
      7521      7526      7528      7521      7526      7534      7528      7526      7534
      7526      7528      7530      7526      7528      7531      7530      7528      7531
      7528      7531      7533      7528      7531      7537      7533      7531      7537
      7526      7534      7536      7526      7534      7537      7536      7534      7537
      7531      7537      7534      7531      7537      7539      7534      7537      7539
      7543      7541      7544      7543      7541      7545      7543      7541      7546
      7544      7541      7545      7544      7541      7546      7545      7541      7546
      7541      7546      7548      7541      7546      7554      7548      7546      7554
      7546      7548      7550      7546      7548      7551      7550      7548      7551
      7548      7551      7553      7548      7551      7557      7553      7551      7557
      7546      7554      7556      7546      7554      7557      7556      7554      7557
      7551      7557      7554      7551      7557      7559      7554      7557      7559
      7563      7561      7564      7563      7561      7565      7563      7561      7566
      7564      7561      7565      7564      7561      7566      7565      7561      7566
      7561      7566      7568      7561      7566      7574      7568      7566      7574
      7566      7568      7570      7566      7568      7571      7570      7568      7571
      7568      7571      7573      7568      7571      7577      7573      7571      7577
      7566      7574      7576      7566      7574      7577      7576      7574      7577
      7571      7577      7574      7571      7577      7579      7574      7577      7579
      7583      7581      7584      7583      7581      7585      7583      7581      7586
      7584      7581      7585      7584      7581      7586      7585      7581      7586
      7581      7586      7588      7581      7586      7594      7588      7586      7594
      7586      7588      7590      7586      7588      7591      7590      7588      7591
      7588      7591      7593      7588      7591      7597      7593      7591      7597
      7586      7594      7596      7586      7594      7597      7596      7594      7597
      7591      7597      7594      7591      7597      7599      7594      7597      7599
      7603      7601      7604      7603      7601      7605      7603      7601      7606
      7604      7601      7605      7604      7601      7606      7605      7601      7606
      7601      7606      7608      7601      7606      7614      7608      7606      7614
      7606      7608      7610      7606      7608      7611      7610      7608      7611
      7608      7611      7613      7608      7611      7617      7613      7611      7617
      7606      7614      7616      7606      7614      7617      7616      7614      7617
      7611      7617      7614      7611      7617      7619      7614      7617      7619
      7623      7621      7624      7623      7621      7625      7623      7621      7626
      7624      7621      7625      7624      7621      7626      7625      7621      7626
      7621      7626      7628      7621      7626      7634      7628      7626      7634
      7626      7628      7630      7626      7628      7631      7630      7628      7631
      7628      7631      7633      7628      7631      7637      7633      7631      7637
      7626      7634      7636      7626      7634      7637      7636      7634      7637
      7631      7637      7634      7631      7637      7639      7634      7637      7639
      7643      7641      7644      7643      7641      7645      7643      7641      7646
      7644      7641      7645      7644      7641      7646      7645      7641      7646
      7641      7646      7648      7641      7646      7654      7648      7646      7654
      7646      7648      7650      7646      7648      7651      7650      7648      7651
      7648      7651      7653      7648      7651      7657      7653      7651      7657
      7646      7654      7656      7646      7654      7657      7656      7654      7657
      7651      7657      7654      7651      7657      7659      7654      7657      7659
      7663      7661      7664      7663      7661      7665      7663      7661      7666
      7664      7661      7665      7664      7661      7666      7665      7661      7666
      7661      7666      7668      7661      7666      7674      7668      7666      7674
      7666      7668      7670      7666      7668      7671      7670      7668      7671
      7668      7671      7673      7668      7671      7677      7673      7671      7677
      7666      7674      7676      7666      7674      7677      7676      7674      7677
      7671      7677      7674      7671      7677      7679      7674      7677      7679
      7683      7681      7684      7683      7681      7685      7683      7681      7686
      7684      7681      7685      7684      7681      7686      7685      7681      7686
      7681      7686      7688      7681      7686      7694      7688      7686      7694
      7686      7688      7690      7686      7688      7691      7690      7688      7691
      7688      7691      7693      7688      7691      7697      7693      7691      7697
      7686      7694      7696      7686      7694      7697      7696      7694      7697
      7691      7697      7694      7691      7697      7699      7694      7697      7699
      7703      7701      7704      7703      7701      7705      7703      7701      7706
      7704      7701      7705      7704      7701      7706      7705      7701      7706
      7701      7706      7708      7701      7706      7714      7708      7706      7714
      7706      7708      7710      7706      7708      7711      7710      7708      7711
      7708      7711      7713      7708      7711      7717      7713      7711      7717
      7706      7714      7716      7706      7714      7717      7716      7714      7717
      7711      7717      7714      7711      7717      7719      7714      7717      7719
      7723      7721      7724      7723      7721      7725      7723      7721      7726
      7724      7721      7725      7724      7721      7726      7725      7721      7726
      7721      7726      7728      7721      7726      7734      7728      7726      7734
      7726      7728      7730      7726      7728      7731      7730      7728      7731
      7728      7731      7733      7728      7731      7737      7733      7731      7737
      7726      7734      7736      7726      7734      7737      7736      7734      7737
      7731      7737      7734      7731      7737      7739      7734      7737      7739
      7743      7741      7744      7743      7741      7745      7743      7741      7746
      7744      7741      7745      7744      7741      7746      7745      7741      7746
      7741      7746      7748      7741      7746      7754      7748      7746      7754
      7746      7748      7750      7746      7748      7751      7750      7748      7751
      7748      7751      7753      7748      7751      7757      7753      7751      7757
      7746      7754      7756      7746      7754      7757      7756      7754      7757
      7751      7757      7754      7751      7757      7759      7754      7757      7759
      7763      7761      7764      7763      7761      7765      7763      7761      7766
      7764      7761      7765      7764      7761      7766      7765      7761      7766
      7761      7766      7768      7761      7766      7774      7768      7766      7774
      7766      7768      7770      7766      7768      7771      7770      7768      7771
      7768      7771      7773      7768      7771      7777      7773      7771      7777
      7766      7774      7776      7766      7774      7777      7776      7774      7777
      7771      7777      7774      7771      7777      7779      7774      7777      7779
      7783      7781      7784      7783      7781      7785      7783      7781      7786
      7784      7781      7785      7784      7781      7786      7785      7781      7786
      7781      7786      7788      7781      7786      7794      7788      7786      7794
      7786      7788      7790      7786      7788      7791      7790      7788      7791
      7788      7791      7793      7788      7791      7797      7793      7791      7797
      7786      7794      7796      7786      7794      7797      7796      7794      7797
      7791      7797      7794      7791      7797      7799      7794      7797      7799
      7803      7801      7804      7803      7801      7805      7803      7801      7806
      7804      7801      7805      7804      7801      7806      7805      7801      7806
      7801      7806      7808      7801      7806      7814      7808      7806      7814
      7806      7808      7810      7806      7808      7811      7810      7808      7811
      7808      7811      7813      7808      7811      7817      7813      7811      7817
      7806      7814      7816      7806      7814      7817      7816      7814      7817
      7811      7817      7814      7811      7817      7819      7814      7817      7819
      7823      7821      7824      7823      7821      7825      7823      7821      7826
      7824      7821      7825      7824      7821      7826      7825      7821      7826
      7821      7826      7828      7821      7826      7834      7828      7826      7834
      7826      7828      7830      7826      7828      7831      7830      7828      7831
      7828      7831      7833      7828      7831      7837      7833      7831      7837
      7826      7834      7836      7826      7834      7837      7836      7834      7837
      7831      7837      7834      7831      7837      7839      7834      7837      7839
      7843      7841      7844      7843      7841      7845      7843      7841      7846
      7844      7841      7845      7844      7841      7846      7845      7841      7846
      7841      7846      7848      7841      7846      7854      7848      7846      7854
      7846      7848      7850      7846      7848      7851      7850      7848      7851
      7848      7851      7853      7848      7851      7857      7853      7851      7857
      7846      7854      7856      7846      7854      7857      7856      7854      7857
      7851      7857      7854      7851      7857      7859      7854      7857      7859
      7863      7861      7864      7863      7861      7865      7863      7861      7866
      7864      7861      7865      7864      7861      7866      7865      7861      7866
      7861      7866      7868      7861      7866      7874      7868      7866      7874
      7866      7868      7870      7866      7868      7871      7870      7868      7871
      7868      7871      7873      7868      7871      7877      7873      7871      7877
      7866      7874      7876      7866      7874      7877      7876      7874      7877
      7871      7877      7874      7871      7877      7879      7874      7877      7879
      7883      7881      7884      7883      7881      7885      7883      7881      7886
      7884      7881      7885      7884      7881      7886      7885      7881      7886
      7881      7886      7888      7881      7886      7894      7888      7886      7894
      7886      7888      7890      7886      7888      7891      7890      7888      7891
      7888      7891      7893      7888      7891      7897      7893      7891      7897
      7886      7894      7896      7886      7894      7897      7896      7894      7897
      7891      7897      7894      7891      7897      7899      7894      7897      7899
      7903      7901      7904      7903      7901      7905      7903      7901      7906
      7904      7901      7905      7904      7901      7906      7905      7901      7906
      7901      7906      7908      7901      7906      7914      7908      7906      7914
      7906      7908      7910      7906      7908      7911      7910      7908      7911
      7908      7911      7913      7908      7911      7917      7913      7911      7917
      7906      7914      7916      7906      7914      7917      7916      7914      7917
      7911      7917      7914      7911      7917      7919      7914      7917      7919
      7923      7921      7924      7923      7921      7925      7923      7921      7926
      7924      7921      7925      7924      7921      7926      7925      7921      7926
      7921      7926      7928      7921      7926      7934      7928      7926      7934
      7926      7928      7930      7926      7928      7931      7930      7928      7931
      7928      7931      7933      7928      7931      7937      7933      7931      7937
      7926      7934      7936      7926      7934      7937      7936      7934      7937
      7931      7937      7934      7931      7937      7939      7934      7937      7939
      7943      7941      7944      7943      7941      7945      7943      7941      7946
      7944      7941      7945      7944      7941      7946      7945      7941      7946
      7941      7946      7948      7941      7946      7954      7948      7946      7954
      7946      7948      7950      7946      7948      7951      7950      7948      7951
      7948      7951      7953      7948      7951      7957      7953      7951      7957
      7946      7954      7956      7946      7954      7957      7956      7954      7957
      7951      7957      7954      7951      7957      7959      7954      7957      7959
      7963      7961      7964      7963      7961      7965      7963      7961      7966
      7964      7961      7965      7964      7961      7966      7965      7961      7966
      7961      7966      7968      7961      7966      7974      7968      7966      7974
      7966      7968      7970      7966      7968      7971      7970      7968      7971
      7968      7971      7973      7968      7971      7977      7973      7971      7977
      7966      7974      7976      7966      7974      7977      7976      7974      7977
      7971      7977      7974      7971      7977      7979      7974      7977      7979
      7983      7981      7984      7983      7981      7985      7983      7981      7986
      7984      7981      7985      7984      7981      7986      7985      7981      7986
      7981      7986      7988      7981      7986      7994      7988      7986      7994
      7986      7988      7990      7986      7988      7991      7990      7988      7991
      7988      7991      7993      7988      7991      7997      7993      7991      7997
      7986      7994      7996      7986      7994      7997      7996      7994      7997
      7991      7997      7994      7991      7997      7999      7994      7997      7999
      8003      8001      8004      8003      8001      8005      8003      8001      8006
      8004      8001      8005      8004      8001      8006      8005      8001      8006
      8001      8006      8008      8001      8006      8014      8008      8006      8014
      8006      8008      8010      8006      8008      8011      8010      8008      8011
      8008      8011      8013      8008      8011      8017      8013      8011      8017
      8006      8014      8016      8006      8014      8017      8016      8014      8017
      8011      8017      8014      8011      8017      8019      8014      8017      8019
      8023      8021      8024      8023      8021      8025      8023      8021      8026
      8024      8021      8025      8024      8021      8026      8025      8021      8026
      8021      8026      8028      8021      8026      8034      8028      8026      8034
      8026      8028      8030      8026      8028      8031      8030      8028      8031
      8028      8031      8033      8028      8031      8037      8033      8031      8037
      8026      8034      8036      8026      8034      8037      8036      8034      8037
      8031      8037      8034      8031      8037      8039      8034      8037      8039
      8043      8041      8044      8043      8041      8045      8043      8041      8046
      8044      8041      8045      8044      8041      8046      8045      8041      8046
      8041      8046      8048      8041      8046      8054      8048      8046      8054
      8046      8048      8050      8046      8048      8051      8050      8048      8051
      8048      8051      8053      8048      8051      8057      8053      8051      8057
      8046      8054      8056      8046      8054      8057      8056      8054      8057
      8051      8057      8054      8051      8057      8059      8054      8057      8059
      8063      8061      8064      8063      8061      8065      8063      8061      8066
      8064      8061      8065      8064      8061      8066      8065      8061      8066
      8061      8066      8068      8061      8066      8074      8068      8066      8074
      8066      8068      8070      8066      8068      8071      8070      8068      8071
      8068      8071      8073      8068      8071      8077      8073      8071      8077
      8066      8074      8076      8066      8074      8077      8076      8074      8077
      8071      8077      8074      8071      8077      8079      8074      8077      8079
      8083      8081      8084      8083      8081      8085      8083      8081      8086
      8084      8081      8085      8084      8081      8086      8085      8081      8086
      8081      8086      8088      8081      8086      8094      8088      8086      8094
      8086      8088      8090      8086      8088      8091      8090      8088      8091
      8088      8091      8093      8088      8091      8097      8093      8091      8097
      8086      8094      8096      8086      8094      8097      8096      8094      8097
      8091      8097      8094      8091      8097      8099      8094      8097      8099
      8103      8101      8104      8103      8101      8105      8103      8101      8106
      8104      8101      8105      8104      8101      8106      8105      8101      8106
      8101      8106      8108      8101      8106      8114      8108      8106      8114
      8106      8108      8110      8106      8108      8111      8110      8108      8111
      8108      8111      8113      8108      8111      8117      8113      8111      8117
      8106      8114      8116      8106      8114      8117      8116      8114      8117
      8111      8117      8114      8111      8117      8119      8114      8117      8119
      8123      8121      8124      8123      8121      8125      8123      8121      8126
      8124      8121      8125      8124      8121      8126      8125      8121      8126
      8121      8126      8128      8121      8126      8134      8128      8126      8134
      8126      8128      8130      8126      8128      8131      8130      8128      8131
      8128      8131      8133      8128      8131      8137      8133      8131      8137
      8126      8134      8136      8126      8134      8137      8136      8134      8137
      8131      8137      8134      8131      8137      8139      8134      8137      8139
      8143      8141      8144      8143      8141      8145      8143      8141      8146
      8144      8141      8145      8144      8141      8146      8145      8141      8146
      8141      8146      8148      8141      8146      8154      8148      8146      8154
      8146      8148      8150      8146      8148      8151      8150      8148      8151
      8148      8151      8153      8148      8151      8157      8153      8151      8157
      8146      8154      8156      8146      8154      8157      8156      8154      8157
      8151      8157      8154      8151      8157      8159      8154      8157      8159
      8163      8161      8164      8163      8161      8165      8163      8161      8166
      8164      8161      8165      8164      8161      8166      8165      8161      8166
      8161      8166      8168      8161      8166      8174      8168      8166      8174
      8166      8168      8170      8166      8168      8171      8170      8168      8171
      8168      8171      8173      8168      8171      8177      8173      8171      8177
      8166      8174      8176      8166      8174      8177      8176      8174      8177
      8171      8177      8174      8171      8177      8179      8174      8177      8179
      8183      8181      8184      8183      8181      8185      8183      8181      8186
      8184      8181      8185      8184      8181      8186      8185      8181      8186
      8181      8186      8188      8181      8186      8194      8188      8186      8194
      8186      8188      8190      8186      8188      8191      8190      8188      8191
      8188      8191      8193      8188      8191      8197      8193      8191      8197
      8186      8194      8196      8186      8194      8197      8196      8194      8197
      8191      8197      8194      8191      8197      8199      8194      8197      8199
      8203      8201      8204      8203      8201      8205      8203      8201      8206
      8204      8201      8205      8204      8201      8206      8205      8201      8206
      8201      8206      8208      8201      8206      8214      8208      8206      8214
      8206      8208      8210      8206      8208      8211      8210      8208      8211
      8208      8211      8213      8208      8211      8217      8213      8211      8217
      8206      8214      8216      8206      8214      8217      8216      8214      8217
      8211      8217      8214      8211      8217      8219      8214      8217      8219
      8223      8221      8224      8223      8221      8225      8223      8221      8226
      8224      8221      8225      8224      8221      8226      8225      8221      8226
      8221      8226      8228      8221      8226      8234      8228      8226      8234
      8226      8228      8230      8226      8228      8231      8230      8228      8231
      8228      8231      8233      8228      8231      8237      8233      8231      8237
      8226      8234      8236      8226      8234      8237      8236      8234      8237
      8231      8237      8234      8231      8237      8239      8234      8237      8239
      8243      8241      8244      8243      8241      8245      8243      8241      8246
      8244      8241      8245      8244      8241      8246      8245      8241      8246
      8241      8246      8248      8241      8246      8254      8248      8246      8254
      8246      8248      8250      8246      8248      8251      8250      8248      8251
      8248      8251      8253      8248      8251      8257      8253      8251      8257
      8246      8254      8256      8246      8254      8257      8256      8254      8257
      8251      8257      8254      8251      8257      8259      8254      8257      8259
      8263      8261      8264      8263      8261      8265      8263      8261      8266
      8264      8261      8265      8264      8261      8266      8265      8261      8266
      8261      8266      8268      8261      8266      8274      8268      8266      8274
      8266      8268      8270      8266      8268      8271      8270      8268      8271
      8268      8271      8273      8268      8271      8277      8273      8271      8277
      8266      8274      8276      8266      8274      8277      8276      8274      8277
      8271      8277      8274      8271      8277      8279      8274      8277      8279
      8283      8281      8284      8283      8281      8285      8283      8281      8286
      8284      8281      8285      8284      8281      8286      8285      8281      8286
      8281      8286      8288      8281      8286      8294      8288      8286      8294
      8286      8288      8290      8286      8288      8291      8290      8288      8291
      8288      8291      8293      8288      8291      8297      8293      8291      8297
      8286      8294      8296      8286      8294      8297      8296      8294      8297
      8291      8297      8294      8291      8297      8299      8294      8297      8299
      8303      8301      8304      8303      8301      8305      8303      8301      8306
      8304      8301      8305      8304      8301      8306      8305      8301      8306
      8301      8306      8308      8301      8306      8314      8308      8306      8314
      8306      8308      8310      8306      8308      8311      8310      8308      8311
      8308      8311      8313      8308      8311      8317      8313      8311      8317
      8306      8314      8316      8306      8314      8317      8316      8314      8317
      8311      8317      8314      8311      8317      8319      8314      8317      8319
      8323      8321      8324      8323      8321      8325      8323      8321      8326
      8324      8321      8325      8324      8321      8326      8325      8321      8326
      8321      8326      8328      8321      8326      8334      8328      8326      8334
      8326      8328      8330      8326      8328      8331      8330      8328      8331
      8328      8331      8333      8328      8331      8337      8333      8331      8337
      8326      8334      8336      8326      8334      8337      8336      8334      8337
      8331      8337      8334      8331      8337      8339      8334      8337      8339
      8343      8341      8344      8343      8341      8345      8343      8341      8346
      8344      8341      8345      8344      8341      8346      8345      8341      8346
      8341      8346      8348      8341      8346      8354      8348      8346      8354
      8346      8348      8350      8346      8348      8351      8350      8348      8351
      8348      8351      8353      8348      8351      8357      8353      8351      8357
      8346      8354      8356      8346      8354      8357      8356      8354      8357
      8351      8357      8354      8351      8357      8359      8354      8357      8359
      8363      8361      8364      8363      8361      8365      8363      8361      8366
      8364      8361      8365      8364      8361      8366      8365      8361      8366
      8361      8366      8368      8361      8366      8374      8368      8366      8374
      8366      8368      8370      8366      8368      8371      8370      8368      8371
      8368      8371      8373      8368      8371      8377      8373      8371      8377
      8366      8374      8376      8366      8374      8377      8376      8374      8377
      8371      8377      8374      8371      8377      8379      8374      8377      8379
      8383      8381      8384      8383      8381      8385      8383      8381      8386
      8384      8381      8385      8384      8381      8386      8385      8381      8386
      8381      8386      8388      8381      8386      8394      8388      8386      8394
      8386      8388      8390      8386      8388      8391      8390      8388      8391
      8388      8391      8393      8388      8391      8397      8393      8391      8397
      8386      8394      8396      8386      8394      8397      8396      8394      8397
      8391      8397      8394      8391      8397      8399      8394      8397      8399
      8403      8401      8404      8403      8401      8405      8403      8401      8406
      8404      8401      8405      8404      8401      8406      8405      8401      8406
      8401      8406      8408      8401      8406      8414      8408      8406      8414
      8406      8408      8410      8406      8408      8411      8410      8408      8411
      8408      8411      8413      8408      8411      8417      8413      8411      8417
      8406      8414      8416      8406      8414      8417      8416      8414      8417
      8411      8417      8414      8411      8417      8419      8414      8417      8419
      8423      8421      8424      8423      8421      8425      8423      8421      8426
      8424      8421      8425      8424      8421      8426      8425      8421      8426
      8421      8426      8428      8421      8426      8434      8428      8426      8434
      8426      8428      8430      8426      8428      8431      8430      8428      8431
      8428      8431      8433      8428      8431      8437      8433      8431      8437
      8426      8434      8436      8426      8434      8437      8436      8434      8437
      8431      8437      8434      8431      8437      8439      8434      8437      8439
      8443      8441      8444      8443      8441      8445      8443      8441      8446
      8444      8441      8445      8444      8441      8446      8445      8441      8446
      8441      8446      8448      8441      8446      8454      8448      8446      8454
      8446      8448      8450      8446      8448      8451      8450      8448      8451
      8448      8451      8453      8448      8451      8457      8453      8451      8457
      8446      8454      8456      8446      8454      8457      8456      8454      8457
      8451      8457      8454      8451      8457      8459      8454      8457      8459
      8463      8461      8464      8463      8461      8465      8463      8461      8466
      8464      8461      8465      8464      8461      8466      8465      8461      8466
      8461      8466      8468      8461      8466      8474      8468      8466      8474
      8466      8468      8470      8466      8468      8471      8470      8468      8471
      8468      8471      8473      8468      8471      8477      8473      8471      8477
      8466      8474      8476      8466      8474      8477      8476      8474      8477
      8471      8477      8474      8471      8477      8479      8474      8477      8479
      8483      8481      8484      8483      8481      8485      8483      8481      8486
      8484      8481      8485      8484      8481      8486      8485      8481      8486
      8481      8486      8488      8481      8486      8494      8488      8486      8494
      8486      8488      8490      8486      8488      8491      8490      8488      8491
      8488      8491      8493      8488      8491      8497      8493      8491      8497
      8486      8494      8496      8486      8494      8497      8496      8494      8497
      8491      8497      8494      8491      8497      8499      8494      8497      8499
      8503      8501      8504      8503      8501      8505      8503      8501      8506
      8504      8501      8505      8504      8501      8506      8505      8501      8506
      8501      8506      8508      8501      8506      8514      8508      8506      8514
      8506      8508      8510      8506      8508      8511      8510      8508      8511
      8508      8511      8513      8508      8511      8517      8513      8511      8517
      8506      8514      8516      8506      8514      8517      8516      8514      8517
      8511      8517      8514      8511      8517      8519      8514      8517      8519
      8523      8521      8524      8523      8521      8525      8523      8521      8526
      8524      8521      8525      8524      8521      8526      8525      8521      8526
      8521      8526      8528      8521      8526      8534      8528      8526      8534
      8526      8528      8530      8526      8528      8531      8530      8528      8531
      8528      8531      8533      8528      8531      8537      8533      8531      8537
      8526      8534      8536      8526      8534      8537      8536      8534      8537
      8531      8537      8534      8531      8537      8539      8534      8537      8539
      8543      8541      8544      8543      8541      8545      8543      8541      8546
      8544      8541      8545      8544      8541      8546      8545      8541      8546
      8541      8546      8548      8541      8546      8554      8548      8546      8554
      8546      8548      8550      8546      8548      8551      8550      8548      8551
      8548      8551      8553      8548      8551      8557      8553      8551      8557
      8546      8554      8556      8546      8554      8557      8556      8554      8557
      8551      8557      8554      8551      8557      8559      8554      8557      8559
      8563      8561      8564      8563      8561      8565      8563      8561      8566
      8564      8561      8565      8564      8561      8566      8565      8561      8566
      8561      8566      8568      8561      8566      8574      8568      8566      8574
      8566      8568      8570      8566      8568      8571      8570      8568      8571
      8568      8571      8573      8568      8571      8577      8573      8571      8577
      8566      8574      8576      8566      8574      8577      8576      8574      8577
      8571      8577      8574      8571      8577      8579      8574      8577      8579
      8583      8581      8584      8583      8581      8585      8583      8581      8586
      8584      8581      8585      8584      8581      8586      8585      8581      8586
      8581      8586      8588      8581      8586      8594      8588      8586      8594
      8586      8588      8590      8586      8588      8591      8590      8588      8591
      8588      8591      8593      8588      8591      8597      8593      8591      8597
      8586      8594      8596      8586      8594      8597      8596      8594      8597
      8591      8597      8594      8591      8597      8599      8594      8597      8599
      8603      8601      8604      8603      8601      8605      8603      8601      8606
      8604      8601      8605      8604      8601      8606      8605      8601      8606
      8601      8606      8608      8601      8606      8614      8608      8606      8614
      8606      8608      8610      8606      8608      8611      8610      8608      8611
      8608      8611      8613      8608      8611      8617      8613      8611      8617
      8606      8614      8616      8606      8614      8617      8616      8614      8617
      8611      8617      8614      8611      8617      8619      8614      8617      8619
      8623      8621      8624      8623      8621      8625      8623      8621      8626
      8624      8621      8625      8624      8621      8626      8625      8621      8626
      8621      8626      8628      8621      8626      8634      8628      8626      8634
      8626      8628      8630      8626      8628      8631      8630      8628      8631
      8628      8631      8633      8628      8631      8637      8633      8631      8637
      8626      8634      8636      8626      8634      8637      8636      8634      8637
      8631      8637      8634      8631      8637      8639      8634      8637      8639
      8643      8641      8644      8643      8641      8645      8643      8641      8646
      8644      8641      8645      8644      8641      8646      8645      8641      8646
      8641      8646      8648      8641      8646      8654      8648      8646      8654
      8646      8648      8650      8646      8648      8651      8650      8648      8651
      8648      8651      8653      8648      8651      8657      8653      8651      8657
      8646      8654      8656      8646      8654      8657      8656      8654      8657
      8651      8657      8654      8651      8657      8659      8654      8657      8659
      8663      8661      8664      8663      8661      8665      8663      8661      8666
      8664      8661      8665      8664      8661      8666      8665      8661      8666
      8661      8666      8668      8661      8666      8674      8668      8666      8674
      8666      8668      8670      8666      8668      8671      8670      8668      8671
      8668      8671      8673      8668      8671      8677      8673      8671      8677
      8666      8674      8676      8666      8674      8677      8676      8674      8677
      8671      8677      8674      8671      8677      8679      8674      8677      8679
      8683      8681      8684      8683      8681      8685      8683      8681      8686
      8684      8681      8685      8684      8681      8686      8685      8681      8686
      8681      8686      8688      8681      8686      8694      8688      8686      8694
      8686      8688      8690      8686      8688      8691      8690      8688      8691
      8688      8691      8693      8688      8691      8697      8693      8691      8697
      8686      8694      8696      8686      8694      8697      8696      8694      8697
      8691      8697      8694      8691      8697      8699      8694      8697      8699
      8703      8701      8704      8703      8701      8705      8703      8701      8706
      8704      8701      8705      8704      8701      8706      8705      8701      8706
      8701      8706      8708      8701      8706      8714      8708      8706      8714
      8706      8708      8710      8706      8708      8711      8710      8708      8711
      8708      8711      8713      8708      8711      8717      8713      8711      8717
      8706      8714      8716      8706      8714      8717      8716      8714      8717
      8711      8717      8714      8711      8717      8719      8714      8717      8719
      8723      8721      8724      8723      8721      8725      8723      8721      8726
      8724      8721      8725      8724      8721      8726      8725      8721      8726
      8721      8726      8728      8721      8726      8734      8728      8726      8734
      8726      8728      8730      8726      8728      8731      8730      8728      8731
      8728      8731      8733      8728      8731      8737      8733      8731      8737
      8726      8734      8736      8726      8734      8737      8736      8734      8737
      8731      8737      8734      8731      8737      8739      8734      8737      8739
      8743      8741      8744      8743      8741      8745      8743      8741      8746
      8744      8741      8745      8744      8741      8746      8745      8741      8746
      8741      8746      8748      8741      8746      8754      8748      8746      8754
      8746      8748      8750      8746      8748      8751      8750      8748      8751
      8748      8751      8753      8748      8751      8757      8753      8751      8757
      8746      8754      8756      8746      8754      8757      8756      8754      8757
      8751      8757      8754      8751      8757      8759      8754      8757      8759
      8763      8761      8764      8763      8761      8765      8763      8761      8766
      8764      8761      8765      8764      8761      8766      8765      8761      8766
      8761      8766      8768      8761      8766      8774      8768      8766      8774
      8766      8768      8770      8766      8768      8771      8770      8768      8771
      8768      8771      8773      8768      8771      8777      8773      8771      8777
      8766      8774      8776      8766      8774      8777      8776      8774      8777
      8771      8777      8774      8771      8777      8779      8774      8777      8779
      8783      8781      8784      8783      8781      8785      8783      8781      8786
      8784      8781      8785      8784      8781      8786      8785      8781      8786
      8781      8786      8788      8781      8786      8794      8788      8786      8794
      8786      8788      8790      8786      8788      8791      8790      8788      8791
      8788      8791      8793      8788      8791      8797      8793      8791      8797
      8786      8794      8796      8786      8794      8797      8796      8794      8797
      8791      8797      8794      8791      8797      8799      8794      8797      8799
      8803      8801      8804      8803      8801      8805      8803      8801      8806
      8804      8801      8805      8804      8801      8806      8805      8801      8806
      8801      8806      8808      8801      8806      8814      8808      8806      8814
      8806      8808      8810      8806      8808      8811      8810      8808      8811
      8808      8811      8813      8808      8811      8817      8813      8811      8817
      8806      8814      8816      8806      8814      8817      8816      8814      8817
      8811      8817      8814      8811      8817      8819      8814      8817      8819
      8823      8821      8824      8823      8821      8825      8823      8821      8826
      8824      8821      8825      8824      8821      8826      8825      8821      8826
      8821      8826      8828      8821      8826      8834      8828      8826      8834
      8826      8828      8830      8826      8828      8831      8830      8828      8831
      8828      8831      8833      8828      8831      8837      8833      8831      8837
      8826      8834      8836      8826      8834      8837      8836      8834      8837
      8831      8837      8834      8831      8837      8839      8834      8837      8839
      8843      8841      8844      8843      8841      8845      8843      8841      8846
      8844      8841      8845      8844      8841      8846      8845      8841      8846
      8841      8846      8848      8841      8846      8854      8848      8846      8854
      8846      8848      8850      8846      8848      8851      8850      8848      8851
      8848      8851      8853      8848      8851      8857      8853      8851      8857
      8846      8854      8856      8846      8854      8857      8856      8854      8857
      8851      8857      8854      8851      8857      8859      8854      8857      8859
      8863      8861      8864      8863      8861      8865      8863      8861      8866
      8864      8861      8865      8864      8861      8866      8865      8861      8866
      8861      8866      8868      8861      8866      8874      8868      8866      8874
      8866      8868      8870      8866      8868      8871      8870      8868      8871
      8868      8871      8873      8868      8871      8877      8873      8871      8877
      8866      8874      8876      8866      8874      8877      8876      8874      8877
      8871      8877      8874      8871      8877      8879      8874      8877      8879
      8883      8881      8884      8883      8881      8885      8883      8881      8886
      8884      8881      8885      8884      8881      8886      8885      8881      8886
      8881      8886      8888      8881      8886      8894      8888      8886      8894
      8886      8888      8890      8886      8888      8891      8890      8888      8891
      8888      8891      8893      8888      8891      8897      8893      8891      8897
      8886      8894      8896      8886      8894      8897      8896      8894      8897
      8891      8897      8894      8891      8897      8899      8894      8897      8899
      8903      8901      8904      8903      8901      8905      8903      8901      8906
      8904      8901      8905      8904      8901      8906      8905      8901      8906
      8901      8906      8908      8901      8906      8914      8908      8906      8914
      8906      8908      8910      8906      8908      8911      8910      8908      8911
      8908      8911      8913      8908      8911      8917      8913      8911      8917
      8906      8914      8916      8906      8914      8917      8916      8914      8917
      8911      8917      8914      8911      8917      8919      8914      8917      8919
      8923      8921      8924      8923      8921      8925      8923      8921      8926
      8924      8921      8925      8924      8921      8926      8925      8921      8926
      8921      8926      8928      8921      8926      8934      8928      8926      8934
      8926      8928      8930      8926      8928      8931      8930      8928      8931
      8928      8931      8933      8928      8931      8937      8933      8931      8937
      8926      8934      8936      8926      8934      8937      8936      8934      8937
      8931      8937      8934      8931      8937      8939      8934      8937      8939
      8943      8941      8944      8943      8941      8945      8943      8941      8946
      8944      8941      8945      8944      8941      8946      8945      8941      8946
      8941      8946      8948      8941      8946      8954      8948      8946      8954
      8946      8948      8950      8946      8948      8951      8950      8948      8951
      8948      8951      8953      8948      8951      8957      8953      8951      8957
      8946      8954      8956      8946      8954      8957      8956      8954      8957
      8951      8957      8954      8951      8957      8959      8954      8957      8959
      8963      8961      8964      8963      8961      8965      8963      8961      8966
      8964      8961      8965      8964      8961      8966      8965      8961      8966
      8961      8966      8968      8961      8966      8974      8968      8966      8974
      8966      8968      8970      8966      8968      8971      8970      8968      8971
      8968      8971      8973      8968      8971      8977      8973      8971      8977
      8966      8974      8976      8966      8974      8977      8976      8974      8977
      8971      8977      8974      8971      8977      8979      8974      8977      8979
      8983      8981      8984      8983      8981      8985      8983      8981      8986
      8984      8981      8985      8984      8981      8986      8985      8981      8986
      8981      8986      8988      8981      8986      8994      8988      8986      8994
      8986      8988      8990      8986      8988      8991      8990      8988      8991
      8988      8991      8993      8988      8991      8997      8993      8991      8997
      8986      8994      8996      8986      8994      8997      8996      8994      8997
      8991      8997      8994      8991      8997      8999      8994      8997      8999
      9003      9001      9004      9003      9001      9005      9003      9001      9006
      9004      9001      9005      9004      9001      9006      9005      9001      9006
      9001      9006      9008      9001      9006      9014      9008      9006      9014
      9006      9008      9010      9006      9008      9011      9010      9008      9011
      9008      9011      9013      9008      9011      9017      9013      9011      9017
      9006      9014      9016      9006      9014      9017      9016      9014      9017
      9011      9017      9014      9011      9017      9019      9014      9017      9019
      9023      9021      9024      9023      9021      9025      9023      9021      9026
      9024      9021      9025      9024      9021      9026      9025      9021      9026
      9021      9026      9028      9021      9026      9034      9028      9026      9034
      9026      9028      9030      9026      9028      9031      9030      9028      9031
      9028      9031      9033      9028      9031      9037      9033      9031      9037
      9026      9034      9036      9026      9034      9037      9036      9034      9037
      9031      9037      9034      9031      9037      9039      9034      9037      9039
      9043      9041      9044      9043      9041      9045      9043      9041      9046
      9044      9041      9045      9044      9041      9046      9045      9041      9046
      9041      9046      9048      9041      9046      9054      9048      9046      9054
      9046      9048      9050      9046      9048      9051      9050      9048      9051
      9048      9051      9053      9048      9051      9057      9053      9051      9057
      9046      9054      9056      9046      9054      9057      9056      9054      9057
      9051      9057      9054      9051      9057      9059      9054      9057      9059
      9063      9061      9064      9063      9061      9065      9063      9061      9066
      9064      9061      9065      9064      9061      9066      9065      9061      9066
      9061      9066      9068      9061      9066      9074      9068      9066      9074
      9066      9068      9070      9066      9068      9071      9070      9068      9071
      9068      9071      9073      9068      9071      9077      9073      9071      9077
      9066      9074      9076      9066      9074      9077      9076      9074      9077
      9071      9077      9074      9071      9077      9079      9074      9077      9079
      9083      9081      9084      9083      9081      9085      9083      9081      9086
      9084      9081      9085      9084      9081      9086      9085      9081      9086
      9081      9086      9088      9081      9086      9094      9088      9086      9094
      9086      9088      9090      9086      9088      9091      9090      9088      9091
      9088      9091      9093      9088      9091      9097      9093      9091      9097
      9086      9094      9096      9086      9094      9097      9096      9094      9097
      9091      9097      9094      9091      9097      9099      9094      9097      9099
      9103      9101      9104      9103      9101      9105      9103      9101      9106
      9104      9101      9105      9104      9101      9106      9105      9101      9106
      9101      9106      9108      9101      9106      9114      9108      9106      9114
      9106      9108      9110      9106      9108      9111      9110      9108      9111
      9108      9111      9113      9108      9111      9117      9113      9111      9117
      9106      9114      9116      9106      9114      9117      9116      9114      9117
      9111      9117      9114      9111      9117      9119      9114      9117      9119
      9123      9121      9124      9123      9121      9125      9123      9121      9126
      9124      9121      9125      9124      9121      9126      9125      9121      9126
      9121      9126      9128      9121      9126      9134      9128      9126      9134
      9126      9128      9130      9126      9128      9131      9130      9128      9131
      9128      9131      9133      9128      9131      9137      9133      9131      9137
      9126      9134      9136      9126      9134      9137      9136      9134      9137
      9131      9137      9134      9131      9137      9139      9134      9137      9139
      9143      9141      9144      9143      9141      9145      9143      9141      9146
      9144      9141      9145      9144      9141      9146      9145      9141      9146
      9141      9146      9148      9141      9146      9154      9148      9146      9154
      9146      9148      9150      9146      9148      9151      9150      9148      9151
      9148      9151      9153      9148      9151      9157      9153      9151      9157
      9146      9154      9156      9146      9154      9157      9156      9154      9157
      9151      9157      9154      9151      9157      9159      9154      9157      9159
      9163      9161      9164      9163      9161      9165      9163      9161      9166
      9164      9161      9165      9164      9161      9166      9165      9161      9166
      9161      9166      9168      9161      9166      9174      9168      9166      9174
      9166      9168      9170      9166      9168      9171      9170      9168      9171
      9168      9171      9173      9168      9171      9177      9173      9171      9177
      9166      9174      9176      9166      9174      9177      9176      9174      9177
      9171      9177      9174      9171      9177      9179      9174      9177      9179
      9183      9181      9184      9183      9181      9185      9183      9181      9186
      9184      9181      9185      9184      9181      9186      9185      9181      9186
      9181      9186      9188      9181      9186      9194      9188      9186      9194
      9186      9188      9190      9186      9188      9191      9190      9188      9191
      9188      9191      9193      9188      9191      9197      9193      9191      9197
      9186      9194      9196      9186      9194      9197      9196      9194      9197
      9191      9197      9194      9191      9197      9199      9194      9197      9199
      9203      9201      9204      9203      9201      9205      9203      9201      9206
      9204      9201      9205      9204      9201      9206      9205      9201      9206
      9201      9206      9208      9201      9206      9214      9208      9206      9214
      9206      9208      9210      9206      9208      9211      9210      9208      9211
      9208      9211      9213      9208      9211      9217      9213      9211      9217
      9206      9214      9216      9206      9214      9217      9216      9214      9217
      9211      9217      9214      9211      9217      9219      9214      9217      9219
      9223      9221      9224      9223      9221      9225      9223      9221      9226
      9224      9221      9225      9224      9221      9226      9225      9221      9226
      9221      9226      9228      9221      9226      9234      9228      9226      9234
      9226      9228      9230      9226      9228      9231      9230      9228      9231
      9228      9231      9233      9228      9231      9237      9233      9231      9237
      9226      9234      9236      9226      9234      9237      9236      9234      9237
      9231      9237      9234      9231      9237      9239      9234      9237      9239
      9243      9241      9244      9243      9241      9245      9243      9241      9246
      9244      9241      9245      9244      9241      9246      9245      9241      9246
      9241      9246      9248      9241      9246      9254      9248      9246      9254
      9246      9248      9250      9246      9248      9251      9250      9248      9251
      9248      9251      9253      9248      9251      9257      9253      9251      9257
      9246      9254      9256      9246      9254      9257      9256      9254      9257
      9251      9257      9254      9251      9257      9259      9254      9257      9259
      9263      9261      9264      9263      9261      9265      9263      9261      9266
      9264      9261      9265      9264      9261      9266      9265      9261      9266
      9261      9266      9268      9261      9266      9274      9268      9266      9274
      9266      9268      9270      9266      9268      9271      9270      9268      9271
      9268      9271      9273      9268      9271      9277      9273      9271      9277
      9266      9274      9276      9266      9274      9277      9276      9274      9277
      9271      9277      9274      9271      9277      9279      9274      9277      9279
      9283      9281      9284      9283      9281      9285      9283      9281      9286
      9284      9281      9285      9284      9281      9286      9285      9281      9286
      9281      9286      9288      9281      9286      9294      9288      9286      9294
      9286      9288      9290      9286      9288      9291      9290      9288      9291
      9288      9291      9293      9288      9291      9297      9293      9291      9297
      9286      9294      9296      9286      9294      9297      9296      9294      9297
      9291      9297      9294      9291      9297      9299      9294      9297      9299
      9303      9301      9304      9303      9301      9305      9303      9301      9306
      9304      9301      9305      9304      9301      9306      9305      9301      9306
      9301      9306      9308      9301      9306      9314      9308      9306      9314
      9306      9308      9310      9306      9308      9311      9310      9308      9311
      9308      9311      9313      9308      9311      9317      9313      9311      9317
      9306      9314      9316      9306      9314      9317      9316      9314      9317
      9311      9317      9314      9311      9317      9319      9314      9317      9319
      9323      9321      9324      9323      9321      9325      9323      9321      9326
      9324      9321      9325      9324      9321      9326      9325      9321      9326
      9321      9326      9328      9321      9326      9334      9328      9326      9334
      9326      9328      9330      9326      9328      9331      9330      9328      9331
      9328      9331      9333      9328      9331      9337      9333      9331      9337
      9326      9334      9336      9326      9334      9337      9336      9334      9337
      9331      9337      9334      9331      9337      9339      9334      9337      9339
      9343      9341      9344      9343      9341      9345      9343      9341      9346
      9344      9341      9345      9344      9341      9346      9345      9341      9346
      9341      9346      9348      9341      9346      9354      9348      9346      9354
      9346      9348      9350      9346      9348      9351      9350      9348      9351
      9348      9351      9353      9348      9351      9357      9353      9351      9357
      9346      9354      9356      9346      9354      9357      9356      9354      9357
      9351      9357      9354      9351      9357      9359      9354      9357      9359
      9363      9361      9364      9363      9361      9365      9363      9361      9366
      9364      9361      9365      9364      9361      9366      9365      9361      9366
      9361      9366      9368      9361      9366      9374      9368      9366      9374
      9366      9368      9370      9366      9368      9371      9370      9368      9371
      9368      9371      9373      9368      9371      9377      9373      9371      9377
      9366      9374      9376      9366      9374      9377      9376      9374      9377
      9371      9377      9374      9371      9377      9379      9374      9377      9379
      9383      9381      9384      9383      9381      9385      9383      9381      9386
      9384      9381      9385      9384      9381      9386      9385      9381      9386
      9381      9386      9388      9381      9386      9394      9388      9386      9394
      9386      9388      9390      9386      9388      9391      9390      9388      9391
      9388      9391      9393      9388      9391      9397      9393      9391      9397
      9386      9394      9396      9386      9394      9397      9396      9394      9397
      9391      9397      9394      9391      9397      9399      9394      9397      9399
      9403      9401      9404      9403      9401      9405      9403      9401      9406
      9404      9401      9405      9404      9401      9406      9405      9401      9406
      9401      9406      9408      9401      9406      9414      9408      9406      9414
      9406      9408      9410      9406      9408      9411      9410      9408      9411
      9408      9411      9413      9408      9411      9417      9413      9411      9417
      9406      9414      9416      9406      9414      9417      9416      9414      9417
      9411      9417      9414      9411      9417      9419      9414      9417      9419
      9423      9421      9424      9423      9421      9425      9423      9421      9426
      9424      9421      9425      9424      9421      9426      9425      9421      9426
      9421      9426      9428      9421      9426      9434      9428      9426      9434
      9426      9428      9430      9426      9428      9431      9430      9428      9431
      9428      9431      9433      9428      9431      9437      9433      9431      9437
      9426      9434      9436      9426      9434      9437      9436      9434      9437
      9431      9437      9434      9431      9437      9439      9434      9437      9439
      9443      9441      9444      9443      9441      9445      9443      9441      9446
      9444      9441      9445      9444      9441      9446      9445      9441      9446
      9441      9446      9448      9441      9446      9454      9448      9446      9454
      9446      9448      9450      9446      9448      9451      9450      9448      9451
      9448      9451      9453      9448      9451      9457      9453      9451      9457
      9446      9454      9456      9446      9454      9457      9456      9454      9457
      9451      9457      9454      9451      9457      9459      9454      9457      9459
      9463      9461      9464      9463      9461      9465      9463      9461      9466
      9464      9461      9465      9464      9461      9466      9465      9461      9466
      9461      9466      9468      9461      9466      9474      9468      9466      9474
      9466      9468      9470      9466      9468      9471      9470      9468      9471
      9468      9471      9473      9468      9471      9477      9473      9471      9477
      9466      9474      9476      9466      9474      9477      9476      9474      9477
      9471      9477      9474      9471      9477      9479      9474      9477      9479
      9483      9481      9484      9483      9481      9485      9483      9481      9486
      9484      9481      9485      9484      9481      9486      9485      9481      9486
      9481      9486      9488      9481      9486      9494      9488      9486      9494
      9486      9488      9490      9486      9488      9491      9490      9488      9491
      9488      9491      9493      9488      9491      9497      9493      9491      9497
      9486      9494      9496      9486      9494      9497      9496      9494      9497
      9491      9497      9494      9491      9497      9499      9494      9497      9499
      9503      9501      9504      9503      9501      9505      9503      9501      9506
      9504      9501      9505      9504      9501      9506      9505      9501      9506
      9501      9506      9508      9501      9506      9514      9508      9506      9514
      9506      9508      9510      9506      9508      9511      9510      9508      9511
      9508      9511      9513      9508      9511      9517      9513      9511      9517
      9506      9514      9516      9506      9514      9517      9516      9514      9517
      9511      9517      9514      9511      9517      9519      9514      9517      9519
      9523      9521      9524      9523      9521      9525      9523      9521      9526
      9524      9521      9525      9524      9521      9526      9525      9521      9526
      9521      9526      9528      9521      9526      9534      9528      9526      9534
      9526      9528      9530      9526      9528      9531      9530      9528      9531
      9528      9531      9533      9528      9531      9537      9533      9531      9537
      9526      9534      9536      9526      9534      9537      9536      9534      9537
      9531      9537      9534      9531      9537      9539      9534      9537      9539
      9543      9541      9544      9543      9541      9545      9543      9541      9546
      9544      9541      9545      9544      9541      9546      9545      9541      9546
      9541      9546      9548      9541      9546      9554      9548      9546      9554
      9546      9548      9550      9546      9548      9551      9550      9548      9551
      9548      9551      9553      9548      9551      9557      9553      9551      9557
      9546      9554      9556      9546      9554      9557      9556      9554      9557
      9551      9557      9554      9551      9557      9559      9554      9557      9559
      9563      9561      9564      9563      9561      9565      9563      9561      9566
      9564      9561      9565      9564      9561      9566      9565      9561      9566
      9561      9566      9568      9561      9566      9574      9568      9566      9574
      9566      9568      9570      9566      9568      9571      9570      9568      9571
      9568      9571      9573      9568      9571      9577      9573      9571      9577
      9566      9574      9576      9566      9574      9577      9576      9574      9577
      9571      9577      9574      9571      9577      9579      9574      9577      9579
      9583      9581      9584      9583      9581      9585      9583      9581      9586
      9584      9581      9585      9584      9581      9586      9585      9581      9586
      9581      9586      9588      9581      9586      9594      9588      9586      9594
      9586      9588      9590      9586      9588      9591      9590      9588      9591
      9588      9591      9593      9588      9591      9597      9593      9591      9597
      9586      9594      9596      9586      9594      9597      9596      9594      9597
      9591      9597      9594      9591      9597      9599      9594      9597      9599
      9603      9601      9604      9603      9601      9605      9603      9601      9606
      9604      9601      9605      9604      9601      9606      9605      9601      9606
      9601      9606      9608      9601      9606      9614      9608      9606      9614
      9606      9608      9610      9606      9608      9611      9610      9608      9611
      9608      9611      9613      9608      9611      9617      9613      9611      9617
      9606      9614      9616      9606      9614      9617      9616      9614      9617
      9611      9617      9614      9611      9617      9619      9614      9617      9619
      9623      9621      9624      9623      9621      9625      9623      9621      9626
      9624      9621      9625      9624      9621      9626      9625      9621      9626
      9621      9626      9628      9621      9626      9634      9628      9626      9634
      9626      9628      9630      9626      9628      9631      9630      9628      9631
      9628      9631      9633      9628      9631      9637      9633      9631      9637
      9626      9634      9636      9626      9634      9637      9636      9634      9637
      9631      9637      9634      9631      9637      9639      9634      9637      9639
      9643      9641      9644      9643      9641      9645      9643      9641      9646
      9644      9641      9645      9644      9641      9646      9645      9641      9646
      9641      9646      9648      9641      9646      9654      9648      9646      9654
      9646      9648      9650      9646      9648      9651      9650      9648      9651
      9648      9651      9653      9648      9651      9657      9653      9651      9657
      9646      9654      9656      9646      9654      9657      9656      9654      9657
      9651      9657      9654      9651      9657      9659      9654      9657      9659
      9663      9661      9664      9663      9661      9665      9663      9661      9666
      9664      9661      9665      9664      9661      9666      9665      9661      9666
      9661      9666      9668      9661      9666      9674      9668      9666      9674
      9666      9668      9670      9666      9668      9671      9670      9668      9671
      9668      9671      9673      9668      9671      9677      9673      9671      9677
      9666      9674      9676      9666      9674      9677      9676      9674      9677
      9671      9677      9674      9671      9677      9679      9674      9677      9679
      9683      9681      9684      9683      9681      9685      9683      9681      9686
      9684      9681      9685      9684      9681      9686      9685      9681      9686
      9681      9686      9688      9681      9686      9694      9688      9686      9694
      9686      9688      9690      9686      9688      9691      9690      9688      9691
      9688      9691      9693      9688      9691      9697      9693      9691      9697
      9686      9694      9696      9686      9694      9697      9696      9694      9697
      9691      9697      9694      9691      9697      9699      9694      9697      9699
      9703      9701      9704      9703      9701      9705      9703      9701      9706
      9704      9701      9705      9704      9701      9706      9705      9701      9706
      9701      9706      9708      9701      9706      9714      9708      9706      9714
      9706      9708      9710      9706      9708      9711      9710      9708      9711
      9708      9711      9713      9708      9711      9717      9713      9711      9717
      9706      9714      9716      9706      9714      9717      9716      9714      9717
      9711      9717      9714      9711      9717      9719      9714      9717      9719
      9723      9721      9724      9723      9721      9725      9723      9721      9726
      9724      9721      9725      9724      9721      9726      9725      9721      9726
      9721      9726      9728      9721      9726      9734      9728      9726      9734
      9726      9728      9730      9726      9728      9731      9730      9728      9731
      9728      9731      9733      9728      9731      9737      9733      9731      9737
      9726      9734      9736      9726      9734      9737      9736      9734      9737
      9731      9737      9734      9731      9737      9739      9734      9737      9739
      9743      9741      9744      9743      9741      9745      9743      9741      9746
      9744      9741      9745      9744      9741      9746      9745      9741      9746
      9741      9746      9748      9741      9746      9754      9748      9746      9754
      9746      9748      9750      9746      9748      9751      9750      9748      9751
      9748      9751      9753      9748      9751      9757      9753      9751      9757
      9746      9754      9756      9746      9754      9757      9756      9754      9757
      9751      9757      9754      9751      9757      9759      9754      9757      9759
      9763      9761      9764      9763      9761      9765      9763      9761      9766
      9764      9761      9765      9764      9761      9766      9765      9761      9766
      9761      9766      9768      9761      9766      9774      9768      9766      9774
      9766      9768      9770      9766      9768      9771      9770      9768      9771
      9768      9771      9773      9768      9771      9777      9773      9771      9777
      9766      9774      9776      9766      9774      9777      9776      9774      9777
      9771      9777      9774      9771      9777      9779      9774      9777      9779
      9783      9781      9784      9783      9781      9785      9783      9781      9786
      9784      9781      9785      9784      9781      9786      9785      9781      9786
      9781      9786      9788      9781      9786      9794      9788      9786      9794
      9786      9788      9790      9786      9788      9791      9790      9788      9791
      9788      9791      9793      9788      9791      9797      9793      9791      9797
      9786      9794      9796      9786      9794      9797      9796      9794      9797
      9791      9797      9794      9791      9797      9799      9794      9797      9799
      9803      9801      9804      9803      9801      9805      9803      9801      9806
      9804      9801      9805      9804      9801      9806      9805      9801      9806
      9801      9806      9808      9801      9806      9814      9808      9806      9814
      9806      9808      9810      9806      9808      9811      9810      9808      9811
      9808      9811      9813      9808      9811      9817      9813      9811      9817
      9806      9814      9816      9806      9814      9817      9816      9814      9817
      9811      9817      9814      9811      9817      9819      9814      9817      9819
      9823      9821      9824      9823      9821      9825      9823      9821      9826
      9824      9821      9825      9824      9821      9826      9825      9821      9826
      9821      9826      9828      9821      9826      9834      9828      9826      9834
      9826      9828      9830      9826      9828      9831      9830      9828      9831
      9828      9831      9833      9828      9831      9837      9833      9831      9837
      9826      9834      9836      9826      9834      9837      9836      9834      9837
      9831      9837      9834      9831      9837      9839      9834      9837      9839
      9843      9841      9844      9843      9841      9845      9843      9841      9846
      9844      9841      9845      9844      9841      9846      9845      9841      9846
      9841      9846      9848      9841      9846      9854      9848      9846      9854
      9846      9848      9850      9846      9848      9851      9850      9848      9851
      9848      9851      9853      9848      9851      9857      9853      9851      9857
      9846      9854      9856      9846      9854      9857      9856      9854      9857
      9851      9857      9854      9851      9857      9859      9854      9857      9859
      9863      9861      9864      9863      9861      9865      9863      9861      9866
      9864      9861      9865      9864      9861      9866      9865      9861      9866
      9861      9866      9868      9861      9866      9874      9868      9866      9874
      9866      9868      9870      9866      9868      9871      9870      9868      9871
      9868      9871      9873      9868      9871      9877      9873      9871      9877
      9866      9874      9876      9866      9874      9877      9876      9874      9877
      9871      9877      9874      9871      9877      9879      9874      9877      9879
      9883      9881      9884      9883      9881      9885      9883      9881      9886
      9884      9881      9885      9884      9881      9886      9885      9881      9886
      9881      9886      9888      9881      9886      9894      9888      9886      9894
      9886      9888      9890      9886      9888      9891      9890      9888      9891
      9888      9891      9893      9888      9891      9897      9893      9891      9897
      9886      9894      9896      9886      9894      9897      9896      9894      9897
      9891      9897      9894      9891      9897      9899      9894      9897      9899
      9903      9901      9904      9903      9901      9905      9903      9901      9906
      9904      9901      9905      9904      9901      9906      9905      9901      9906
      9901      9906      9908      9901      9906      9914      9908      9906      9914
      9906      9908      9910      9906      9908      9911      9910      9908      9911
      9908      9911      9913      9908      9911      9917      9913      9911      9917
      9906      9914      9916      9906      9914      9917      9916      9914      9917
      9911      9917      9914      9911      9917      9919      9914      9917      9919
      9923      9921      9924      9923      9921      9925      9923      9921      9926
      9924      9921      9925      9924      9921      9926      9925      9921      9926
      9921      9926      9928      9921      9926      9934      9928      9926      9934
      9926      9928      9930      9926      9928      9931      9930      9928      9931
      9928      9931      9933      9928      9931      9937      9933      9931      9937
      9926      9934      9936      9926      9934      9937      9936      9934      9937
      9931      9937      9934      9931      9937      9939      9934      9937      9939
      9943      9941      9944      9943      9941      9945      9943      9941      9946
      9944      9941      9945      9944      9941      9946      9945      9941      9946
      9941      9946      9948      9941      9946      9954      9948      9946      9954
      9946      9948      9950      9946      9948      9951      9950      9948      9951
      9948      9951      9953      9948      9951      9957      9953      9951      9957
      9946      9954      9956      9946      9954      9957      9956      9954      9957
      9951      9957      9954      9951      9957      9959      9954      9957      9959
      9963      9961      9964      9963      9961      9965      9963      9961      9966
      9964      9961      9965      9964      9961      9966      9965      9961      9966
      9961      9966      9968      9961      9966      9974      9968      9966      9974
      9966      9968      9970      9966      9968      9971      9970      9968      9971
      9968      9971      9973      9968      9971      9977      9973      9971      9977
      9966      9974      9976      9966      9974      9977      9976      9974      9977
      9971      9977      9974      9971      9977      9979      9974      9977      9979
      9983      9981      9984      9983      9981      9985      9983      9981      9986
      9984      9981      9985      9984      9981      9986      9985      9981      9986
      9981      9986      9988      9981      9986      9994      9988      9986      9994
      9986      9988      9990      9986      9988      9991      9990      9988      9991
      9988      9991      9993      9988      9991      9997      9993      9991      9997
      9986      9994      9996      9986      9994      9997      9996      9994      9997
      9991      9997      9994      9991      9997      9999      9994      9997      9999
     10003     10001     10004     10003     10001     10005     10003     10001     10006
     10004     10001     10005     10004     10001     10006     10005     10001     10006
     10001     10006     10008     10001     10006     10014     10008     10006     10014
     10006     10008     10010     10006     10008     10011     10010     10008     10011
     10008     10011     10013     10008     10011     10017     10013     10011     10017
     10006     10014     10016     10006     10014     10017     10016     10014     10017
     10011     10017     10014     10011     10017     10019     10014     10017     10019
     10023     10021     10024     10023     10021     10025     10023     10021     10026
     10024     10021     10025     10024     10021     10026     10025     10021     10026
     10021     10026     10028     10021     10026     10034     10028     10026     10034
     10026     10028     10030     10026     10028     10031     10030     10028     10031
     10028     10031     10033     10028     10031     10037     10033     10031     10037
     10026     10034     10036     10026     10034     10037     10036     10034     10037
     10031     10037     10034     10031     10037     10039     10034     10037     10039
     10043     10041     10044     10043     10041     10045     10043     10041     10046
     10044     10041     10045     10044     10041     10046     10045     10041     10046
     10041     10046     10048     10041     10046     10054     10048     10046     10054
     10046     10048     10050     10046     10048     10051     10050     10048     10051
     10048     10051     10053     10048     10051     10057     10053     10051     10057
     10046     10054     10056     10046     10054     10057     10056     10054     10057
     10051     10057     10054     10051     10057     10059     10054     10057     10059
     10063     10061     10064     10063     10061     10065     10063     10061     10066
     10064     10061     10065     10064     10061     10066     10065     10061     10066
     10061     10066     10068     10061     10066     10074     10068     10066     10074
     10066     10068     10070     10066     10068     10071     10070     10068     10071
     10068     10071     10073     10068     10071     10077     10073     10071     10077
     10066     10074     10076     10066     10074     10077     10076     10074     10077
     10071     10077     10074     10071     10077     10079     10074     10077     10079
     10083     10081     10084     10083     10081     10085     10083     10081     10086
     10084     10081     10085     10084     10081     10086     10085     10081     10086
     10081     10086     10088     10081     10086     10094     10088     10086     10094
     10086     10088     10090     10086     10088     10091     10090     10088     10091
     10088     10091     10093     10088     10091     10097     10093     10091     10097
     10086     10094     10096     10086     10094     10097     10096     10094     10097
     10091     10097     10094     10091     10097     10099     10094     10097     10099
     10103     10101     10104     10103     10101     10105     10103     10101     10106
     10104     10101     10105     10104     10101     10106     10105     10101     10106
     10101     10106     10108     10101     10106     10114     10108     10106     10114
     10106     10108     10110     10106     10108     10111     10110     10108     10111
     10108     10111     10113     10108     10111     10117     10113     10111     10117
     10106     10114     10116     10106     10114     10117     10116     10114     10117
     10111     10117     10114     10111     10117     10119     10114     10117     10119
     10123     10121     10124     10123     10121     10125     10123     10121     10126
     10124     10121     10125     10124     10121     10126     10125     10121     10126
     10121     10126     10128     10121     10126     10134     10128     10126     10134
     10126     10128     10130     10126     10128     10131     10130     10128     10131
     10128     10131     10133     10128     10131     10137     10133     10131     10137
     10126     10134     10136     10126     10134     10137     10136     10134     10137
     10131     10137     10134     10131     10137     10139     10134     10137     10139
     10143     10141     10144     10143     10141     10145     10143     10141     10146
     10144     10141     10145     10144     10141     10146     10145     10141     10146
     10141     10146     10148     10141     10146     10154     10148     10146     10154
     10146     10148     10150     10146     10148     10151     10150     10148     10151
     10148     10151     10153     10148     10151     10157     10153     10151     10157
     10146     10154     10156     10146     10154     10157     10156     10154     10157
     10151     10157     10154     10151     10157     10159     10154     10157     10159
     10163     10161     10164     10163     10161     10165     10163     10161     10166
     10164     10161     10165     10164     10161     10166     10165     10161     10166
     10161     10166     10168     10161     10166     10174     10168     10166     10174
     10166     10168     10170     10166     10168     10171     10170     10168     10171
     10168     10171     10173     10168     10171     10177     10173     10171     10177
     10166     10174     10176     10166     10174     10177     10176     10174     10177
     10171     10177     10174     10171     10177     10179     10174     10177     10179
     10183     10181     10184     10183     10181     10185     10183     10181     10186
     10184     10181     10185     10184     10181     10186     10185     10181     10186
     10181     10186     10188     10181     10186     10194     10188     10186     10194
     10186     10188     10190     10186     10188     10191     10190     10188     10191
     10188     10191     10193     10188     10191     10197     10193     10191     10197
     10186     10194     10196     10186     10194     10197     10196     10194     10197
     10191     10197     10194     10191     10197     10199     10194     10197     10199
     10203     10201     10204     10203     10201     10205     10203     10201     10206
     10204     10201     10205     10204     10201     10206     10205     10201     10206
     10201     10206     10208     10201     10206     10214     10208     10206     10214
     10206     10208     10210     10206     10208     10211     10210     10208     10211
     10208     10211     10213     10208     10211     10217     10213     10211     10217
     10206     10214     10216     10206     10214     10217     10216     10214     10217
     10211     10217     10214     10211     10217     10219     10214     10217     10219
     10223     10221     10224     10223     10221     10225     10223     10221     10226
     10224     10221     10225     10224     10221     10226     10225     10221     10226
     10221     10226     10228     10221     10226     10234     10228     10226     10234
     10226     10228     10230     10226     10228     10231     10230     10228     10231
     10228     10231     10233     10228     10231     10237     10233     10231     10237
     10226     10234     10236     10226     10234     10237     10236     10234     10237
     10231     10237     10234     10231     10237     10239     10234     10237     10239
     10243     10241     10244     10243     10241     10245     10243     10241     10246
     10244     10241     10245     10244     10241     10246     10245     10241     10246
     10241     10246     10248     10241     10246     10254     10248     10246     10254
     10246     10248     10250     10246     10248     10251     10250     10248     10251
     10248     10251     10253     10248     10251     10257     10253     10251     10257
     10246     10254     10256     10246     10254     10257     10256     10254     10257
     10251     10257     10254     10251     10257     10259     10254     10257     10259
     10263     10261     10264     10263     10261     10265     10263     10261     10266
     10264     10261     10265     10264     10261     10266     10265     10261     10266
     10261     10266     10268     10261     10266     10274     10268     10266     10274
     10266     10268     10270     10266     10268     10271     10270     10268     10271
     10268     10271     10273     10268     10271     10277     10273     10271     10277
     10266     10274     10276     10266     10274     10277     10276     10274     10277
     10271     10277     10274     10271     10277     10279     10274     10277     10279
     10283     10281     10284     10283     10281     10285     10283     10281     10286
     10284     10281     10285     10284     10281     10286     10285     10281     10286
     10281     10286     10288     10281     10286     10294     10288     10286     10294
     10286     10288     10290     10286     10288     10291     10290     10288     10291
     10288     10291     10293     10288     10291     10297     10293     10291     10297
     10286     10294     10296     10286     10294     10297     10296     10294     10297
     10291     10297     10294     10291     10297     10299     10294     10297     10299
     10303     10301     10304     10303     10301     10305     10303     10301     10306
     10304     10301     10305     10304     10301     10306     10305     10301     10306
     10301     10306     10308     10301     10306     10314     10308     10306     10314
     10306     10308     10310     10306     10308     10311     10310     10308     10311
     10308     10311     10313     10308     10311     10317     10313     10311     10317
     10306     10314     10316     10306     10314     10317     10316     10314     10317
     10311     10317     10314     10311     10317     10319     10314     10317     10319
     10323     10321     10324     10323     10321     10325     10323     10321     10326
     10324     10321     10325     10324     10321     10326     10325     10321     10326
     10321     10326     10328     10321     10326     10334     10328     10326     10334
     10326     10328     10330     10326     10328     10331     10330     10328     10331
     10328     10331     10333     10328     10331     10337     10333     10331     10337
     10326     10334     10336     10326     10334     10337     10336     10334     10337
     10331     10337     10334     10331     10337     10339     10334     10337     10339
     10343     10341     10344     10343     10341     10345     10343     10341     10346
     10344     10341     10345     10344     10341     10346     10345     10341     10346
     10341     10346     10348     10341     10346     10354     10348     10346     10354
     10346     10348     10350     10346     10348     10351     10350     10348     10351
     10348     10351     10353     10348     10351     10357     10353     10351     10357
     10346     10354     10356     10346     10354     10357     10356     10354     10357
     10351     10357     10354     10351     10357     10359     10354     10357     10359
     10363     10361     10364     10363     10361     10365     10363     10361     10366
     10364     10361     10365     10364     10361     10366     10365     10361     10366
     10361     10366     10368     10361     10366     10374     10368     10366     10374
     10366     10368     10370     10366     10368     10371     10370     10368     10371
     10368     10371     10373     10368     10371     10377     10373     10371     10377
     10366     10374     10376     10366     10374     10377     10376     10374     10377
     10371     10377     10374     10371     10377     10379     10374     10377     10379
     10383     10381     10384     10383     10381     10385     10383     10381     10386
     10384     10381     10385     10384     10381     10386     10385     10381     10386
     10381     10386     10388     10381     10386     10394     10388     10386     10394
     10386     10388     10390     10386     10388     10391     10390     10388     10391
     10388     10391     10393     10388     10391     10397     10393     10391     10397
     10386     10394     10396     10386     10394     10397     10396     10394     10397
     10391     10397     10394     10391     10397     10399     10394     10397     10399
     10403     10401     10404     10403     10401     10405     10403     10401     10406
     10404     10401     10405     10404     10401     10406     10405     10401     10406
     10401     10406     10408     10401     10406     10414     10408     10406     10414
     10406     10408     10410     10406     10408     10411     10410     10408     10411
     10408     10411     10413     10408     10411     10417     10413     10411     10417
     10406     10414     10416     10406     10414     10417     10416     10414     10417
     10411     10417     10414     10411     10417     10419     10414     10417     10419
     10423     10421     10424     10423     10421     10425     10423     10421     10426
     10424     10421     10425     10424     10421     10426     10425     10421     10426
     10421     10426     10428     10421     10426     10434     10428     10426     10434
     10426     10428     10430     10426     10428     10431     10430     10428     10431
     10428     10431     10433     10428     10431     10437     10433     10431     10437
     10426     10434     10436     10426     10434     10437     10436     10434     10437
     10431     10437     10434     10431     10437     10439     10434     10437     10439
     10443     10441     10444     10443     10441     10445     10443     10441     10446
     10444     10441     10445     10444     10441     10446     10445     10441     10446
     10441     10446     10448     10441     10446     10454     10448     10446     10454
     10446     10448     10450     10446     10448     10451     10450     10448     10451
     10448     10451     10453     10448     10451     10457     10453     10451     10457
     10446     10454     10456     10446     10454     10457     10456     10454     10457
     10451     10457     10454     10451     10457     10459     10454     10457     10459
     10463     10461     10464     10463     10461     10465     10463     10461     10466
     10464     10461     10465     10464     10461     10466     10465     10461     10466
     10461     10466     10468     10461     10466     10474     10468     10466     10474
     10466     10468     10470     10466     10468     10471     10470     10468     10471
     10468     10471     10473     10468     10471     10477     10473     10471     10477
     10466     10474     10476     10466     10474     10477     10476     10474     10477
     10471     10477     10474     10471     10477     10479     10474     10477     10479
     10483     10481     10484     10483     10481     10485     10483     10481     10486
     10484     10481     10485     10484     10481     10486     10485     10481     10486
     10481     10486     10488     10481     10486     10494     10488     10486     10494
     10486     10488     10490     10486     10488     10491     10490     10488     10491
     10488     10491     10493     10488     10491     10497     10493     10491     10497
     10486     10494     10496     10486     10494     10497     10496     10494     10497
     10491     10497     10494     10491     10497     10499     10494     10497     10499
     10503     10501     10504     10503     10501     10505     10503     10501     10506
     10504     10501     10505     10504     10501     10506     10505     10501     10506
     10501     10506     10508     10501     10506     10514     10508     10506     10514
     10506     10508     10510     10506     10508     10511     10510     10508     10511
     10508     10511     10513     10508     10511     10517     10513     10511     10517
     10506     10514     10516     10506     10514     10517     10516     10514     10517
     10511     10517     10514     10511     10517     10519     10514     10517     10519
     10523     10521     10524     10523     10521     10525     10523     10521     10526
     10524     10521     10525     10524     10521     10526     10525     10521     10526
     10521     10526     10528     10521     10526     10534     10528     10526     10534
     10526     10528     10530     10526     10528     10531     10530     10528     10531
     10528     10531     10533     10528     10531     10537     10533     10531     10537
     10526     10534     10536     10526     10534     10537     10536     10534     10537
     10531     10537     10534     10531     10537     10539     10534     10537     10539
     10543     10541     10544     10543     10541     10545     10543     10541     10546
     10544     10541     10545     10544     10541     10546     10545     10541     10546
     10541     10546     10548     10541     10546     10554     10548     10546     10554
     10546     10548     10550     10546     10548     10551     10550     10548     10551
     10548     10551     10553     10548     10551     10557     10553     10551     10557
     10546     10554     10556     10546     10554     10557     10556     10554     10557
     10551     10557     10554     10551     10557     10559     10554     10557     10559
     10563     10561     10564     10563     10561     10565     10563     10561     10566
     10564     10561     10565     10564     10561     10566     10565     10561     10566
     10561     10566     10568     10561     10566     10574     10568     10566     10574
     10566     10568     10570     10566     10568     10571     10570     10568     10571
     10568     10571     10573     10568     10571     10577     10573     10571     10577
     10566     10574     10576     10566     10574     10577     10576     10574     10577
     10571     10577     10574     10571     10577     10579     10574     10577     10579
     10583     10581     10584     10583     10581     10585     10583     10581     10586
     10584     10581     10585     10584     10581     10586     10585     10581     10586
     10581     10586     10588     10581     10586     10594     10588     10586     10594
     10586     10588     10590     10586     10588     10591     10590     10588     10591
     10588     10591     10593     10588     10591     10597     10593     10591     10597
     10586     10594     10596     10586     10594     10597     10596     10594     10597
     10591     10597     10594     10591     10597     10599     10594     10597     10599
     10603     10601     10604     10603     10601     10605     10603     10601     10606
     10604     10601     10605     10604     10601     10606     10605     10601     10606
     10601     10606     10608     10601     10606     10614     10608     10606     10614
     10606     10608     10610     10606     10608     10611     10610     10608     10611
     10608     10611     10613     10608     10611     10617     10613     10611     10617
     10606     10614     10616     10606     10614     10617     10616     10614     10617
     10611     10617     10614     10611     10617     10619     10614     10617     10619
     10623     10621     10624     10623     10621     10625     10623     10621     10626
     10624     10621     10625     10624     10621     10626     10625     10621     10626
     10621     10626     10628     10621     10626     10634     10628     10626     10634
     10626     10628     10630     10626     10628     10631     10630     10628     10631
     10628     10631     10633     10628     10631     10637     10633     10631     10637
     10626     10634     10636     10626     10634     10637     10636     10634     10637
     10631     10637     10634     10631     10637     10639     10634     10637     10639
     10643     10641     10644     10643     10641     10645     10643     10641     10646
     10644     10641     10645     10644     10641     10646     10645     10641     10646
     10641     10646     10648     10641     10646     10654     10648     10646     10654
     10646     10648     10650     10646     10648     10651     10650     10648     10651
     10648     10651     10653     10648     10651     10657     10653     10651     10657
     10646     10654     10656     10646     10654     10657     10656     10654     10657
     10651     10657     10654     10651     10657     10659     10654     10657     10659
     10663     10661     10664     10663     10661     10665     10663     10661     10666
     10664     10661     10665     10664     10661     10666     10665     10661     10666
     10661     10666     10668     10661     10666     10674     10668     10666     10674
     10666     10668     10670     10666     10668     10671     10670     10668     10671
     10668     10671     10673     10668     10671     10677     10673     10671     10677
     10666     10674     10676     10666     10674     10677     10676     10674     10677
     10671     10677     10674     10671     10677     10679     10674     10677     10679
     10683     10681     10684     10683     10681     10685     10683     10681     10686
     10684     10681     10685     10684     10681     10686     10685     10681     10686
     10681     10686     10688     10681     10686     10694     10688     10686     10694
     10686     10688     10690     10686     10688     10691     10690     10688     10691
     10688     10691     10693     10688     10691     10697     10693     10691     10697
     10686     10694     10696     10686     10694     10697     10696     10694     10697
     10691     10697     10694     10691     10697     10699     10694     10697     10699
     10703     10701     10704     10703     10701     10705     10703     10701     10706
     10704     10701     10705     10704     10701     10706     10705     10701     10706
     10701     10706     10708     10701     10706     10714     10708     10706     10714
     10706     10708     10710     10706     10708     10711     10710     10708     10711
     10708     10711     10713     10708     10711     10717     10713     10711     10717
     10706     10714     10716     10706     10714     10717     10716     10714     10717
     10711     10717     10714     10711     10717     10719     10714     10717     10719
     10723     10721     10724     10723     10721     10725     10723     10721     10726
     10724     10721     10725     10724     10721     10726     10725     10721     10726
     10721     10726     10728     10721     10726     10734     10728     10726     10734
     10726     10728     10730     10726     10728     10731     10730     10728     10731
     10728     10731     10733     10728     10731     10737     10733     10731     10737
     10726     10734     10736     10726     10734     10737     10736     10734     10737
     10731     10737     10734     10731     10737     10739     10734     10737     10739
     10743     10741     10744     10743     10741     10745     10743     10741     10746
     10744     10741     10745     10744     10741     10746     10745     10741     10746
     10741     10746     10748     10741     10746     10754     10748     10746     10754
     10746     10748     10750     10746     10748     10751     10750     10748     10751
     10748     10751     10753     10748     10751     10757     10753     10751     10757
     10746     10754     10756     10746     10754     10757     10756     10754     10757
     10751     10757     10754     10751     10757     10759     10754     10757     10759
     10763     10761     10764     10763     10761     10765     10763     10761     10766
     10764     10761     10765     10764     10761     10766     10765     10761     10766
     10761     10766     10768     10761     10766     10774     10768     10766     10774
     10766     10768     10770     10766     10768     10771     10770     10768     10771
     10768     10771     10773     10768     10771     10777     10773     10771     10777
     10766     10774     10776     10766     10774     10777     10776     10774     10777
     10771     10777     10774     10771     10777     10779     10774     10777     10779
     10783     10781     10784     10783     10781     10785     10783     10781     10786
     10784     10781     10785     10784     10781     10786     10785     10781     10786
     10781     10786     10788     10781     10786     10794     10788     10786     10794
     10786     10788     10790     10786     10788     10791     10790     10788     10791
     10788     10791     10793     10788     10791     10797     10793     10791     10797
     10786     10794     10796     10786     10794     10797     10796     10794     10797
     10791     10797     10794     10791     10797     10799     10794     10797     10799
     10803     10801     10804     10803     10801     10805     10803     10801     10806
     10804     10801     10805     10804     10801     10806     10805     10801     10806
     10801     10806     10808     10801     10806     10814     10808     10806     10814
     10806     10808     10810     10806     10808     10811     10810     10808     10811
     10808     10811     10813     10808     10811     10817     10813     10811     10817
     10806     10814     10816     10806     10814     10817     10816     10814     10817
     10811     10817     10814     10811     10817     10819     10814     10817     10819
     10823     10821     10824     10823     10821     10825     10823     10821     10826
     10824     10821     10825     10824     10821     10826     10825     10821     10826
     10821     10826     10828     10821     10826     10834     10828     10826     10834
     10826     10828     10830     10826     10828     10831     10830     10828     10831
     10828     10831     10833     10828     10831     10837     10833     10831     10837
     10826     10834     10836     10826     10834     10837     10836     10834     10837
     10831     10837     10834     10831     10837     10839     10834     10837     10839
     10843     10841     10844     10843     10841     10845     10843     10841     10846
     10844     10841     10845     10844     10841     10846     10845     10841     10846
     10841     10846     10848     10841     10846     10854     10848     10846     10854
     10846     10848     10850     10846     10848     10851     10850     10848     10851
     10848     10851     10853     10848     10851     10857     10853     10851     10857
     10846     10854     10856     10846     10854     10857     10856     10854     10857
     10851     10857     10854     10851     10857     10859     10854     10857     10859
     10863     10861     10864     10863     10861     10865     10863     10861     10866
     10864     10861     10865     10864     10861     10866     10865     10861     10866
     10861     10866     10868     10861     10866     10874     10868     10866     10874
     10866     10868     10870     10866     10868     10871     10870     10868     10871
     10868     10871     10873     10868     10871     10877     10873     10871     10877
     10866     10874     10876     10866     10874     10877     10876     10874     10877
     10871     10877     10874     10871     10877     10879     10874     10877     10879
     10883     10881     10884     10883     10881     10885     10883     10881     10886
     10884     10881     10885     10884     10881     10886     10885     10881     10886
     10881     10886     10888     10881     10886     10894     10888     10886     10894
     10886     10888     10890     10886     10888     10891     10890     10888     10891
     10888     10891     10893     10888     10891     10897     10893     10891     10897
     10886     10894     10896     10886     10894     10897     10896     10894     10897
     10891     10897     10894     10891     10897     10899     10894     10897     10899
     10903     10901     10904     10903     10901     10905     10903     10901     10906
     10904     10901     10905     10904     10901     10906     10905     10901     10906
     10901     10906     10908     10901     10906     10914     10908     10906     10914
     10906     10908     10910     10906     10908     10911     10910     10908     10911
     10908     10911     10913     10908     10911     10917     10913     10911     10917
     10906     10914     10916     10906     10914     10917     10916     10914     10917
     10911     10917     10914     10911     10917     10919     10914     10917     10919
     10923     10921     10924     10923     10921     10925     10923     10921     10926
     10924     10921     10925     10924     10921     10926     10925     10921     10926
     10921     10926     10928     10921     10926     10934     10928     10926     10934
     10926     10928     10930     10926     10928     10931     10930     10928     10931
     10928     10931     10933     10928     10931     10937     10933     10931     10937
     10926     10934     10936     10926     10934     10937     10936     10934     10937
     10931     10937     10934     10931     10937     10939     10934     10937     10939
     10943     10941     10944     10943     10941     10945     10943     10941     10946
     10944     10941     10945     10944     10941     10946     10945     10941     10946
     10941     10946     10948     10941     10946     10954     10948     10946     10954
     10946     10948     10950     10946     10948     10951     10950     10948     10951
     10948     10951     10953     10948     10951     10957     10953     10951     10957
     10946     10954     10956     10946     10954     10957     10956     10954     10957
     10951     10957     10954     10951     10957     10959     10954     10957     10959
     10963     10961     10964     10963     10961     10965     10963     10961     10966
     10964     10961     10965     10964     10961     10966     10965     10961     10966
     10961     10966     10968     10961     10966     10974     10968     10966     10974
     10966     10968     10970     10966     10968     10971     10970     10968     10971
     10968     10971     10973     10968     10971     10977     10973     10971     10977
     10966     10974     10976     10966     10974     10977     10976     10974     10977
     10971     10977     10974     10971     10977     10979     10974     10977     10979
     10983     10981     10984     10983     10981     10985     10983     10981     10986
     10984     10981     10985     10984     10981     10986     10985     10981     10986
     10981     10986     10988     10981     10986     10994     10988     10986     10994
     10986     10988     10990     10986     10988     10991     10990     10988     10991
     10988     10991     10993     10988     10991     10997     10993     10991     10997
     10986     10994     10996     10986     10994     10997     10996     10994     10997
     10991     10997     10994     10991     10997     10999     10994     10997     10999
     11003     11001     11004     11003     11001     11005     11003     11001     11006
     11004     11001     11005     11004     11001     11006     11005     11001     11006
     11001     11006     11008     11001     11006     11014     11008     11006     11014
     11006     11008     11010     11006     11008     11011     11010     11008     11011
     11008     11011     11013     11008     11011     11017     11013     11011     11017
     11006     11014     11016     11006     11014     11017     11016     11014     11017
     11011     11017     11014     11011     11017     11019     11014     11017     11019
     11023     11021     11024     11023     11021     11025     11023     11021     11026
     11024     11021     11025     11024     11021     11026     11025     11021     11026
     11021     11026     11028     11021     11026     11034     11028     11026     11034
     11026     11028     11030     11026     11028     11031     11030     11028     11031
     11028     11031     11033     11028     11031     11037     11033     11031     11037
     11026     11034     11036     11026     11034     11037     11036     11034     11037
     11031     11037     11034     11031     11037     11039     11034     11037     11039
     11043     11041     11044     11043     11041     11045     11043     11041     11046
     11044     11041     11045     11044     11041     11046     11045     11041     11046
     11041     11046     11048     11041     11046     11054     11048     11046     11054
     11046     11048     11050     11046     11048     11051     11050     11048     11051
     11048     11051     11053     11048     11051     11057     11053     11051     11057
     11046     11054     11056     11046     11054     11057     11056     11054     11057
     11051     11057     11054     11051     11057     11059     11054     11057     11059
     11063     11061     11064     11063     11061     11065     11063     11061     11066
     11064     11061     11065     11064     11061     11066     11065     11061     11066
     11061     11066     11068     11061     11066     11074     11068     11066     11074
     11066     11068     11070     11066     11068     11071     11070     11068     11071
     11068     11071     11073     11068     11071     11077     11073     11071     11077
     11066     11074     11076     11066     11074     11077     11076     11074     11077
     11071     11077     11074     11071     11077     11079     11074     11077     11079
     11083     11081     11084     11083     11081     11085     11083     11081     11086
     11084     11081     11085     11084     11081     11086     11085     11081     11086
     11081     11086     11088     11081     11086     11094     11088     11086     11094
     11086     11088     11090     11086     11088     11091     11090     11088     11091
     11088     11091     11093     11088     11091     11097     11093     11091     11097
     11086     11094     11096     11086     11094     11097     11096     11094     11097
     11091     11097     11094     11091     11097     11099     11094     11097     11099
     11103     11101     11104     11103     11101     11105     11103     11101     11106
     11104     11101     11105     11104     11101     11106     11105     11101     11106
     11101     11106     11108     11101     11106     11114     11108     11106     11114
     11106     11108     11110     11106     11108     11111     11110     11108     11111
     11108     11111     11113     11108     11111     11117     11113     11111     11117
     11106     11114     11116     11106     11114     11117     11116     11114     11117
     11111     11117     11114     11111     11117     11119     11114     11117     11119
     11123     11121     11124     11123     11121     11125     11123     11121     11126
     11124     11121     11125     11124     11121     11126     11125     11121     11126
     11121     11126     11128     11121     11126     11134     11128     11126     11134
     11126     11128     11130     11126     11128     11131     11130     11128     11131
     11128     11131     11133     11128     11131     11137     11133     11131     11137
     11126     11134     11136     11126     11134     11137     11136     11134     11137
     11131     11137     11134     11131     11137     11139     11134     11137     11139
     11143     11141     11144     11143     11141     11145     11143     11141     11146
     11144     11141     11145     11144     11141     11146     11145     11141     11146
     11141     11146     11148     11141     11146     11154     11148     11146     11154
     11146     11148     11150     11146     11148     11151     11150     11148     11151
     11148     11151     11153     11148     11151     11157     11153     11151     11157
     11146     11154     11156     11146     11154     11157     11156     11154     11157
     11151     11157     11154     11151     11157     11159     11154     11157     11159
     11163     11161     11164     11163     11161     11165     11163     11161     11166
     11164     11161     11165     11164     11161     11166     11165     11161     11166
     11161     11166     11168     11161     11166     11174     11168     11166     11174
     11166     11168     11170     11166     11168     11171     11170     11168     11171
     11168     11171     11173     11168     11171     11177     11173     11171     11177
     11166     11174     11176     11166     11174     11177     11176     11174     11177
     11171     11177     11174     11171     11177     11179     11174     11177     11179
     11183     11181     11184     11183     11181     11185     11183     11181     11186
     11184     11181     11185     11184     11181     11186     11185     11181     11186
     11181     11186     11188     11181     11186     11194     11188     11186     11194
     11186     11188     11190     11186     11188     11191     11190     11188     11191
     11188     11191     11193     11188     11191     11197     11193     11191     11197
     11186     11194     11196     11186     11194     11197     11196     11194     11197
     11191     11197     11194     11191     11197     11199     11194     11197     11199
     11203     11201     11204     11203     11201     11205     11203     11201     11206
     11204     11201     11205     11204     11201     11206     11205     11201     11206
     11201     11206     11208     11201     11206     11214     11208     11206     11214
     11206     11208     11210     11206     11208     11211     11210     11208     11211
     11208     11211     11213     11208     11211     11217     11213     11211     11217
     11206     11214     11216     11206     11214     11217     11216     11214     11217
     11211     11217     11214     11211     11217     11219     11214     11217     11219
     11223     11221     11224     11223     11221     11225     11223     11221     11226
     11224     11221     11225     11224     11221     11226     11225     11221     11226
     11221     11226     11228     11221     11226     11234     11228     11226     11234
     11226     11228     11230     11226     11228     11231     11230     11228     11231
     11228     11231     11233     11228     11231     11237     11233     11231     11237
     11226     11234     11236     11226     11234     11237     11236     11234     11237
     11231     11237     11234     11231     11237     11239     11234     11237     11239
     11243     11241     11244     11243     11241     11245     11243     11241     11246
     11244     11241     11245     11244     11241     11246     11245     11241     11246
     11241     11246     11248     11241     11246     11254     11248     11246     11254
     11246     11248     11250     11246     11248     11251     11250     11248     11251
     11248     11251     11253     11248     11251     11257     11253     11251     11257
     11246     11254     11256     11246     11254     11257     11256     11254     11257
     11251     11257     11254     11251     11257     11259     11254     11257     11259
     11263     11261     11264     11263     11261     11265     11263     11261     11266
     11264     11261     11265     11264     11261     11266     11265     11261     11266
     11261     11266     11268     11261     11266     11274     11268     11266     11274
     11266     11268     11270     11266     11268     11271     11270     11268     11271
     11268     11271     11273     11268     11271     11277     11273     11271     11277
     11266     11274     11276     11266     11274     11277     11276     11274     11277
     11271     11277     11274     11271     11277     11279     11274     11277     11279
     11283     11281     11284     11283     11281     11285     11283     11281     11286
     11284     11281     11285     11284     11281     11286     11285     11281     11286
     11281     11286     11288     11281     11286     11294     11288     11286     11294
     11286     11288     11290     11286     11288     11291     11290     11288     11291
     11288     11291     11293     11288     11291     11297     11293     11291     11297
     11286     11294     11296     11286     11294     11297     11296     11294     11297
     11291     11297     11294     11291     11297     11299     11294     11297     11299
     11303     11301     11304     11303     11301     11305     11303     11301     11306
     11304     11301     11305     11304     11301     11306     11305     11301     11306
     11301     11306     11308     11301     11306     11314     11308     11306     11314
     11306     11308     11310     11306     11308     11311     11310     11308     11311
     11308     11311     11313     11308     11311     11317     11313     11311     11317
     11306     11314     11316     11306     11314     11317     11316     11314     11317
     11311     11317     11314     11311     11317     11319     11314     11317     11319
     11323     11321     11324     11323     11321     11325     11323     11321     11326
     11324     11321     11325     11324     11321     11326     11325     11321     11326
     11321     11326     11328     11321     11326     11334     11328     11326     11334
     11326     11328     11330     11326     11328     11331     11330     11328     11331
     11328     11331     11333     11328     11331     11337     11333     11331     11337
     11326     11334     11336     11326     11334     11337     11336     11334     11337
     11331     11337     11334     11331     11337     11339     11334     11337     11339
     11343     11341     11344     11343     11341     11345     11343     11341     11346
     11344     11341     11345     11344     11341     11346     11345     11341     11346
     11341     11346     11348     11341     11346     11354     11348     11346     11354
     11346     11348     11350     11346     11348     11351     11350     11348     11351
     11348     11351     11353     11348     11351     11357     11353     11351     11357
     11346     11354     11356     11346     11354     11357     11356     11354     11357
     11351     11357     11354     11351     11357     11359     11354     11357     11359
     11363     11361     11364     11363     11361     11365     11363     11361     11366
     11364     11361     11365     11364     11361     11366     11365     11361     11366
     11361     11366     11368     11361     11366     11374     11368     11366     11374
     11366     11368     11370     11366     11368     11371     11370     11368     11371
     11368     11371     11373     11368     11371     11377     11373     11371     11377
     11366     11374     11376     11366     11374     11377     11376     11374     11377
     11371     11377     11374     11371     11377     11379     11374     11377     11379
     11383     11381     11384     11383     11381     11385     11383     11381     11386
     11384     11381     11385     11384     11381     11386     11385     11381     11386
     11381     11386     11388     11381     11386     11394     11388     11386     11394
     11386     11388     11390     11386     11388     11391     11390     11388     11391
     11388     11391     11393     11388     11391     11397     11393     11391     11397
     11386     11394     11396     11386     11394     11397     11396     11394     11397
     11391     11397     11394     11391     11397     11399     11394     11397     11399
     11403     11401     11404     11403     11401     11405     11403     11401     11406
     11404     11401     11405     11404     11401     11406     11405     11401     11406
     11401     11406     11408     11401     11406     11414     11408     11406     11414
     11406     11408     11410     11406     11408     11411     11410     11408     11411
     11408     11411     11413     11408     11411     11417     11413     11411     11417
     11406     11414     11416     11406     11414     11417     11416     11414     11417
     11411     11417     11414     11411     11417     11419     11414     11417     11419
     11423     11421     11424     11423     11421     11425     11423     11421     11426
     11424     11421     11425     11424     11421     11426     11425     11421     11426
     11421     11426     11428     11421     11426     11434     11428     11426     11434
     11426     11428     11430     11426     11428     11431     11430     11428     11431
     11428     11431     11433     11428     11431     11437     11433     11431     11437
     11426     11434     11436     11426     11434     11437     11436     11434     11437
     11431     11437     11434     11431     11437     11439     11434     11437     11439
     11443     11441     11444     11443     11441     11445     11443     11441     11446
     11444     11441     11445     11444     11441     11446     11445     11441     11446
     11441     11446     11448     11441     11446     11454     11448     11446     11454
     11446     11448     11450     11446     11448     11451     11450     11448     11451
     11448     11451     11453     11448     11451     11457     11453     11451     11457
     11446     11454     11456     11446     11454     11457     11456     11454     11457
     11451     11457     11454     11451     11457     11459     11454     11457     11459
     11463     11461     11464     11463     11461     11465     11463     11461     11466
     11464     11461     11465     11464     11461     11466     11465     11461     11466
     11461     11466     11468     11461     11466     11474     11468     11466     11474
     11466     11468     11470     11466     11468     11471     11470     11468     11471
     11468     11471     11473     11468     11471     11477     11473     11471     11477
     11466     11474     11476     11466     11474     11477     11476     11474     11477
     11471     11477     11474     11471     11477     11479     11474     11477     11479
     11483     11481     11484     11483     11481     11485     11483     11481     11486
     11484     11481     11485     11484     11481     11486     11485     11481     11486
     11481     11486     11488     11481     11486     11494     11488     11486     11494
     11486     11488     11490     11486     11488     11491     11490     11488     11491
     11488     11491     11493     11488     11491     11497     11493     11491     11497
     11486     11494     11496     11486     11494     11497     11496     11494     11497
     11491     11497     11494     11491     11497     11499     11494     11497     11499
     11503     11501     11504     11503     11501     11505     11503     11501     11506
     11504     11501     11505     11504     11501     11506     11505     11501     11506
     11501     11506     11508     11501     11506     11514     11508     11506     11514
     11506     11508     11510     11506     11508     11511     11510     11508     11511
     11508     11511     11513     11508     11511     11517     11513     11511     11517
     11506     11514     11516     11506     11514     11517     11516     11514     11517
     11511     11517     11514     11511     11517     11519     11514     11517     11519
     11523     11521     11524     11523     11521     11525     11523     11521     11526
     11524     11521     11525     11524     11521     11526     11525     11521     11526
     11521     11526     11528     11521     11526     11534     11528     11526     11534
     11526     11528     11530     11526     11528     11531     11530     11528     11531
     11528     11531     11533     11528     11531     11537     11533     11531     11537
     11526     11534     11536     11526     11534     11537     11536     11534     11537
     11531     11537     11534     11531     11537     11539     11534     11537     11539
     11543     11541     11544     11543     11541     11545     11543     11541     11546
     11544     11541     11545     11544     11541     11546     11545     11541     11546
     11541     11546     11548     11541     11546     11554     11548     11546     11554
     11546     11548     11550     11546     11548     11551     11550     11548     11551
     11548     11551     11553     11548     11551     11557     11553     11551     11557
     11546     11554     11556     11546     11554     11557     11556     11554     11557
     11551     11557     11554     11551     11557     11559     11554     11557     11559
     11563     11561     11564     11563     11561     11565     11563     11561     11566
     11564     11561     11565     11564     11561     11566     11565     11561     11566
     11561     11566     11568     11561     11566     11574     11568     11566     11574
     11566     11568     11570     11566     11568     11571     11570     11568     11571
     11568     11571     11573     11568     11571     11577     11573     11571     11577
     11566     11574     11576     11566     11574     11577     11576     11574     11577
     11571     11577     11574     11571     11577     11579     11574     11577     11579
     11583     11581     11584     11583     11581     11585     11583     11581     11586
     11584     11581     11585     11584     11581     11586     11585     11581     11586
     11581     11586     11588     11581     11586     11594     11588     11586     11594
     11586     11588     11590     11586     11588     11591     11590     11588     11591
     11588     11591     11593     11588     11591     11597     11593     11591     11597
     11586     11594     11596     11586     11594     11597     11596     11594     11597
     11591     11597     11594     11591     11597     11599     11594     11597     11599
     11603     11601     11604     11603     11601     11605     11603     11601     11606
     11604     11601     11605     11604     11601     11606     11605     11601     11606
     11601     11606     11608     11601     11606     11614     11608     11606     11614
     11606     11608     11610     11606     11608     11611     11610     11608     11611
     11608     11611     11613     11608     11611     11617     11613     11611     11617
     11606     11614     11616     11606     11614     11617     11616     11614     11617
     11611     11617     11614     11611     11617     11619     11614     11617     11619
     11623     11621     11624     11623     11621     11625     11623     11621     11626
     11624     11621     11625     11624     11621     11626     11625     11621     11626
     11621     11626     11628     11621     11626     11634     11628     11626     11634
     11626     11628     11630     11626     11628     11631     11630     11628     11631
     11628     11631     11633     11628     11631     11637     11633     11631     11637
     11626     11634     11636     11626     11634     11637     11636     11634     11637
     11631     11637     11634     11631     11637     11639     11634     11637     11639
     11643     11641     11644     11643     11641     11645     11643     11641     11646
     11644     11641     11645     11644     11641     11646     11645     11641     11646
     11641     11646     11648     11641     11646     11654     11648     11646     11654
     11646     11648     11650     11646     11648     11651     11650     11648     11651
     11648     11651     11653     11648     11651     11657     11653     11651     11657
     11646     11654     11656     11646     11654     11657     11656     11654     11657
     11651     11657     11654     11651     11657     11659     11654     11657     11659
     11663     11661     11664     11663     11661     11665     11663     11661     11666
     11664     11661     11665     11664     11661     11666     11665     11661     11666
     11661     11666     11668     11661     11666     11674     11668     11666     11674
     11666     11668     11670     11666     11668     11671     11670     11668     11671
     11668     11671     11673     11668     11671     11677     11673     11671     11677
     11666     11674     11676     11666     11674     11677     11676     11674     11677
     11671     11677     11674     11671     11677     11679     11674     11677     11679
     11683     11681     11684     11683     11681     11685     11683     11681     11686
     11684     11681     11685     11684     11681     11686     11685     11681     11686
     11681     11686     11688     11681     11686     11694     11688     11686     11694
     11686     11688     11690     11686     11688     11691     11690     11688     11691
     11688     11691     11693     11688     11691     11697     11693     11691     11697
     11686     11694     11696     11686     11694     11697     11696     11694     11697
     11691     11697     11694     11691     11697     11699     11694     11697     11699
     11703     11701     11704     11703     11701     11705     11703     11701     11706
     11704     11701     11705     11704     11701     11706     11705     11701     11706
     11701     11706     11708     11701     11706     11714     11708     11706     11714
     11706     11708     11710     11706     11708     11711     11710     11708     11711
     11708     11711     11713     11708     11711     11717     11713     11711     11717
     11706     11714     11716     11706     11714     11717     11716     11714     11717
     11711     11717     11714     11711     11717     11719     11714     11717     11719
     11723     11721     11724     11723     11721     11725     11723     11721     11726
     11724     11721     11725     11724     11721     11726     11725     11721     11726
     11721     11726     11728     11721     11726     11734     11728     11726     11734
     11726     11728     11730     11726     11728     11731     11730     11728     11731
     11728     11731     11733     11728     11731     11737     11733     11731     11737
     11726     11734     11736     11726     11734     11737     11736     11734     11737
     11731     11737     11734     11731     11737     11739     11734     11737     11739
     11743     11741     11744     11743     11741     11745     11743     11741     11746
     11744     11741     11745     11744     11741     11746     11745     11741     11746
     11741     11746     11748     11741     11746     11754     11748     11746     11754
     11746     11748     11750     11746     11748     11751     11750     11748     11751
     11748     11751     11753     11748     11751     11757     11753     11751     11757
     11746     11754     11756     11746     11754     11757     11756     11754     11757
     11751     11757     11754     11751     11757     11759     11754     11757     11759
     11763     11761     11764     11763     11761     11765     11763     11761     11766
     11764     11761     11765     11764     11761     11766     11765     11761     11766
     11761     11766     11768     11761     11766     11774     11768     11766     11774
     11766     11768     11770     11766     11768     11771     11770     11768     11771
     11768     11771     11773     11768     11771     11777     11773     11771     11777
     11766     11774     11776     11766     11774     11777     11776     11774     11777
     11771     11777     11774     11771     11777     11779     11774     11777     11779
     11783     11781     11784     11783     11781     11785     11783     11781     11786
     11784     11781     11785     11784     11781     11786     11785     11781     11786
     11781     11786     11788     11781     11786     11794     11788     11786     11794
     11786     11788     11790     11786     11788     11791     11790     11788     11791
     11788     11791     11793     11788     11791     11797     11793     11791     11797
     11786     11794     11796     11786     11794     11797     11796     11794     11797
     11791     11797     11794     11791     11797     11799     11794     11797     11799
     11803     11801     11804     11803     11801     11805     11803     11801     11806
     11804     11801     11805     11804     11801     11806     11805     11801     11806
     11801     11806     11808     11801     11806     11814     11808     11806     11814
     11806     11808     11810     11806     11808     11811     11810     11808     11811
     11808     11811     11813     11808     11811     11817     11813     11811     11817
     11806     11814     11816     11806     11814     11817     11816     11814     11817
     11811     11817     11814     11811     11817     11819     11814     11817     11819
     11823     11821     11824     11823     11821     11825     11823     11821     11826
     11824     11821     11825     11824     11821     11826     11825     11821     11826
     11821     11826     11828     11821     11826     11834     11828     11826     11834
     11826     11828     11830     11826     11828     11831     11830     11828     11831
     11828     11831     11833     11828     11831     11837     11833     11831     11837
     11826     11834     11836     11826     11834     11837     11836     11834     11837
     11831     11837     11834     11831     11837     11839     11834     11837     11839
     11843     11841     11844     11843     11841     11845     11843     11841     11846
     11844     11841     11845     11844     11841     11846     11845     11841     11846
     11841     11846     11848     11841     11846     11854     11848     11846     11854
     11846     11848     11850     11846     11848     11851     11850     11848     11851
     11848     11851     11853     11848     11851     11857     11853     11851     11857
     11846     11854     11856     11846     11854     11857     11856     11854     11857
     11851     11857     11854     11851     11857     11859     11854     11857     11859
     11863     11861     11864     11863     11861     11865     11863     11861     11866
     11864     11861     11865     11864     11861     11866     11865     11861     11866
     11861     11866     11868     11861     11866     11874     11868     11866     11874
     11866     11868     11870     11866     11868     11871     11870     11868     11871
     11868     11871     11873     11868     11871     11877     11873     11871     11877
     11866     11874     11876     11866     11874     11877     11876     11874     11877
     11871     11877     11874     11871     11877     11879     11874     11877     11879
     11883     11881     11884     11883     11881     11885     11883     11881     11886
     11884     11881     11885     11884     11881     11886     11885     11881     11886
     11881     11886     11888     11881     11886     11894     11888     11886     11894
     11886     11888     11890     11886     11888     11891     11890     11888     11891
     11888     11891     11893     11888     11891     11897     11893     11891     11897
     11886     11894     11896     11886     11894     11897     11896     11894     11897
     11891     11897     11894     11891     11897     11899     11894     11897     11899
     11903     11901     11904     11903     11901     11905     11903     11901     11906
     11904     11901     11905     11904     11901     11906     11905     11901     11906
     11901     11906     11908     11901     11906     11914     11908     11906     11914
     11906     11908     11910     11906     11908     11911     11910     11908     11911
     11908     11911     11913     11908     11911     11917     11913     11911     11917
     11906     11914     11916     11906     11914     11917     11916     11914     11917
     11911     11917     11914     11911     11917     11919     11914     11917     11919
     11923     11921     11924     11923     11921     11925     11923     11921     11926
     11924     11921     11925     11924     11921     11926     11925     11921     11926
     11921     11926     11928     11921     11926     11934     11928     11926     11934
     11926     11928     11930     11926     11928     11931     11930     11928     11931
     11928     11931     11933     11928     11931     11937     11933     11931     11937
     11926     11934     11936     11926     11934     11937     11936     11934     11937
     11931     11937     11934     11931     11937     11939     11934     11937     11939
     11943     11941     11944     11943     11941     11945     11943     11941     11946
     11944     11941     11945     11944     11941     11946     11945     11941     11946
     11941     11946     11948     11941     11946     11954     11948     11946     11954
     11946     11948     11950     11946     11948     11951     11950     11948     11951
     11948     11951     11953     11948     11951     11957     11953     11951     11957
     11946     11954     11956     11946     11954     11957     11956     11954     11957
     11951     11957     11954     11951     11957     11959     11954     11957     11959
     11963     11961     11964     11963     11961     11965     11963     11961     11966
     11964     11961     11965     11964     11961     11966     11965     11961     11966
     11961     11966     11968     11961     11966     11974     11968     11966     11974
     11966     11968     11970     11966     11968     11971     11970     11968     11971
     11968     11971     11973     11968     11971     11977     11973     11971     11977
     11966     11974     11976     11966     11974     11977     11976     11974     11977
     11971     11977     11974     11971     11977     11979     11974     11977     11979
     11983     11981     11984     11983     11981     11985     11983     11981     11986
     11984     11981     11985     11984     11981     11986     11985     11981     11986
     11981     11986     11988     11981     11986     11994     11988     11986     11994
     11986     11988     11990     11986     11988     11991     11990     11988     11991
     11988     11991     11993     11988     11991     11997     11993     11991     11997
     11986     11994     11996     11986     11994     11997     11996     11994     11997
     11991     11997     11994     11991     11997     11999     11994     11997     11999
     12003     12001     12004     12003     12001     12005     12003     12001     12006
     12004     12001     12005     12004     12001     12006     12005     12001     12006
     12001     12006     12008     12001     12006     12014     12008     12006     12014
     12006     12008     12010     12006     12008     12011     12010     12008     12011
     12008     12011     12013     12008     12011     12017     12013     12011     12017
     12006     12014     12016     12006     12014     12017     12016     12014     12017
     12011     12017     12014     12011     12017     12019     12014     12017     12019
     12023     12021     12024     12023     12021     12025     12023     12021     12026
     12024     12021     12025     12024     12021     12026     12025     12021     12026
     12021     12026     12028     12021     12026     12034     12028     12026     12034
     12026     12028     12030     12026     12028     12031     12030     12028     12031
     12028     12031     12033     12028     12031     12037     12033     12031     12037
     12026     12034     12036     12026     12034     12037     12036     12034     12037
     12031     12037     12034     12031     12037     12039     12034     12037     12039
     12043     12041     12044     12043     12041     12045     12043     12041     12046
     12044     12041     12045     12044     12041     12046     12045     12041     12046
     12041     12046     12048     12041     12046     12054     12048     12046     12054
     12046     12048     12050     12046     12048     12051     12050     12048     12051
     12048     12051     12053     12048     12051     12057     12053     12051     12057
     12046     12054     12056     12046     12054     12057     12056     12054     12057
     12051     12057     12054     12051     12057     12059     12054     12057     12059
     12063     12061     12064     12063     12061     12065     12063     12061     12066
     12064     12061     12065     12064     12061     12066     12065     12061     12066
     12061     12066     12068     12061     12066     12074     12068     12066     12074
     12066     12068     12070     12066     12068     12071     12070     12068     12071
     12068     12071     12073     12068     12071     12077     12073     12071     12077
     12066     12074     12076     12066     12074     12077     12076     12074     12077
     12071     12077     12074     12071     12077     12079     12074     12077     12079
     12083     12081     12084     12083     12081     12085     12083     12081     12086
     12084     12081     12085     12084     12081     12086     12085     12081     12086
     12081     12086     12088     12081     12086     12094     12088     12086     12094
     12086     12088     12090     12086     12088     12091     12090     12088     12091
     12088     12091     12093     12088     12091     12097     12093     12091     12097
     12086     12094     12096     12086     12094     12097     12096     12094     12097
     12091     12097     12094     12091     12097     12099     12094     12097     12099
     12103     12101     12104     12103     12101     12105     12103     12101     12106
     12104     12101     12105     12104     12101     12106     12105     12101     12106
     12101     12106     12108     12101     12106     12114     12108     12106     12114
     12106     12108     12110     12106     12108     12111     12110     12108     12111
     12108     12111     12113     12108     12111     12117     12113     12111     12117
     12106     12114     12116     12106     12114     12117     12116     12114     12117
     12111     12117     12114     12111     12117     12119     12114     12117     12119
     12123     12121     12124     12123     12121     12125     12123     12121     12126
     12124     12121     12125     12124     12121     12126     12125     12121     12126
     12121     12126     12128     12121     12126     12134     12128     12126     12134
     12126     12128     12130     12126     12128     12131     12130     12128     12131
     12128     12131     12133     12128     12131     12137     12133     12131     12137
     12126     12134     12136     12126     12134     12137     12136     12134     12137
     12131     12137     12134     12131     12137     12139     12134     12137     12139
     12143     12141     12144     12143     12141     12145     12143     12141     12146
     12144     12141     12145     12144     12141     12146     12145     12141     12146
     12141     12146     12148     12141     12146     12154     12148     12146     12154
     12146     12148     12150     12146     12148     12151     12150     12148     12151
     12148     12151     12153     12148     12151     12157     12153     12151     12157
     12146     12154     12156     12146     12154     12157     12156     12154     12157
     12151     12157     12154     12151     12157     12159     12154     12157     12159
     12163     12161     12164     12163     12161     12165     12163     12161     12166
     12164     12161     12165     12164     12161     12166     12165     12161     12166
     12161     12166     12168     12161     12166     12174     12168     12166     12174
     12166     12168     12170     12166     12168     12171     12170     12168     12171
     12168     12171     12173     12168     12171     12177     12173     12171     12177
     12166     12174     12176     12166     12174     12177     12176     12174     12177
     12171     12177     12174     12171     12177     12179     12174     12177     12179
     12183     12181     12184     12183     12181     12185     12183     12181     12186
     12184     12181     12185     12184     12181     12186     12185     12181     12186
     12181     12186     12188     12181     12186     12194     12188     12186     12194
     12186     12188     12190     12186     12188     12191     12190     12188     12191
     12188     12191     12193     12188     12191     12197     12193     12191     12197
     12186     12194     12196     12186     12194     12197     12196     12194     12197
     12191     12197     12194     12191     12197     12199     12194     12197     12199
     12203     12201     12204     12203     12201     12205     12203     12201     12206
     12204     12201     12205     12204     12201     12206     12205     12201     12206
     12201     12206     12208     12201     12206     12214     12208     12206     12214
     12206     12208     12210     12206     12208     12211     12210     12208     12211
     12208     12211     12213     12208     12211     12217     12213     12211     12217
     12206     12214     12216     12206     12214     12217     12216     12214     12217
     12211     12217     12214     12211     12217     12219     12214     12217     12219
     12223     12221     12224     12223     12221     12225     12223     12221     12226
     12224     12221     12225     12224     12221     12226     12225     12221     12226
     12221     12226     12228     12221     12226     12234     12228     12226     12234
     12226     12228     12230     12226     12228     12231     12230     12228     12231
     12228     12231     12233     12228     12231     12237     12233     12231     12237
     12226     12234     12236     12226     12234     12237     12236     12234     12237
     12231     12237     12234     12231     12237     12239     12234     12237     12239
     12243     12241     12244     12243     12241     12245     12243     12241     12246
     12244     12241     12245     12244     12241     12246     12245     12241     12246
     12241     12246     12248     12241     12246     12254     12248     12246     12254
     12246     12248     12250     12246     12248     12251     12250     12248     12251
     12248     12251     12253     12248     12251     12257     12253     12251     12257
     12246     12254     12256     12246     12254     12257     12256     12254     12257
     12251     12257     12254     12251     12257     12259     12254     12257     12259
     12263     12261     12264     12263     12261     12265     12263     12261     12266
     12264     12261     12265     12264     12261     12266     12265     12261     12266
     12261     12266     12268     12261     12266     12274     12268     12266     12274
     12266     12268     12270     12266     12268     12271     12270     12268     12271
     12268     12271     12273     12268     12271     12277     12273     12271     12277
     12266     12274     12276     12266     12274     12277     12276     12274     12277
     12271     12277     12274     12271     12277     12279     12274     12277     12279
     12283     12281     12284     12283     12281     12285     12283     12281     12286
     12284     12281     12285     12284     12281     12286     12285     12281     12286
     12281     12286     12288     12281     12286     12294     12288     12286     12294
     12286     12288     12290     12286     12288     12291     12290     12288     12291
     12288     12291     12293     12288     12291     12297     12293     12291     12297
     12286     12294     12296     12286     12294     12297     12296     12294     12297
     12291     12297     12294     12291     12297     12299     12294     12297     12299
     12303     12301     12304     12303     12301     12305     12303     12301     12306
     12304     12301     12305     12304     12301     12306     12305     12301     12306
     12301     12306     12308     12301     12306     12314     12308     12306     12314
     12306     12308     12310     12306     12308     12311     12310     12308     12311
     12308     12311     12313     12308     12311     12317     12313     12311     12317
     12306     12314     12316     12306     12314     12317     12316     12314     12317
     12311     12317     12314     12311     12317     12319     12314     12317     12319
     12323     12321     12324     12323     12321     12325     12323     12321     12326
     12324     12321     12325     12324     12321     12326     12325     12321     12326
     12321     12326     12328     12321     12326     12334     12328     12326     12334
     12326     12328     12330     12326     12328     12331     12330     12328     12331
     12328     12331     12333     12328     12331     12337     12333     12331     12337
     12326     12334     12336     12326     12334     12337     12336     12334     12337
     12331     12337     12334     12331     12337     12339     12334     12337     12339
     12343     12341     12344     12343     12341     12345     12343     12341     12346
     12344     12341     12345     12344     12341     12346     12345     12341     12346
     12341     12346     12348     12341     12346     12354     12348     12346     12354
     12346     12348     12350     12346     12348     12351     12350     12348     12351
     12348     12351     12353     12348     12351     12357     12353     12351     12357
     12346     12354     12356     12346     12354     12357     12356     12354     12357
     12351     12357     12354     12351     12357     12359     12354     12357     12359
     12363     12361     12364     12363     12361     12365     12363     12361     12366
     12364     12361     12365     12364     12361     12366     12365     12361     12366
     12361     12366     12368     12361     12366     12374     12368     12366     12374
     12366     12368     12370     12366     12368     12371     12370     12368     12371
     12368     12371     12373     12368     12371     12377     12373     12371     12377
     12366     12374     12376     12366     12374     12377     12376     12374     12377
     12371     12377     12374     12371     12377     12379     12374     12377     12379
     12383     12381     12384     12383     12381     12385     12383     12381     12386
     12384     12381     12385     12384     12381     12386     12385     12381     12386
     12381     12386     12388     12381     12386     12394     12388     12386     12394
     12386     12388     12390     12386     12388     12391     12390     12388     12391
     12388     12391     12393     12388     12391     12397     12393     12391     12397
     12386     12394     12396     12386     12394     12397     12396     12394     12397
     12391     12397     12394     12391     12397     12399     12394     12397     12399
     12403     12401     12404     12403     12401     12405     12403     12401     12406
     12404     12401     12405     12404     12401     12406     12405     12401     12406
     12401     12406     12408     12401     12406     12414     12408     12406     12414
     12406     12408     12410     12406     12408     12411     12410     12408     12411
     12408     12411     12413     12408     12411     12417     12413     12411     12417
     12406     12414     12416     12406     12414     12417     12416     12414     12417
     12411     12417     12414     12411     12417     12419     12414     12417     12419
     12423     12421     12424     12423     12421     12425     12423     12421     12426
     12424     12421     12425     12424     12421     12426     12425     12421     12426
     12421     12426     12428     12421     12426     12434     12428     12426     12434
     12426     12428     12430     12426     12428     12431     12430     12428     12431
     12428     12431     12433     12428     12431     12437     12433     12431     12437
     12426     12434     12436     12426     12434     12437     12436     12434     12437
     12431     12437     12434     12431     12437     12439     12434     12437     12439
     12443     12441     12444     12443     12441     12445     12443     12441     12446
     12444     12441     12445     12444     12441     12446     12445     12441     12446
     12441     12446     12448     12441     12446     12454     12448     12446     12454
     12446     12448     12450     12446     12448     12451     12450     12448     12451
     12448     12451     12453     12448     12451     12457     12453     12451     12457
     12446     12454     12456     12446     12454     12457     12456     12454     12457
     12451     12457     12454     12451     12457     12459     12454     12457     12459
     12463     12461     12464     12463     12461     12465     12463     12461     12466
     12464     12461     12465     12464     12461     12466     12465     12461     12466
     12461     12466     12468     12461     12466     12474     12468     12466     12474
     12466     12468     12470     12466     12468     12471     12470     12468     12471
     12468     12471     12473     12468     12471     12477     12473     12471     12477
     12466     12474     12476     12466     12474     12477     12476     12474     12477
     12471     12477     12474     12471     12477     12479     12474     12477     12479
     12483     12481     12484     12483     12481     12485     12483     12481     12486
     12484     12481     12485     12484     12481     12486     12485     12481     12486
     12481     12486     12488     12481     12486     12494     12488     12486     12494
     12486     12488     12490     12486     12488     12491     12490     12488     12491
     12488     12491     12493     12488     12491     12497     12493     12491     12497
     12486     12494     12496     12486     12494     12497     12496     12494     12497
     12491     12497     12494     12491     12497     12499     12494     12497     12499
     12503     12501     12504     12503     12501     12505     12503     12501     12506
     12504     12501     12505     12504     12501     12506     12505     12501     12506
     12501     12506     12508     12501     12506     12514     12508     12506     12514
     12506     12508     12510     12506     12508     12511     12510     12508     12511
     12508     12511     12513     12508     12511     12517     12513     12511     12517
     12506     12514     12516     12506     12514     12517     12516     12514     12517
     12511     12517     12514     12511     12517     12519     12514     12517     12519
     12523     12521     12524     12523     12521     12525     12523     12521     12526
     12524     12521     12525     12524     12521     12526     12525     12521     12526
     12521     12526     12528     12521     12526     12534     12528     12526     12534
     12526     12528     12530     12526     12528     12531     12530     12528     12531
     12528     12531     12533     12528     12531     12537     12533     12531     12537
     12526     12534     12536     12526     12534     12537     12536     12534     12537
     12531     12537     12534     12531     12537     12539     12534     12537     12539
     12543     12541     12548     12543     12541     12550     12548     12541     12550
     12541     12543     12545     12541     12543     12546     12541     12543     12547
     12545     12543     12546     12545     12543     12547     12546     12543     12547
     12541     12550     12552     12559     12557     12564     12559     12557     12566
     12564     12557     12566     12557     12559     12561     12557     12559     12562
     12557     12559     12563     12561     12559     12562     12561     12559     12563
     12562     12559     12563     12557     12566     12568     12575     12573     12580
     12575     12573     12582     12580     12573     12582     12573     12575     12577
     12573     12575     12578     12573     12575     12579     12577     12575     12578
     12577     12575     12579     12578     12575     12579     12573     12582     12584
     12591     12589     12596     12591     12589     12598     12596     12589     12598
     12589     12591     12593     12589     12591     12594     12589     12591     12595
     12593     12591     12594     12593     12591     12595     12594     12591     12595
     12589     12598     12600     12607     12605     12612     12607     12605     12614
     12612     12605     12614     12605     12607     12609     12605     12607     12610
     12605     12607     12611     12609     12607     12610     12609     12607     12611
     12610     12607     12611     12605     12614     12616     12623     12621     12628
     12623     12621     12630     12628     12621     12630     12621     12623     12625
     12621     12623     12626     12621     12623     12627     12625     12623     12626
     12625     12623     12627     12626     12623     12627     12621     12630     12632
     12639     12637     12644     12639     12637     12646     12644     12637     12646
     12637     12639     12641     12637     12639     12642     12637     12639     12643
     12641     12639     12642     12641     12639     12643     12642     12639     12643
     12637     12646     12648     12655     12653     12660     12655     12653     12662
     12660     12653     12662     12653     12655     12657     12653     12655     12658
     12653     12655     12659     12657     12655     12658     12657     12655     12659
     12658     12655     12659     12653     12662     12664     12671     12669     12676
     12671     12669     12678     12676     12669     12678     12669     12671     12673
     12669     12671     12674     12669     12671     12675     12673     12671     12674
     12673     12671     12675     12674     12671     12675     12669     12678     12680
     12687     12685     12692     12687     12685     12694     12692     12685     12694
     12685     12687     12689     12685     12687     12690     12685     12687     12691
     12689     12687     12690     12689     12687     12691     12690     12687     12691
     12685     12694     12696     12703     12701     12708     12703     12701     12710
     12708     12701     12710     12701     12703     12705     12701     12703     12706
     12701     12703     12707     12705     12703     12706     12705     12703     12707
     12706     12703     12707     12701     12710     12712     12719     12717     12724
     12719     12717     12726     12724     12717     12726     12717     12719     12721
     12717     12719     12722     12717     12719     12723     12721     12719     12722
     12721     12719     12723     12722     12719     12723     12717     12726     12728
     12735     12733     12740     12735     12733     12742     12740     12733     12742
     12733     12735     12737     12733     12735     12738     12733     12735     12739
     12737     12735     12738     12737     12735     12739     12738     12735     12739
     12733     12742     12744     12751     12749     12756     12751     12749     12758
     12756     12749     12758     12749     12751     12753     12749     12751     12754
     12749     12751     12755     12753     12751     12754     12753     12751     12755
     12754     12751     12755     12749     12758     12760     12767     12765     12772
     12767     12765     12774     12772     12765     12774     12765     12767     12769
     12765     12767     12770     12765     12767     12771     12769     12767     12770
     12769     12767     12771     12770     12767     12771     12765     12774     12776
     12783     12781     12788     12783     12781     12790     12788     12781     12790
     12781     12783     12785     12781     12783     12786     12781     12783     12787
     12785     12783     12786     12785     12783     12787     12786     12783     12787
     12781     12790     12792     12799     12797     12804     12799     12797     12806
     12804     12797     12806     12797     12799     12801     12797     12799     12802
     12797     12799     12803     12801     12799     12802     12801     12799     12803
     12802     12799     12803     12797     12806     12808     12815     12813     12820
     12815     12813     12822     12820     12813     12822     12813     12815     12817
     12813     12815     12818     12813     12815     12819     12817     12815     12818
     12817     12815     12819     12818     12815     12819     12813     12822     12824
     12831     12829     12836     12831     12829     12838     12836     12829     12838
     12829     12831     12833     12829     12831     12834     12829     12831     12835
     12833     12831     12834     12833     12831     12835     12834     12831     12835
     12829     12838     12840     12847     12845     12852     12847     12845     12854
     12852     12845     12854     12845     12847     12849     12845     12847     12850
     12845     12847     12851     12849     12847     12850     12849     12847     12851
     12850     12847     12851     12845     12854     12856     12863     12861     12868
     12863     12861     12870     12868     12861     12870     12861     12863     12865
     12861     12863     12866     12861     12863     12867     12865     12863     12866
     12865     12863     12867     12866     12863     12867     12861     12870     12872
     12879     12877     12884     12879     12877     12886     12884     12877     12886
     12877     12879     12881     12877     12879     12882     12877     12879     12883
     12881     12879     12882     12881     12879     12883     12882     12879     12883
     12877     12886     12888     12895     12893     12900     12895     12893     12902
     12900     12893     12902     12893     12895     12897     12893     12895     12898
     12893     12895     12899     12897     12895     12898     12897     12895     12899
     12898     12895     12899     12893     12902     12904     12911     12909     12916
     12911     12909     12918     12916     12909     12918     12909     12911     12913
     12909     12911     12914     12909     12911     12915     12913     12911     12914
     12913     12911     12915     12914     12911     12915     12909     12918     12920
     12927     12925     12932     12927     12925     12934     12932     12925     12934
     12925     12927     12929     12925     12927     12930     12925     12927     12931
     12929     12927     12930     12929     12927     12931     12930     12927     12931
     12925     12934     12936     12943     12941     12948     12943     12941     12950
     12948     12941     12950     12941     12943     12945     12941     12943     12946
     12941     12943     12947     12945     12943     12946     12945     12943     12947
     12946     12943     12947     12941     12950     12952     12959     12957     12964
     12959     12957     12966     12964     12957     12966     12957     12959     12961
     12957     12959     12962     12957     12959     12963     12961     12959     12962
     12961     12959     12963     12962     12959     12963     12957     12966     12968
     12975     12973     12980     12975     12973     12982     12980     12973     12982
     12973     12975     12977     12973     12975     12978     12973     12975     12979
     12977     12975     12978     12977     12975     12979     12978     12975     12979
     12973     12982     12984     12991     12989     12996     12991     12989     12998
     12996     12989     12998     12989     12991     12993     12989     12991     12994
     12989     12991     12995     12993     12991     12994     12993     12991     12995
     12994     12991     12995     12989     12998     13000     13007     13005     13012
     13007     13005     13014     13012     13005     13014     13005     13007     13009
     13005     13007     13010     13005     13007     13011     13009     13007     13010
     13009     13007     13011     13010     13007     13011     13005     13014     13016
     13023     13021     13028     13023     13021     13030     13028     13021     13030
     13021     13023     13025     13021     13023     13026     13021     13023     13027
     13025     13023     13026     13025     13023     13027     13026     13023     13027
     13021     13030     13032     13039     13037     13044     13039     13037     13046
     13044     13037     13046     13037     13039     13041     13037     13039     13042
     13037     13039     13043     13041     13039     13042     13041     13039     13043
     13042     13039     13043     13037     13046     13048     13055     13053     13060
     13055     13053     13062     13060     13053     13062     13053     13055     13057
     13053     13055     13058     13053     13055     13059     13057     13055     13058
     13057     13055     13059     13058     13055     13059     13053     13062     13064
     13071     13069     13076     13071     13069     13078     13076     13069     13078
     13069     13071     13073     13069     13071     13074     13069     13071     13075
     13073     13071     13074     13073     13071     13075     13074     13071     13075
     13069     13078     13080     13087     13085     13092     13087     13085     13094
     13092     13085     13094     13085     13087     13089     13085     13087     13090
     13085     13087     13091     13089     13087     13090     13089     13087     13091
     13090     13087     13091     13085     13094     13096     13103     13101     13108
     13103     13101     13110     13108     13101     13110     13101     13103     13105
     13101     13103     13106     13101     13103     13107     13105     13103     13106
     13105     13103     13107     13106     13103     13107     13101     13110     13112
     13119     13117     13124     13119     13117     13126     13124     13117     13126
     13117     13119     13121     13117     13119     13122     13117     13119     13123
     13121     13119     13122     13121     13119     13123     13122     13119     13123
     13117     13126     13128     13135     13133     13140     13135     13133     13142
     13140     13133     13142     13133     13135     13137     13133     13135     13138
     13133     13135     13139     13137     13135     13138     13137     13135     13139
     13138     13135     13139     13133     13142     13144     13151     13149     13156
     13151     13149     13158     13156     13149     13158     13149     13151     13153
     13149     13151     13154     13149     13151     13155     13153     13151     13154
     13153     13151     13155     13154     13151     13155     13149     13158     13160
     13167     13165     13172     13167     13165     13174     13172     13165     13174
     13165     13167     13169     13165     13167     13170     13165     13167     13171
     13169     13167     13170     13169     13167     13171     13170     13167     13171
     13165     13174     13176     13183     13181     13188     13183     13181     13190
     13188     13181     13190     13181     13183     13185     13181     13183     13186
     13181     13183     13187     13185     13183     13186     13185     13183     13187
     13186     13183     13187     13181     13190     13192     13199     13197     13204
     13199     13197     13206     13204     13197     13206     13197     13199     13201
     13197     13199     13202     13197     13199     13203     13201     13199     13202
     13201     13199     13203     13202     13199     13203     13197     13206     13208
     13215     13213     13220     13215     13213     13222     13220     13213     13222
     13213     13215     13217     13213     13215     13218     13213     13215     13219
     13217     13215     13218     13217     13215     13219     13218     13215     13219
     13213     13222     13224     13231     13229     13236     13231     13229     13238
     13236     13229     13238     13229     13231     13233     13229     13231     13234
     13229     13231     13235     13233     13231     13234     13233     13231     13235
     13234     13231     13235     13229     13238     13240     13247     13245     13252
     13247     13245     13254     13252     13245     13254     13245     13247     13249
     13245     13247     13250     13245     13247     13251     13249     13247     13250
     13249     13247     13251     13250     13247     13251     13245     13254     13256
     13263     13261     13268     13263     13261     13270     13268     13261     13270
     13261     13263     13265     13261     13263     13266     13261     13263     13267
     13265     13263     13266     13265     13263     13267     13266     13263     13267
     13261     13270     13272     13279     13277     13284     13279     13277     13286
     13284     13277     13286     13277     13279     13281     13277     13279     13282
     13277     13279     13283     13281     13279     13282     13281     13279     13283
     13282     13279     13283     13277     13286     13288     13295     13293     13300
     13295     13293     13302     13300     13293     13302     13293     13295     13297
     13293     13295     13298     13293     13295     13299     13297     13295     13298
     13297     13295     13299     13298     13295     13299     13293     13302     13304
     13311     13309     13316     13311     13309     13318     13316     13309     13318
     13309     13311     13313     13309     13311     13314     13309     13311     13315
     13313     13311     13314     13313     13311     13315     13314     13311     13315
     13309     13318     13320     13327     13325     13332     13327     13325     13334
     13332     13325     13334     13325     13327     13329     13325     13327     13330
     13325     13327     13331     13329     13327     13330     13329     13327     13331
     13330     13327     13331     13325     13334     13336     13343     13341     13348
     13343     13341     13350     13348     13341     13350     13341     13343     13345
     13341     13343     13346     13341     13343     13347     13345     13343     13346
     13345     13343     13347     13346     13343     13347     13341     13350     13352
     13359     13357     13364     13359     13357     13366     13364     13357     13366
     13357     13359     13361     13357     13359     13362     13357     13359     13363
     13361     13359     13362     13361     13359     13363     13362     13359     13363
     13357     13366     13368     13375     13373     13380     13375     13373     13382
     13380     13373     13382     13373     13375     13377     13373     13375     13378
     13373     13375     13379     13377     13375     13378     13377     13375     13379
     13378     13375     13379     13373     13382     13384     13391     13389     13396
     13391     13389     13398     13396     13389     13398     13389     13391     13393
     13389     13391     13394     13389     13391     13395     13393     13391     13394
     13393     13391     13395     13394     13391     13395     13389     13398     13400
     13407     13405     13412     13407     13405     13414     13412     13405     13414
     13405     13407     13409     13405     13407     13410     13405     13407     13411
     13409     13407     13410     13409     13407     13411     13410     13407     13411
     13405     13414     13416     13423     13421     13428     13423     13421     13430
     13428     13421     13430     13421     13423     13425     13421     13423     13426
     13421     13423     13427     13425     13423     13426     13425     13423     13427
     13426     13423     13427     13421     13430     13432     13439     13437     13444
     13439     13437     13446     13444     13437     13446     13437     13439     13441
     13437     13439     13442     13437     13439     13443     13441     13439     13442
     13441     13439     13443     13442     13439     13443     13437     13446     13448
     13455     13453     13460     13455     13453     13462     13460     13453     13462
     13453     13455     13457     13453     13455     13458     13453     13455     13459
     13457     13455     13458     13457     13455     13459     13458     13455     13459
     13453     13462     13464     13471     13469     13476     13471     13469     13478
     13476     13469     13478     13469     13471     13473     13469     13471     13474
     13469     13471     13475     13473     13471     13474     13473     13471     13475
     13474     13471     13475     13469     13478     13480     13487     13485     13492
     13487     13485     13494     13492     13485     13494     13485     13487     13489
     13485     13487     13490     13485     13487     13491     13489     13487     13490
     13489     13487     13491     13490     13487     13491     13485     13494     13496
     13503     13501     13508     13503     13501     13510     13508     13501     13510
     13501     13503     13505     13501     13503     13506     13501     13503     13507
     13505     13503     13506     13505     13503     13507     13506     13503     13507
     13501     13510     13512     13519     13517     13524     13519     13517     13526
     13524     13517     13526     13517     13519     13521     13517     13519     13522
     13517     13519     13523     13521     13519     13522     13521     13519     13523
     13522     13519     13523     13517     13526     13528     13535     13533     13540
     13535     13533     13542     13540     13533     13542     13533     13535     13537
     13533     13535     13538     13533     13535     13539     13537     13535     13538
     13537     13535     13539     13538     13535     13539     13533     13542     13544
     13551     13549     13556     13551     13549     13558     13556     13549     13558
     13549     13551     13553     13549     13551     13554     13549     13551     13555
     13553     13551     13554     13553     13551     13555     13554     13551     13555
     13549     13558     13560     13567     13565     13572     13567     13565     13574
     13572     13565     13574     13565     13567     13569     13565     13567     13570
     13565     13567     13571     13569     13567     13570     13569     13567     13571
     13570     13567     13571     13565     13574     13576     13583     13581     13588
     13583     13581     13590     13588     13581     13590     13581     13583     13585
     13581     13583     13586     13581     13583     13587     13585     13583     13586
     13585     13583     13587     13586     13583     13587     13581     13590     13592
     13599     13597     13604     13599     13597     13606     13604     13597     13606
     13597     13599     13601     13597     13599     13602     13597     13599     13603
     13601     13599     13602     13601     13599     13603     13602     13599     13603
     13597     13606     13608     13615     13613     13620     13615     13613     13622
     13620     13613     13622     13613     13615     13617     13613     13615     13618
     13613     13615     13619     13617     13615     13618     13617     13615     13619
     13618     13615     13619     13613     13622     13624     13631     13629     13636
     13631     13629     13638     13636     13629     13638     13629     13631     13633
     13629     13631     13634     13629     13631     13635     13633     13631     13634
     13633     13631     13635     13634     13631     13635     13629     13638     13640
     13647     13645     13652     13647     13645     13654     13652     13645     13654
     13645     13647     13649     13645     13647     13650     13645     13647     13651
     13649     13647     13650     13649     13647     13651     13650     13647     13651
     13645     13654     13656     13663     13661     13668     13663     13661     13670
     13668     13661     13670     13661     13663     13665     13661     13663     13666
     13661     13663     13667     13665     13663     13666     13665     13663     13667
     13666     13663     13667     13661     13670     13672     13679     13677     13684
     13679     13677     13686     13684     13677     13686     13677     13679     13681
     13677     13679     13682     13677     13679     13683     13681     13679     13682
     13681     13679     13683     13682     13679     13683     13677     13686     13688
     13695     13693     13700     13695     13693     13702     13700     13693     13702
     13693     13695     13697     13693     13695     13698     13693     13695     13699
     13697     13695     13698     13697     13695     13699     13698     13695     13699
     13693     13702     13704     13711     13709     13716     13711     13709     13718
     13716     13709     13718     13709     13711     13713     13709     13711     13714
     13709     13711     13715     13713     13711     13714     13713     13711     13715
     13714     13711     13715     13709     13718     13720     13727     13725     13732
     13727     13725     13734     13732     13725     13734     13725     13727     13729
     13725     13727     13730     13725     13727     13731     13729     13727     13730
     13729     13727     13731     13730     13727     13731     13725     13734     13736
     13743     13741     13748     13743     13741     13750     13748     13741     13750
     13741     13743     13745     13741     13743     13746     13741     13743     13747
     13745     13743     13746     13745     13743     13747     13746     13743     13747
     13741     13750     13752     13759     13757     13764     13759     13757     13766
     13764     13757     13766     13757     13759     13761     13757     13759     13762
     13757     13759     13763     13761     13759     13762     13761     13759     13763
     13762     13759     13763     13757     13766     13768     13775     13773     13780
     13775     13773     13782     13780     13773     13782     13773     13775     13777
     13773     13775     13778     13773     13775     13779     13777     13775     13778
     13777     13775     13779     13778     13775     13779     13773     13782     13784
     13791     13789     13796     13791     13789     13798     13796     13789     13798
     13789     13791     13793     13789     13791     13794     13789     13791     13795
     13793     13791     13794     13793     13791     13795     13794     13791     13795
     13789     13798     13800     13807     13805     13812     13807     13805     13814
     13812     13805     13814     13805     13807     13809     13805     13807     13810
     13805     13807     13811     13809     13807     13810     13809     13807     13811
     13810     13807     13811     13805     13814     13816     13823     13821     13828
     13823     13821     13830     13828     13821     13830     13821     13823     13825
     13821     13823     13826     13821     13823     13827     13825     13823     13826
     13825     13823     13827     13826     13823     13827     13821     13830     13832
     13839     13837     13844     13839     13837     13846     13844     13837     13846
     13837     13839     13841     13837     13839     13842     13837     13839     13843
     13841     13839     13842     13841     13839     13843     13842     13839     13843
     13837     13846     13848     13855     13853     13860     13855     13853     13862
     13860     13853     13862     13853     13855     13857     13853     13855     13858
     13853     13855     13859     13857     13855     13858     13857     13855     13859
     13858     13855     13859     13853     13862     13864     13871     13869     13876
     13871     13869     13878     13876     13869     13878     13869     13871     13873
     13869     13871     13874     13869     13871     13875     13873     13871     13874
     13873     13871     13875     13874     13871     13875     13869     13878     13880
     13887     13885     13892     13887     13885     13894     13892     13885     13894
     13885     13887     13889     13885     13887     13890     13885     13887     13891
     13889     13887     13890     13889     13887     13891     13890     13887     13891
     13885     13894     13896     13903     13901     13908     13903     13901     13910
     13908     13901     13910     13901     13903     13905     13901     13903     13906
     13901     13903     13907     13905     13903     13906     13905     13903     13907
     13906     13903     13907     13901     13910     13912     13919     13917     13924
     13919     13917     13926     13924     13917     13926     13917     13919     13921
     13917     13919     13922     13917     13919     13923     13921     13919     13922
     13921     13919     13923     13922     13919     13923     13917     13926     13928
     13935     13933     13940     13935     13933     13942     13940     13933     13942
     13933     13935     13937     13933     13935     13938     13933     13935     13939
     13937     13935     13938     13937     13935     13939     13938     13935     13939
     13933     13942     13944     13951     13949     13956     13951     13949     13958
     13956     13949     13958     13949     13951     13953     13949     13951     13954
     13949     13951     13955     13953     13951     13954     13953     13951     13955
     13954     13951     13955     13949     13958     13960     13967     13965     13972
     13967     13965     13974     13972     13965     13974     13965     13967     13969
     13965     13967     13970     13965     13967     13971     13969     13967     13970
     13969     13967     13971     13970     13967     13971     13965     13974     13976
     13983     13981     13988     13983     13981     13990     13988     13981     13990
     13981     13983     13985     13981     13983     13986     13981     13983     13987
     13985     13983     13986     13985     13983     13987     13986     13983     13987
     13981     13990     13992     13999     13997     14004     13999     13997     14006
     14004     13997     14006     13997     13999     14001     13997     13999     14002
     13997     13999     14003     14001     13999     14002     14001     13999     14003
     14002     13999     14003     13997     14006     14008     14015     14013     14020
     14015     14013     14022     14020     14013     14022     14013     14015     14017
     14013     14015     14018     14013     14015     14019     14017     14015     14018
     14017     14015     14019     14018     14015     14019     14013     14022     14024
     14031     14029     14036     14031     14029     14038     14036     14029     14038
     14029     14031     14033     14029     14031     14034     14029     14031     14035
     14033     14031     14034     14033     14031     14035     14034     14031     14035
     14029     14038     14040     14047     14045     14052     14047     14045     14054
     14052     14045     14054     14045     14047     14049     14045     14047     14050
     14045     14047     14051     14049     14047     14050     14049     14047     14051
     14050     14047     14051     14045     14054     14056     14063     14061     14068
     14063     14061     14070     14068     14061     14070     14061     14063     14065
     14061     14063     14066     14061     14063     14067     14065     14063     14066
     14065     14063     14067     14066     14063     14067     14061     14070     14072
     14079     14077     14084     14079     14077     14086     14084     14077     14086
     14077     14079     14081     14077     14079     14082     14077     14079     14083
     14081     14079     14082     14081     14079     14083     14082     14079     14083
     14077     14086     14088     14095     14093     14100     14095     14093     14102
     14100     14093     14102     14093     14095     14097     14093     14095     14098
     14093     14095     14099     14097     14095     14098     14097     14095     14099
     14098     14095     14099     14093     14102     14104     14111     14109     14116
     14111     14109     14118     14116     14109     14118     14109     14111     14113
     14109     14111     14114     14109     14111     14115     14113     14111     14114
     14113     14111     14115     14114     14111     14115     14109     14118     14120
     14127     14125     14132     14127     14125     14134     14132     14125     14134
     14125     14127     14129     14125     14127     14130     14125     14127     14131
     14129     14127     14130     14129     14127     14131     14130     14127     14131
     14125     14134     14136     14143     14141     14148     14143     14141     14150
     14148     14141     14150     14141     14143     14145     14141     14143     14146
     14141     14143     14147     14145     14143     14146     14145     14143     14147
     14146     14143     14147     14141     14150     14152     14159     14157     14164
     14159     14157     14166     14164     14157     14166     14157     14159     14161
     14157     14159     14162     14157     14159     14163     14161     14159     14162
     14161     14159     14163     14162     14159     14163     14157     14166     14168
     14175     14173     14180     14175     14173     14182     14180     14173     14182
     14173     14175     14177     14173     14175     14178     14173     14175     14179
     14177     14175     14178     14177     14175     14179     14178     14175     14179
     14173     14182     14184     14191     14189     14196     14191     14189     14198
     14196     14189     14198     14189     14191     14193     14189     14191     14194
     14189     14191     14195     14193     14191     14194     14193     14191     14195
     14194     14191     14195     14189     14198     14200     14207     14205     14212
     14207     14205     14214     14212     14205     14214     14205     14207     14209
     14205     14207     14210     14205     14207     14211     14209     14207     14210
     14209     14207     14211     14210     14207     14211     14205     14214     14216
     14223     14221     14228     14223     14221     14230     14228     14221     14230
     14221     14223     14225     14221     14223     14226     14221     14223     14227
     14225     14223     14226     14225     14223     14227     14226     14223     14227
     14221     14230     14232     14239     14237     14244     14239     14237     14246
     14244     14237     14246     14237     14239     14241     14237     14239     14242
     14237     14239     14243     14241     14239     14242     14241     14239     14243
     14242     14239     14243     14237     14246     14248     14255     14253     14260
     14255     14253     14262     14260     14253     14262     14253     14255     14257
     14253     14255     14258     14253     14255     14259     14257     14255     14258
     14257     14255     14259     14258     14255     14259     14253     14262     14264
     14271     14269     14276     14271     14269     14278     14276     14269     14278
     14269     14271     14273     14269     14271     14274     14269     14271     14275
     14273     14271     14274     14273     14271     14275     14274     14271     14275
     14269     14278     14280     14287     14285     14292     14287     14285     14294
     14292     14285     14294     14285     14287     14289     14285     14287     14290
     14285     14287     14291     14289     14287     14290     14289     14287     14291
     14290     14287     14291     14285     14294     14296     14303     14301     14308
     14303     14301     14310     14308     14301     14310     14301     14303     14305
     14301     14303     14306     14301     14303     14307     14305     14303     14306
     14305     14303     14307     14306     14303     14307     14301     14310     14312
     14319     14317     14324     14319     14317     14326     14324     14317     14326
     14317     14319     14321     14317     14319     14322     14317     14319     14323
     14321     14319     14322     14321     14319     14323     14322     14319     14323
     14317     14326     14328     14335     14333     14340     14335     14333     14342
     14340     14333     14342     14333     14335     14337     14333     14335     14338
     14333     14335     14339     14337     14335     14338     14337     14335     14339
     14338     14335     14339     14333     14342     14344     14351     14349     14356
     14351     14349     14358     14356     14349     14358     14349     14351     14353
     14349     14351     14354     14349     14351     14355     14353     14351     14354
     14353     14351     14355     14354     14351     14355     14349     14358     14360
     14367     14365     14372     14367     14365     14374     14372     14365     14374
     14365     14367     14369     14365     14367     14370     14365     14367     14371
     14369     14367     14370     14369     14367     14371     14370     14367     14371
     14365     14374     14376     14383     14381     14388     14383     14381     14390
     14388     14381     14390     14381     14383     14385     14381     14383     14386
     14381     14383     14387     14385     14383     14386     14385     14383     14387
     14386     14383     14387     14381     14390     14392     14399     14397     14404
     14399     14397     14406     14404     14397     14406     14397     14399     14401
     14397     14399     14402     14397     14399     14403     14401     14399     14402
     14401     14399     14403     14402     14399     14403     14397     14406     14408
     14415     14413     14420     14415     14413     14422     14420     14413     14422
     14413     14415     14417     14413     14415     14418     14413     14415     14419
     14417     14415     14418     14417     14415     14419     14418     14415     14419
     14413     14422     14424     14431     14429     14436     14431     14429     14438
     14436     14429     14438     14429     14431     14433     14429     14431     14434
     14429     14431     14435     14433     14431     14434     14433     14431     14435
     14434     14431     14435     14429     14438     14440     14447     14445     14452
     14447     14445     14454     14452     14445     14454     14445     14447     14449
     14445     14447     14450     14445     14447     14451     14449     14447     14450
     14449     14447     14451     14450     14447     14451     14445     14454     14456
     14463     14461     14468     14463     14461     14470     14468     14461     14470
     14461     14463     14465     14461     14463     14466     14461     14463     14467
     14465     14463     14466     14465     14463     14467     14466     14463     14467
     14461     14470     14472     14479     14477     14484     14479     14477     14486
     14484     14477     14486     14477     14479     14481     14477     14479     14482
     14477     14479     14483     14481     14479     14482     14481     14479     14483
     14482     14479     14483     14477     14486     14488     14495     14493     14500
     14495     14493     14502     14500     14493     14502     14493     14495     14497
     14493     14495     14498     14493     14495     14499     14497     14495     14498
     14497     14495     14499     14498     14495     14499     14493     14502     14504
     14511     14509     14516     14511     14509     14518     14516     14509     14518
     14509     14511     14513     14509     14511     14514     14509     14511     14515
     14513     14511     14514     14513     14511     14515     14514     14511     14515
     14509     14518     14520     14527     14525     14532     14527     14525     14534
     14532     14525     14534     14525     14527     14529     14525     14527     14530
     14525     14527     14531     14529     14527     14530     14529     14527     14531
     14530     14527     14531     14525     14534     14536     14543     14541     14548
     14543     14541     14550     14548     14541     14550     14541     14543     14545
     14541     14543     14546     14541     14543     14547     14545     14543     14546
     14545     14543     14547     14546     14543     14547     14541     14550     14552
     14559     14557     14564     14559     14557     14566     14564     14557     14566
     14557     14559     14561     14557     14559     14562     14557     14559     14563
     14561     14559     14562     14561     14559     14563     14562     14559     14563
     14557     14566     14568     14575     14573     14580     14575     14573     14582
     14580     14573     14582     14573     14575     14577     14573     14575     14578
     14573     14575     14579     14577     14575     14578     14577     14575     14579
     14578     14575     14579     14573     14582     14584     14591     14589     14596
     14591     14589     14598     14596     14589     14598     14589     14591     14593
     14589     14591     14594     14589     14591     14595     14593     14591     14594
     14593     14591     14595     14594     14591     14595     14589     14598     14600
     14607     14605     14612     14607     14605     14614     14612     14605     14614
     14605     14607     14609     14605     14607     14610     14605     14607     14611
     14609     14607     14610     14609     14607     14611     14610     14607     14611
     14605     14614     14616     14623     14621     14628     14623     14621     14630
     14628     14621     14630     14621     14623     14625     14621     14623     14626
     14621     14623     14627     14625     14623     14626     14625     14623     14627
     14626     14623     14627     14621     14630     14632     14639     14637     14644
     14639     14637     14646     14644     14637     14646     14637     14639     14641
     14637     14639     14642     14637     14639     14643     14641     14639     14642
     14641     14639     14643     14642     14639     14643     14637     14646     14648
     14655     14653     14660     14655     14653     14662     14660     14653     14662
     14653     14655     14657     14653     14655     14658     14653     14655     14659
     14657     14655     14658     14657     14655     14659     14658     14655     14659
     14653     14662     14664     14671     14669     14676     14671     14669     14678
     14676     14669     14678     14669     14671     14673     14669     14671     14674
     14669     14671     14675     14673     14671     14674     14673     14671     14675
     14674     14671     14675     14669     14678     14680     14687     14685     14692
     14687     14685     14694     14692     14685     14694     14685     14687     14689
     14685     14687     14690     14685     14687     14691     14689     14687     14690
     14689     14687     14691     14690     14687     14691     14685     14694     14696
     14703     14701     14708     14703     14701     14710     14708     14701     14710
     14701     14703     14705     14701     14703     14706     14701     14703     14707
     14705     14703     14706     14705     14703     14707     14706     14703     14707
     14701     14710     14712     14719     14717     14724     14719     14717     14726
     14724     14717     14726     14717     14719     14721     14717     14719     14722
     14717     14719     14723     14721     14719     14722     14721     14719     14723
     14722     14719     14723     14717     14726     14728     14735     14733     14740
     14735     14733     14742     14740     14733     14742     14733     14735     14737
     14733     14735     14738     14733     14735     14739     14737     14735     14738
     14737     14735     14739     14738     14735     14739     14733     14742     14744
     14751     14749     14756     14751     14749     14758     14756     14749     14758
     14749     14751     14753     14749     14751     14754     14749     14751     14755
     14753     14751     14754     14753     14751     14755     14754     14751     14755
     14749     14758     14760     14767     14765     14772     14767     14765     14774
     14772     14765     14774     14765     14767     14769     14765     14767     14770
     14765     14767     14771     14769     14767     14770     14769     14767     14771
     14770     14767     14771     14765     14774     14776     14783     14781     14788
     14783     14781     14790     14788     14781     14790     14781     14783     14785
     14781     14783     14786     14781     14783     14787     14785     14783     14786
     14785     14783     14787     14786     14783     14787     14781     14790     14792
     14799     14797     14804     14799     14797     14806     14804     14797     14806
     14797     14799     14801     14797     14799     14802     14797     14799     14803
     14801     14799     14802     14801     14799     14803     14802     14799     14803
     14797     14806     14808     14815     14813     14820     14815     14813     14822
     14820     14813     14822     14813     14815     14817     14813     14815     14818
     14813     14815     14819     14817     14815     14818     14817     14815     14819
     14818     14815     14819     14813     14822     14824     14831     14829     14836
     14831     14829     14838     14836     14829     14838     14829     14831     14833
     14829     14831     14834     14829     14831     14835     14833     14831     14834
     14833     14831     14835     14834     14831     14835     14829     14838     14840
     14847     14845     14852     14847     14845     14854     14852     14845     14854
     14845     14847     14849     14845     14847     14850     14845     14847     14851
     14849     14847     14850     14849     14847     14851     14850     14847     14851
     14845     14854     14856     14863     14861     14868     14863     14861     14870
     14868     14861     14870     14861     14863     14865     14861     14863     14866
     14861     14863     14867     14865     14863     14866     14865     14863     14867
     14866     14863     14867     14861     14870     14872     14879     14877     14884
     14879     14877     14886     14884     14877     14886     14877     14879     14881
     14877     14879     14882     14877     14879     14883     14881     14879     14882
     14881     14879     14883     14882     14879     14883     14877     14886     14888
     14895     14893     14900     14895     14893     14902     14900     14893     14902
     14893     14895     14897     14893     14895     14898     14893     14895     14899
     14897     14895     14898     14897     14895     14899     14898     14895     14899
     14893     14902     14904     14911     14909     14916     14911     14909     14918
     14916     14909     14918     14909     14911     14913     14909     14911     14914
     14909     14911     14915     14913     14911     14914     14913     14911     14915
     14914     14911     14915     14909     14918     14920     14927     14925     14932
     14927     14925     14934     14932     14925     14934     14925     14927     14929
     14925     14927     14930     14925     14927     14931     14929     14927     14930
     14929     14927     14931     14930     14927     14931     14925     14934     14936
     14943     14941     14948     14943     14941     14950     14948     14941     14950
     14941     14943     14945     14941     14943     14946     14941     14943     14947
     14945     14943     14946     14945     14943     14947     14946     14943     14947
     14941     14950     14952     14959     14957     14964     14959     14957     14966
     14964     14957     14966     14957     14959     14961     14957     14959     14962
     14957     14959     14963     14961     14959     14962     14961     14959     14963
     14962     14959     14963     14957     14966     14968     14975     14973     14980
     14975     14973     14982     14980     14973     14982     14973     14975     14977
     14973     14975     14978     14973     14975     14979     14977     14975     14978
     14977     14975     14979     14978     14975     14979     14973     14982     14984
     14991     14989     14996     14991     14989     14998     14996     14989     14998
     14989     14991     14993     14989     14991     14994     14989     14991     14995
     14993     14991     14994     14993     14991     14995     14994     14991     14995
     14989     14998     15000     15007     15005     15012     15007     15005     15014
     15012     15005     15014     15005     15007     15009     15005     15007     15010
     15005     15007     15011     15009     15007     15010     15009     15007     15011
     15010     15007     15011     15005     15014     15016     15023     15021     15028
     15023     15021     15030     15028     15021     15030     15021     15023     15025
     15021     15023     15026     15021     15023     15027     15025     15023     15026
     15025     15023     15027     15026     15023     15027     15021     15030     15032
     15039     15037     15044     15039     15037     15046     15044     15037     15046
     15037     15039     15041     15037     15039     15042     15037     15039     15043
     15041     15039     15042     15041     15039     15043     15042     15039     15043
     15037     15046     15048     15055     15053     15060     15055     15053     15062
     15060     15053     15062     15053     15055     15057     15053     15055     15058
     15053     15055     15059     15057     15055     15058     15057     15055     15059
     15058     15055     15059     15053     15062     15064     15071     15069     15076
     15071     15069     15078     15076     15069     15078     15069     15071     15073
     15069     15071     15074     15069     15071     15075     15073     15071     15074
     15073     15071     15075     15074     15071     15075     15069     15078     15080
     15087     15085     15092     15087     15085     15094     15092     15085     15094
     15085     15087     15089     15085     15087     15090     15085     15087     15091
     15089     15087     15090     15089     15087     15091     15090     15087     15091
     15085     15094     15096     15103     15101     15108     15103     15101     15110
     15108     15101     15110     15101     15103     15105     15101     15103     15106
     15101     15103     15107     15105     15103     15106     15105     15103     15107
     15106     15103     15107     15101     15110     15112     15119     15117     15124
     15119     15117     15126     15124     15117     15126     15117     15119     15121
     15117     15119     15122     15117     15119     15123     15121     15119     15122
     15121     15119     15123     15122     15119     15123     15117     15126     15128
     15135     15133     15140     15135     15133     15142     15140     15133     15142
     15133     15135     15137     15133     15135     15138     15133     15135     15139
     15137     15135     15138     15137     15135     15139     15138     15135     15139
     15133     15142     15144     15151     15149     15156     15151     15149     15158
     15156     15149     15158     15149     15151     15153     15149     15151     15154
     15149     15151     15155     15153     15151     15154     15153     15151     15155
     15154     15151     15155     15149     15158     15160     15167     15165     15172
     15167     15165     15174     15172     15165     15174     15165     15167     15169
     15165     15167     15170     15165     15167     15171     15169     15167     15170
     15169     15167     15171     15170     15167     15171     15165     15174     15176
     15183     15181     15188     15183     15181     15190     15188     15181     15190
     15181     15183     15185     15181     15183     15186     15181     15183     15187
     15185     15183     15186     15185     15183     15187     15186     15183     15187
     15181     15190     15192     15199     15197     15204     15199     15197     15206
     15204     15197     15206     15197     15199     15201     15197     15199     15202
     15197     15199     15203     15201     15199     15202     15201     15199     15203
     15202     15199     15203     15197     15206     15208     15215     15213     15220
     15215     15213     15222     15220     15213     15222     15213     15215     15217
     15213     15215     15218     15213     15215     15219     15217     15215     15218
     15217     15215     15219     15218     15215     15219     15213     15222     15224
     15231     15229     15236     15231     15229     15238     15236     15229     15238
     15229     15231     15233     15229     15231     15234     15229     15231     15235
     15233     15231     15234     15233     15231     15235     15234     15231     15235
     15229     15238     15240     15247     15245     15252     15247     15245     15254
     15252     15245     15254     15245     15247     15249     15245     15247     15250
     15245     15247     15251     15249     15247     15250     15249     15247     15251
     15250     15247     15251     15245     15254     15256     15263     15261     15268
     15263     15261     15270     15268     15261     15270     15261     15263     15265
     15261     15263     15266     15261     15263     15267     15265     15263     15266
     15265     15263     15267     15266     15263     15267     15261     15270     15272
     15279     15277     15284     15279     15277     15286     15284     15277     15286
     15277     15279     15281     15277     15279     15282     15277     15279     15283
     15281     15279     15282     15281     15279     15283     15282     15279     15283
     15277     15286     15288     15295     15293     15300     15295     15293     15302
     15300     15293     15302     15293     15295     15297     15293     15295     15298
     15293     15295     15299     15297     15295     15298     15297     15295     15299
     15298     15295     15299     15293     15302     15304     15311     15309     15316
     15311     15309     15318     15316     15309     15318     15309     15311     15313
     15309     15311     15314     15309     15311     15315     15313     15311     15314
     15313     15311     15315     15314     15311     15315     15309     15318     15320
     15327     15325     15332     15327     15325     15334     15332     15325     15334
     15325     15327     15329     15325     15327     15330     15325     15327     15331
     15329     15327     15330     15329     15327     15331     15330     15327     15331
     15325     15334     15336     15343     15341     15348     15343     15341     15350
     15348     15341     15350     15341     15343     15345     15341     15343     15346
     15341     15343     15347     15345     15343     15346     15345     15343     15347
     15346     15343     15347     15341     15350     15352     15359     15357     15364
     15359     15357     15366     15364     15357     15366     15357     15359     15361
     15357     15359     15362     15357     15359     15363     15361     15359     15362
     15361     15359     15363     15362     15359     15363     15357     15366     15368
     15375     15373     15380     15375     15373     15382     15380     15373     15382
     15373     15375     15377     15373     15375     15378     15373     15375     15379
     15377     15375     15378     15377     15375     15379     15378     15375     15379
     15373     15382     15384     15391     15389     15396     15391     15389     15398
     15396     15389     15398     15389     15391     15393     15389     15391     15394
     15389     15391     15395     15393     15391     15394     15393     15391     15395
     15394     15391     15395     15389     15398     15400     15407     15405     15412
     15407     15405     15414     15412     15405     15414     15405     15407     15409
     15405     15407     15410     15405     15407     15411     15409     15407     15410
     15409     15407     15411     15410     15407     15411     15405     15414     15416
     15423     15421     15428     15423     15421     15430     15428     15421     15430
     15421     15423     15425     15421     15423     15426     15421     15423     15427
     15425     15423     15426     15425     15423     15427     15426     15423     15427
     15421     15430     15432     15439     15437     15444     15439     15437     15446
     15444     15437     15446     15437     15439     15441     15437     15439     15442
     15437     15439     15443     15441     15439     15442     15441     15439     15443
     15442     15439     15443     15437     15446     15448     15455     15453     15460
     15455     15453     15462     15460     15453     15462     15453     15455     15457
     15453     15455     15458     15453     15455     15459     15457     15455     15458
     15457     15455     15459     15458     15455     15459     15453     15462     15464
     15471     15469     15476     15471     15469     15478     15476     15469     15478
     15469     15471     15473     15469     15471     15474     15469     15471     15475
     15473     15471     15474     15473     15471     15475     15474     15471     15475
     15469     15478     15480     15487     15485     15492     15487     15485     15494
     15492     15485     15494     15485     15487     15489     15485     15487     15490
     15485     15487     15491     15489     15487     15490     15489     15487     15491
     15490     15487     15491     15485     15494     15496     15503     15501     15508
     15503     15501     15510     15508     15501     15510     15501     15503     15505
     15501     15503     15506     15501     15503     15507     15505     15503     15506
     15505     15503     15507     15506     15503     15507     15501     15510     15512
     15519     15517     15524     15519     15517     15526     15524     15517     15526
     15517     15519     15521     15517     15519     15522     15517     15519     15523
     15521     15519     15522     15521     15519     15523     15522     15519     15523
     15517     15526     15528     15535     15533     15540     15535     15533     15542
     15540     15533     15542     15533     15535     15537     15533     15535     15538
     15533     15535     15539     15537     15535     15538     15537     15535     15539
     15538     15535     15539     15533     15542     15544     15551     15549     15556
     15551     15549     15558     15556     15549     15558     15549     15551     15553
     15549     15551     15554     15549     15551     15555     15553     15551     15554
     15553     15551     15555     15554     15551     15555     15549     15558     15560
     15567     15565     15572     15567     15565     15574     15572     15565     15574
     15565     15567     15569     15565     15567     15570     15565     15567     15571
     15569     15567     15570     15569     15567     15571     15570     15567     15571
     15565     15574     15576     15583     15581     15588     15583     15581     15590
     15588     15581     15590     15581     15583     15585     15581     15583     15586
     15581     15583     15587     15585     15583     15586     15585     15583     15587
     15586     15583     15587     15581     15590     15592     15599     15597     15604
     15599     15597     15606     15604     15597     15606     15597     15599     15601
     15597     15599     15602     15597     15599     15603     15601     15599     15602
     15601     15599     15603     15602     15599     15603     15597     15606     15608
     15615     15613     15620     15615     15613     15622     15620     15613     15622
     15613     15615     15617     15613     15615     15618     15613     15615     15619
     15617     15615     15618     15617     15615     15619     15618     15615     15619
     15613     15622     15624     15631     15629     15636     15631     15629     15638
     15636     15629     15638     15629     15631     15633     15629     15631     15634
     15629     15631     15635     15633     15631     15634     15633     15631     15635
     15634     15631     15635     15629     15638     15640     15647     15645     15652
     15647     15645     15654     15652     15645     15654     15645     15647     15649
     15645     15647     15650     15645     15647     15651     15649     15647     15650
     15649     15647     15651     15650     15647     15651     15645     15654     15656
     15663     15661     15668     15663     15661     15670     15668     15661     15670
     15661     15663     15665     15661     15663     15666     15661     15663     15667
     15665     15663     15666     15665     15663     15667     15666     15663     15667
     15661     15670     15672     15679     15677     15684     15679     15677     15686
     15684     15677     15686     15677     15679     15681     15677     15679     15682
     15677     15679     15683     15681     15679     15682     15681     15679     15683
     15682     15679     15683     15677     15686     15688     15695     15693     15700
     15695     15693     15702     15700     15693     15702     15693     15695     15697
     15693     15695     15698     15693     15695     15699     15697     15695     15698
     15697     15695     15699     15698     15695     15699     15693     15702     15704
     15711     15709     15716     15711     15709     15718     15716     15709     15718
     15709     15711     15713     15709     15711     15714     15709     15711     15715
     15713     15711     15714     15713     15711     15715     15714     15711     15715
     15709     15718     15720     15727     15725     15732     15727     15725     15734
     15732     15725     15734     15725     15727     15729     15725     15727     15730
     15725     15727     15731     15729     15727     15730     15729     15727     15731
     15730     15727     15731     15725     15734     15736     15743     15741     15748
     15743     15741     15750     15748     15741     15750     15741     15743     15745
     15741     15743     15746     15741     15743     15747     15745     15743     15746
     15745     15743     15747     15746     15743     15747     15741     15750     15752
     15759     15757     15764     15759     15757     15766     15764     15757     15766
     15757     15759     15761     15757     15759     15762     15757     15759     15763
     15761     15759     15762     15761     15759     15763     15762     15759     15763
     15757     15766     15768     15775     15773     15780     15775     15773     15782
     15780     15773     15782     15773     15775     15777     15773     15775     15778
     15773     15775     15779     15777     15775     15778     15777     15775     15779
     15778     15775     15779     15773     15782     15784     15791     15789     15796
     15791     15789     15798     15796     15789     15798     15789     15791     15793
     15789     15791     15794     15789     15791     15795     15793     15791     15794
     15793     15791     15795     15794     15791     15795     15789     15798     15800
     15807     15805     15812     15807     15805     15814     15812     15805     15814
     15805     15807     15809     15805     15807     15810     15805     15807     15811
     15809     15807     15810     15809     15807     15811     15810     15807     15811
     15805     15814     15816     15823     15821     15828     15823     15821     15830
     15828     15821     15830     15821     15823     15825     15821     15823     15826
     15821     15823     15827     15825     15823     15826     15825     15823     15827
     15826     15823     15827     15821     15830     15832     15839     15837     15844
     15839     15837     15846     15844     15837     15846     15837     15839     15841
     15837     15839     15842     15837     15839     15843     15841     15839     15842
     15841     15839     15843     15842     15839     15843     15837     15846     15848
     15855     15853     15860     15855     15853     15862     15860     15853     15862
     15853     15855     15857     15853     15855     15858     15853     15855     15859
     15857     15855     15858     15857     15855     15859     15858     15855     15859
     15853     15862     15864     15871     15869     15876     15871     15869     15878
     15876     15869     15878     15869     15871     15873     15869     15871     15874
     15869     15871     15875     15873     15871     15874     15873     15871     15875
     15874     15871     15875     15869     15878     15880     15887     15885     15892
     15887     15885     15894     15892     15885     15894     15885     15887     15889
     15885     15887     15890     15885     15887     15891     15889     15887     15890
     15889     15887     15891     15890     15887     15891     15885     15894     15896
     15903     15901     15908     15903     15901     15910     15908     15901     15910
     15901     15903     15905     15901     15903     15906     15901     15903     15907
     15905     15903     15906     15905     15903     15907     15906     15903     15907
     15901     15910     15912     15919     15917     15924     15919     15917     15926
     15924     15917     15926     15917     15919     15921     15917     15919     15922
     15917     15919     15923     15921     15919     15922     15921     15919     15923
     15922     15919     15923     15917     15926     15928     15935     15933     15940
     15935     15933     15942     15940     15933     15942     15933     15935     15937
     15933     15935     15938     15933     15935     15939     15937     15935     15938
     15937     15935     15939     15938     15935     15939     15933     15942     15944
     15951     15949     15956     15951     15949     15958     15956     15949     15958
     15949     15951     15953     15949     15951     15954     15949     15951     15955
     15953     15951     15954     15953     15951     15955     15954     15951     15955
     15949     15958     15960     15967     15965     15972     15967     15965     15974
     15972     15965     15974     15965     15967     15969     15965     15967     15970
     15965     15967     15971     15969     15967     15970     15969     15967     15971
     15970     15967     15971     15965     15974     15976     15983     15981     15988
     15983     15981     15990     15988     15981     15990     15981     15983     15985
     15981     15983     15986     15981     15983     15987     15985     15983     15986
     15985     15983     15987     15986     15983     15987     15981     15990     15992
     15999     15997     16004     15999     15997     16006     16004     15997     16006
     15997     15999     16001     15997     15999     16002     15997     15999     16003
     16001     15999     16002     16001     15999     16003     16002     15999     16003
     15997     16006     16008     16015     16013     16020     16015     16013     16022
     16020     16013     16022     16013     16015     16017     16013     16015     16018
     16013     16015     16019     16017     16015     16018     16017     16015     16019
     16018     16015     16019     16013     16022     16024     16031     16029     16036
     16031     16029     16038     16036     16029     16038     16029     16031     16033
     16029     16031     16034     16029     16031     16035     16033     16031     16034
     16033     16031     16035     16034     16031     16035     16029     16038     16040
     16047     16045     16052     16047     16045     16054     16052     16045     16054
     16045     16047     16049     16045     16047     16050     16045     16047     16051
     16049     16047     16050     16049     16047     16051     16050     16047     16051
     16045     16054     16056     16063     16061     16068     16063     16061     16070
     16068     16061     16070     16061     16063     16065     16061     16063     16066
     16061     16063     16067     16065     16063     16066     16065     16063     16067
     16066     16063     16067     16061     16070     16072     16079     16077     16084
     16079     16077     16086     16084     16077     16086     16077     16079     16081
     16077     16079     16082     16077     16079     16083     16081     16079     16082
     16081     16079     16083     16082     16079     16083     16077     16086     16088
     16095     16093     16100     16095     16093     16102     16100     16093     16102
     16093     16095     16097     16093     16095     16098     16093     16095     16099
     16097     16095     16098     16097     16095     16099     16098     16095     16099
     16093     16102     16104     16111     16109     16116     16111     16109     16118
     16116     16109     16118     16109     16111     16113     16109     16111     16114
     16109     16111     16115     16113     16111     16114     16113     16111     16115
     16114     16111     16115     16109     16118     16120     16127     16125     16132
     16127     16125     16134     16132     16125     16134     16125     16127     16129
     16125     16127     16130     16125     16127     16131     16129     16127     16130
     16129     16127     16131     16130     16127     16131     16125     16134     16136
     16143     16141     16148     16143     16141     16150     16148     16141     16150
     16141     16143     16145     16141     16143     16146     16141     16143     16147
     16145     16143     16146     16145     16143     16147     16146     16143     16147
     16141     16150     16152     16159     16157     16164     16159     16157     16166
     16164     16157     16166     16157     16159     16161     16157     16159     16162
     16157     16159     16163     16161     16159     16162     16161     16159     16163
     16162     16159     16163     16157     16166     16168     16175     16173     16180
     16175     16173     16182     16180     16173     16182     16173     16175     16177
     16173     16175     16178     16173     16175     16179     16177     16175     16178
     16177     16175     16179     16178     16175     16179     16173     16182     16184
     16191     16189     16196     16191     16189     16198     16196     16189     16198
     16189     16191     16193     16189     16191     16194     16189     16191     16195
     16193     16191     16194     16193     16191     16195     16194     16191     16195
     16189     16198     16200     16207     16205     16212     16207     16205     16214
     16212     16205     16214     16205     16207     16209     16205     16207     16210
     16205     16207     16211     16209     16207     16210     16209     16207     16211
     16210     16207     16211     16205     16214     16216     16223     16221     16228
     16223     16221     16230     16228     16221     16230     16221     16223     16225
     16221     16223     16226     16221     16223     16227     16225     16223     16226
     16225     16223     16227     16226     16223     16227     16221     16230     16232
     16239     16237     16244     16239     16237     16246     16244     16237     16246
     16237     16239     16241     16237     16239     16242     16237     16239     16243
     16241     16239     16242     16241     16239     16243     16242     16239     16243
     16237     16246     16248     16255     16253     16260     16255     16253     16262
     16260     16253     16262     16253     16255     16257     16253     16255     16258
     16253     16255     16259     16257     16255     16258     16257     16255     16259
     16258     16255     16259     16253     16262     16264     16271     16269     16276
     16271     16269     16278     16276     16269     16278     16269     16271     16273
     16269     16271     16274     16269     16271     16275     16273     16271     16274
     16273     16271     16275     16274     16271     16275     16269     16278     16280
     16287     16285     16292     16287     16285     16294     16292     16285     16294
     16285     16287     16289     16285     16287     16290     16285     16287     16291
     16289     16287     16290     16289     16287     16291     16290     16287     16291
     16285     16294     16296     16303     16301     16308     16303     16301     16310
     16308     16301     16310     16301     16303     16305     16301     16303     16306
     16301     16303     16307     16305     16303     16306     16305     16303     16307
     16306     16303     16307     16301     16310     16312     16319     16317     16324
     16319     16317     16326     16324     16317     16326     16317     16319     16321
     16317     16319     16322     16317     16319     16323     16321     16319     16322
     16321     16319     16323     16322     16319     16323     16317     16326     16328
     16335     16333     16340     16335     16333     16342     16340     16333     16342
     16333     16335     16337     16333     16335     16338     16333     16335     16339
     16337     16335     16338     16337     16335     16339     16338     16335     16339
     16333     16342     16344     16351     16349     16356     16351     16349     16358
     16356     16349     16358     16349     16351     16353     16349     16351     16354
     16349     16351     16355     16353     16351     16354     16353     16351     16355
     16354     16351     16355     16349     16358     16360     16367     16365     16372
     16367     16365     16374     16372     16365     16374     16365     16367     16369
     16365     16367     16370     16365     16367     16371     16369     16367     16370
     16369     16367     16371     16370     16367     16371     16365     16374     16376
     16383     16381     16388     16383     16381     16390     16388     16381     16390
     16381     16383     16385     16381     16383     16386     16381     16383     16387
     16385     16383     16386     16385     16383     16387     16386     16383     16387
     16381     16390     16392     16399     16397     16404     16399     16397     16406
     16404     16397     16406     16397     16399     16401     16397     16399     16402
     16397     16399     16403     16401     16399     16402     16401     16399     16403
     16402     16399     16403     16397     16406     16408     16415     16413     16420
     16415     16413     16422     16420     16413     16422     16413     16415     16417
     16413     16415     16418     16413     16415     16419     16417     16415     16418
     16417     16415     16419     16418     16415     16419     16413     16422     16424
     16431     16429     16436     16431     16429     16438     16436     16429     16438
     16429     16431     16433     16429     16431     16434     16429     16431     16435
     16433     16431     16434     16433     16431     16435     16434     16431     16435
     16429     16438     16440     16447     16445     16452     16447     16445     16454
     16452     16445     16454     16445     16447     16449     16445     16447     16450
     16445     16447     16451     16449     16447     16450     16449     16447     16451
     16450     16447     16451     16445     16454     16456     16463     16461     16468
     16463     16461     16470     16468     16461     16470     16461     16463     16465
     16461     16463     16466     16461     16463     16467     16465     16463     16466
     16465     16463     16467     16466     16463     16467     16461     16470     16472
     16479     16477     16484     16479     16477     16486     16484     16477     16486
     16477     16479     16481     16477     16479     16482     16477     16479     16483
     16481     16479     16482     16481     16479     16483     16482     16479     16483
     16477     16486     16488     16495     16493     16500     16495     16493     16502
     16500     16493     16502     16493     16495     16497     16493     16495     16498
     16493     16495     16499     16497     16495     16498     16497     16495     16499
     16498     16495     16499     16493     16502     16504     16511     16509     16516
     16511     16509     16518     16516     16509     16518     16509     16511     16513
     16509     16511     16514     16509     16511     16515     16513     16511     16514
     16513     16511     16515     16514     16511     16515     16509     16518     16520
     16527     16525     16532     16527     16525     16534     16532     16525     16534
     16525     16527     16529     16525     16527     16530     16525     16527     16531
     16529     16527     16530     16529     16527     16531     16530     16527     16531
     16525     16534     16536     16543     16541     16548     16543     16541     16550
     16548     16541     16550     16541     16543     16545     16541     16543     16546
     16541     16543     16547     16545     16543     16546     16545     16543     16547
     16546     16543     16547     16541     16550     16552     16559     16557     16564
     16559     16557     16566     16564     16557     16566     16557     16559     16561
     16557     16559     16562     16557     16559     16563     16561     16559     16562
     16561     16559     16563     16562     16559     16563     16557     16566     16568
     16575     16573     16580     16575     16573     16582     16580     16573     16582
     16573     16575     16577     16573     16575     16578     16573     16575     16579
     16577     16575     16578     16577     16575     16579     16578     16575     16579
     16573     16582     16584     16591     16589     16596     16591     16589     16598
     16596     16589     16598     16589     16591     16593     16589     16591     16594
     16589     16591     16595     16593     16591     16594     16593     16591     16595
     16594     16591     16595     16589     16598     16600     16607     16605     16612
     16607     16605     16614     16612     16605     16614     16605     16607     16609
     16605     16607     16610     16605     16607     16611     16609     16607     16610
     16609     16607     16611     16610     16607     16611     16605     16614     16616
     16623     16621     16628     16623     16621     16630     16628     16621     16630
     16621     16623     16625     16621     16623     16626     16621     16623     16627
     16625     16623     16626     16625     16623     16627     16626     16623     16627
     16621     16630     16632     16639     16637     16644     16639     16637     16646
     16644     16637     16646     16637     16639     16641     16637     16639     16642
     16637     16639     16643     16641     16639     16642     16641     16639     16643
     16642     16639     16643     16637     16646     16648     16655     16653     16660
     16655     16653     16662     16660     16653     16662     16653     16655     16657
     16653     16655     16658     16653     16655     16659     16657     16655     16658
     16657     16655     16659     16658     16655     16659     16653     16662     16664
     16671     16669     16676     16671     16669     16678     16676     16669     16678
     16669     16671     16673     16669     16671     16674     16669     16671     16675
     16673     16671     16674     16673     16671     16675     16674     16671     16675
     16669     16678     16680     16687     16685     16692     16687     16685     16694
     16692     16685     16694     16685     16687     16689     16685     16687     16690
     16685     16687     16691     16689     16687     16690     16689     16687     16691
     16690     16687     16691     16685     16694     16696     16703     16701     16708
     16703     16701     16710     16708     16701     16710     16701     16703     16705
     16701     16703     16706     16701     16703     16707     16705     16703     16706
     16705     16703     16707     16706     16703     16707     16701     16710     16712
     16719     16717     16724     16719     16717     16726     16724     16717     16726
     16717     16719     16721     16717     16719     16722     16717     16719     16723
     16721     16719     16722     16721     16719     16723     16722     16719     16723
     16717     16726     16728     16735     16733     16740     16735     16733     16742
     16740     16733     16742     16733     16735     16737     16733     16735     16738
     16733     16735     16739     16737     16735     16738     16737     16735     16739
     16738     16735     16739     16733     16742     16744     16751     16749     16756
     16751     16749     16758     16756     16749     16758     16749     16751     16753
     16749     16751     16754     16749     16751     16755     16753     16751     16754
     16753     16751     16755     16754     16751     16755     16749     16758     16760
     16767     16765     16772     16767     16765     16774     16772     16765     16774
     16765     16767     16769     16765     16767     16770     16765     16767     16771
     16769     16767     16770     16769     16767     16771     16770     16767     16771
     16765     16774     16776     16783     16781     16788     16783     16781     16790
     16788     16781     16790     16781     16783     16785     16781     16783     16786
     16781     16783     16787     16785     16783     16786     16785     16783     16787
     16786     16783     16787     16781     16790     16792     16799     16797     16804
     16799     16797     16806     16804     16797     16806     16797     16799     16801
     16797     16799     16802     16797     16799     16803     16801     16799     16802
     16801     16799     16803     16802     16799     16803     16797     16806     16808
     16815     16813     16820     16815     16813     16822     16820     16813     16822
     16813     16815     16817     16813     16815     16818     16813     16815     16819
     16817     16815     16818     16817     16815     16819     16818     16815     16819
     16813     16822     16824     16831     16829     16836     16831     16829     16838
     16836     16829     16838     16829     16831     16833     16829     16831     16834
     16829     16831     16835     16833     16831     16834     16833     16831     16835
     16834     16831     16835     16829     16838     16840     16847     16845     16852
     16847     16845     16854     16852     16845     16854     16845     16847     16849
     16845     16847     16850     16845     16847     16851     16849     16847     16850
     16849     16847     16851     16850     16847     16851     16845     16854     16856
     16863     16861     16868     16863     16861     16870     16868     16861     16870
     16861     16863     16865     16861     16863     16866     16861     16863     16867
     16865     16863     16866     16865     16863     16867     16866     16863     16867
     16861     16870     16872     16879     16877     16884     16879     16877     16886
     16884     16877     16886     16877     16879     16881     16877     16879     16882
     16877     16879     16883     16881     16879     16882     16881     16879     16883
     16882     16879     16883     16877     16886     16888     16895     16893     16900
     16895     16893     16902     16900     16893     16902     16893     16895     16897
     16893     16895     16898     16893     16895     16899     16897     16895     16898
     16897     16895     16899     16898     16895     16899     16893     16902     16904
     16911     16909     16916     16911     16909     16918     16916     16909     16918
     16909     16911     16913     16909     16911     16914     16909     16911     16915
     16913     16911     16914     16913     16911     16915     16914     16911     16915
     16909     16918     16920     16927     16925     16932     16927     16925     16934
     16932     16925     16934     16925     16927     16929     16925     16927     16930
     16925     16927     16931     16929     16927     16930     16929     16927     16931
     16930     16927     16931     16925     16934     16936     16943     16941     16948
     16943     16941     16950     16948     16941     16950     16941     16943     16945
     16941     16943     16946     16941     16943     16947     16945     16943     16946
     16945     16943     16947     16946     16943     16947     16941     16950     16952
     16959     16957     16964     16959     16957     16966     16964     16957     16966
     16957     16959     16961     16957     16959     16962     16957     16959     16963
     16961     16959     16962     16961     16959     16963     16962     16959     16963
     16957     16966     16968     16975     16973     16980     16975     16973     16982
     16980     16973     16982     16973     16975     16977     16973     16975     16978
     16973     16975     16979     16977     16975     16978     16977     16975     16979
     16978     16975     16979     16973     16982     16984     16991     16989     16996
     16991     16989     16998     16996     16989     16998     16989     16991     16993
     16989     16991     16994     16989     16991     16995     16993     16991     16994
     16993     16991     16995     16994     16991     16995     16989     16998     17000
     17007     17005     17012     17007     17005     17014     17012     17005     17014
     17005     17007     17009     17005     17007     17010     17005     17007     17011
     17009     17007     17010     17009     17007     17011     17010     17007     17011
     17005     17014     17016     17023     17021     17028     17023     17021     17030
     17028     17021     17030     17021     17023     17025     17021     17023     17026
     17021     17023     17027     17025     17023     17026     17025     17023     17027
     17026     17023     17027     17021     17030     17032     17039     17037     17044
     17039     17037     17046     17044     17037     17046     17037     17039     17041
     17037     17039     17042     17037     17039     17043     17041     17039     17042
     17041     17039     17043     17042     17039     17043     17037     17046     17048
     17055     17053     17060     17055     17053     17062     17060     17053     17062
     17053     17055     17057     17053     17055     17058     17053     17055     17059
     17057     17055     17058     17057     17055     17059     17058     17055     17059
     17053     17062     17064     17071     17069     17076     17071     17069     17078
     17076     17069     17078     17069     17071     17073     17069     17071     17074
     17069     17071     17075     17073     17071     17074     17073     17071     17075
     17074     17071     17075     17069     17078     17080     17087     17085     17092
     17087     17085     17094     17092     17085     17094     17085     17087     17089
     17085     17087     17090     17085     17087     17091     17089     17087     17090
     17089     17087     17091     17090     17087     17091     17085     17094     17096
     17103     17101     17108     17103     17101     17110     17108     17101     17110
     17101     17103     17105     17101     17103     17106     17101     17103     17107
     17105     17103     17106     17105     17103     17107     17106     17103     17107
     17101     17110     17112     17119     17117     17124     17119     17117     17126
     17124     17117     17126     17117     17119     17121     17117     17119     17122
     17117     17119     17123     17121     17119     17122     17121     17119     17123
     17122     17119     17123     17117     17126     17128     17135     17133     17140
     17135     17133     17142     17140     17133     17142     17133     17135     17137
     17133     17135     17138     17133     17135     17139     17137     17135     17138
     17137     17135     17139     17138     17135     17139     17133     17142     17144
     17151     17149     17156     17151     17149     17158     17156     17149     17158
     17149     17151     17153     17149     17151     17154     17149     17151     17155
     17153     17151     17154     17153     17151     17155     17154     17151     17155
     17149     17158     17160     17167     17165     17172     17167     17165     17174
     17172     17165     17174     17165     17167     17169     17165     17167     17170
     17165     17167     17171     17169     17167     17170     17169     17167     17171
     17170     17167     17171     17165     17174     17176     17183     17181     17188
     17183     17181     17190     17188     17181     17190     17181     17183     17185
     17181     17183     17186     17181     17183     17187     17185     17183     17186
     17185     17183     17187     17186     17183     17187     17181     17190     17192
     17199     17197     17204     17199     17197     17206     17204     17197     17206
     17197     17199     17201     17197     17199     17202     17197     17199     17203
     17201     17199     17202     17201     17199     17203     17202     17199     17203
     17197     17206     17208     17215     17213     17220     17215     17213     17222
     17220     17213     17222     17213     17215     17217     17213     17215     17218
     17213     17215     17219     17217     17215     17218     17217     17215     17219
     17218     17215     17219     17213     17222     17224     17231     17229     17236
     17231     17229     17238     17236     17229     17238     17229     17231     17233
     17229     17231     17234     17229     17231     17235     17233     17231     17234
     17233     17231     17235     17234     17231     17235     17229     17238     17240
     17247     17245     17252     17247     17245     17254     17252     17245     17254
     17245     17247     17249     17245     17247     17250     17245     17247     17251
     17249     17247     17250     17249     17247     17251     17250     17247     17251
     17245     17254     17256     17263     17261     17268     17263     17261     17270
     17268     17261     17270     17261     17263     17265     17261     17263     17266
     17261     17263     17267     17265     17263     17266     17265     17263     17267
     17266     17263     17267     17261     17270     17272     17279     17277     17284
     17279     17277     17286     17284     17277     17286     17277     17279     17281
     17277     17279     17282     17277     17279     17283     17281     17279     17282
     17281     17279     17283     17282     17279     17283     17277     17286     17288
     17295     17293     17300     17295     17293     17302     17300     17293     17302
     17293     17295     17297     17293     17295     17298     17293     17295     17299
     17297     17295     17298     17297     17295     17299     17298     17295     17299
     17293     17302     17304     17311     17309     17316     17311     17309     17318
     17316     17309     17318     17309     17311     17313     17309     17311     17314
     17309     17311     17315     17313     17311     17314     17313     17311     17315
     17314     17311     17315     17309     17318     17320     17327     17325     17332
     17327     17325     17334     17332     17325     17334     17325     17327     17329
     17325     17327     17330     17325     17327     17331     17329     17327     17330
     17329     17327     17331     17330     17327     17331     17325     17334     17336
     17343     17341     17348     17343     17341     17350     17348     17341     17350
     17341     17343     17345     17341     17343     17346     17341     17343     17347
     17345     17343     17346     17345     17343     17347     17346     17343     17347
     17341     17350     17352     17359     17357     17364     17359     17357     17366
     17364     17357     17366     17357     17359     17361     17357     17359     17362
     17357     17359     17363     17361     17359     17362     17361     17359     17363
     17362     17359     17363     17357     17366     17368     17375     17373     17380
     17375     17373     17382     17380     17373     17382     17373     17375     17377
     17373     17375     17378     17373     17375     17379     17377     17375     17378
     17377     17375     17379     17378     17375     17379     17373     17382     17384
     17391     17389     17396     17391     17389     17398     17396     17389     17398
     17389     17391     17393     17389     17391     17394     17389     17391     17395
     17393     17391     17394     17393     17391     17395     17394     17391     17395
     17389     17398     17400     17407     17405     17412     17407     17405     17414
     17412     17405     17414     17405     17407     17409     17405     17407     17410
     17405     17407     17411     17409     17407     17410     17409     17407     17411
     17410     17407     17411     17405     17414     17416     17423     17421     17428
     17423     17421     17430     17428     17421     17430     17421     17423     17425
     17421     17423     17426     17421     17423     17427     17425     17423     17426
     17425     17423     17427     17426     17423     17427     17421     17430     17432
     17439     17437     17444     17439     17437     17446     17444     17437     17446
     17437     17439     17441     17437     17439     17442     17437     17439     17443
     17441     17439     17442     17441     17439     17443     17442     17439     17443
     17437     17446     17448     17455     17453     17460     17455     17453     17462
     17460     17453     17462     17453     17455     17457     17453     17455     17458
     17453     17455     17459     17457     17455     17458     17457     17455     17459
     17458     17455     17459     17453     17462     17464     17471     17469     17476
     17471     17469     17478     17476     17469     17478     17469     17471     17473
     17469     17471     17474     17469     17471     17475     17473     17471     17474
     17473     17471     17475     17474     17471     17475     17469     17478     17480
     17487     17485     17492     17487     17485     17494     17492     17485     17494
     17485     17487     17489     17485     17487     17490     17485     17487     17491
     17489     17487     17490     17489     17487     17491     17490     17487     17491
     17485     17494     17496     17503     17501     17508     17503     17501     17510
     17508     17501     17510     17501     17503     17505     17501     17503     17506
     17501     17503     17507     17505     17503     17506     17505     17503     17507
     17506     17503     17507     17501     17510     17512     17519     17517     17524
     17519     17517     17526     17524     17517     17526     17517     17519     17521
     17517     17519     17522     17517     17519     17523     17521     17519     17522
     17521     17519     17523     17522     17519     17523     17517     17526     17528
     17535     17533     17540     17535     17533     17542     17540     17533     17542
     17533     17535     17537     17533     17535     17538     17533     17535     17539
     17537     17535     17538     17537     17535     17539     17538     17535     17539
     17533     17542     17544     17551     17549     17556     17551     17549     17558
     17556     17549     17558     17549     17551     17553     17549     17551     17554
     17549     17551     17555     17553     17551     17554     17553     17551     17555
     17554     17551     17555     17549     17558     17560     17567     17565     17572
     17567     17565     17574     17572     17565     17574     17565     17567     17569
     17565     17567     17570     17565     17567     17571     17569     17567     17570
     17569     17567     17571     17570     17567     17571     17565     17574     17576
     17583     17581     17588     17583     17581     17590     17588     17581     17590
     17581     17583     17585     17581     17583     17586     17581     17583     17587
     17585     17583     17586     17585     17583     17587     17586     17583     17587
     17581     17590     17592     17599     17597     17604     17599     17597     17606
     17604     17597     17606     17597     17599     17601     17597     17599     17602
     17597     17599     17603     17601     17599     17602     17601     17599     17603
     17602     17599     17603     17597     17606     17608     17615     17613     17620
     17615     17613     17622     17620     17613     17622     17613     17615     17617
     17613     17615     17618     17613     17615     17619     17617     17615     17618
     17617     17615     17619     17618     17615     17619     17613     17622     17624
     17631     17629     17636     17631     17629     17638     17636     17629     17638
     17629     17631     17633     17629     17631     17634     17629     17631     17635
     17633     17631     17634     17633     17631     17635     17634     17631     17635
     17629     17638     17640     17647     17645     17652     17647     17645     17654
     17652     17645     17654     17645     17647     17649     17645     17647     17650
     17645     17647     17651     17649     17647     17650     17649     17647     17651
     17650     17647     17651     17645     17654     17656     17663     17661     17668
     17663     17661     17670     17668     17661     17670     17661     17663     17665
     17661     17663     17666     17661     17663     17667     17665     17663     17666
     17665     17663     17667     17666     17663     17667     17661     17670     17672
     17679     17677     17684     17679     17677     17686     17684     17677     17686
     17677     17679     17681     17677     17679     17682     17677     17679     17683
     17681     17679     17682     17681     17679     17683     17682     17679     17683
     17677     17686     17688     17695     17693     17700     17695     17693     17702
     17700     17693     17702     17693     17695     17697     17693     17695     17698
     17693     17695     17699     17697     17695     17698     17697     17695     17699
     17698     17695     17699     17693     17702     17704     17711     17709     17716
     17711     17709     17718     17716     17709     17718     17709     17711     17713
     17709     17711     17714     17709     17711     17715     17713     17711     17714
     17713     17711     17715     17714     17711     17715     17709     17718     17720
     17727     17725     17732     17727     17725     17734     17732     17725     17734
     17725     17727     17729     17725     17727     17730     17725     17727     17731
     17729     17727     17730     17729     17727     17731     17730     17727     17731
     17725     17734     17736     17743     17741     17748     17743     17741     17750
     17748     17741     17750     17741     17743     17745     17741     17743     17746
     17741     17743     17747     17745     17743     17746     17745     17743     17747
     17746     17743     17747     17741     17750     17752     17759     17757     17764
     17759     17757     17766     17764     17757     17766     17757     17759     17761
     17757     17759     17762     17757     17759     17763     17761     17759     17762
     17761     17759     17763     17762     17759     17763     17757     17766     17768
     17775     17773     17780     17775     17773     17782     17780     17773     17782
     17773     17775     17777     17773     17775     17778     17773     17775     17779
     17777     17775     17778     17777     17775     17779     17778     17775     17779
     17773     17782     17784     17791     17789     17796     17791     17789     17798
     17796     17789     17798     17789     17791     17793     17789     17791     17794
     17789     17791     17795     17793     17791     17794     17793     17791     17795
     17794     17791     17795     17789     17798     17800     17807     17805     17812
     17807     17805     17814     17812     17805     17814     17805     17807     17809
     17805     17807     17810     17805     17807     17811     17809     17807     17810
     17809     17807     17811     17810     17807     17811     17805     17814     17816
     17823     17821     17828     17823     17821     17830     17828     17821     17830
     17821     17823     17825     17821     17823     17826     17821     17823     17827
     17825     17823     17826     17825     17823     17827     17826     17823     17827
     17821     17830     17832     17839     17837     17844     17839     17837     17846
     17844     17837     17846     17837     17839     17841     17837     17839     17842
     17837     17839     17843     17841     17839     17842     17841     17839     17843
     17842     17839     17843     17837     17846     17848     17855     17853     17860
     17855     17853     17862     17860     17853     17862     17853     17855     17857
     17853     17855     17858     17853     17855     17859     17857     17855     17858
     17857     17855     17859     17858     17855     17859     17853     17862     17864
     17871     17869     17876     17871     17869     17878     17876     17869     17878
     17869     17871     17873     17869     17871     17874     17869     17871     17875
     17873     17871     17874     17873     17871     17875     17874     17871     17875
     17869     17878     17880     17887     17885     17892     17887     17885     17894
     17892     17885     17894     17885     17887     17889     17885     17887     17890
     17885     17887     17891     17889     17887     17890     17889     17887     17891
     17890     17887     17891     17885     17894     17896     17903     17901     17908
     17903     17901     17910     17908     17901     17910     17901     17903     17905
     17901     17903     17906     17901     17903     17907     17905     17903     17906
     17905     17903     17907     17906     17903     17907     17901     17910     17912
     17919     17917     17924     17919     17917     17926     17924     17917     17926
     17917     17919     17921     17917     17919     17922     17917     17919     17923
     17921     17919     17922     17921     17919     17923     17922     17919     17923
     17917     17926     17928     17935     17933     17940     17935     17933     17942
     17940     17933     17942     17933     17935     17937     17933     17935     17938
     17933     17935     17939     17937     17935     17938     17937     17935     17939
     17938     17935     17939     17933     17942     17944     17951     17949     17956
     17951     17949     17958     17956     17949     17958     17949     17951     17953
     17949     17951     17954     17949     17951     17955     17953     17951     17954
     17953     17951     17955     17954     17951     17955     17949     17958     17960
     17967     17965     17972     17967     17965     17974     17972     17965     17974
     17965     17967     17969     17965     17967     17970     17965     17967     17971
     17969     17967     17970     17969     17967     17971     17970     17967     17971
     17965     17974     17976     17983     17981     17988     17983     17981     17990
     17988     17981     17990     17981     17983     17985     17981     17983     17986
     17981     17983     17987     17985     17983     17986     17985     17983     17987
     17986     17983     17987     17981     17990     17992     17999     17997     18004
     17999     17997     18006     18004     17997     18006     17997     17999     18001
     17997     17999     18002     17997     17999     18003     18001     17999     18002
     18001     17999     18003     18002     17999     18003     17997     18006     18008
     18015     18013     18020     18015     18013     18022     18020     18013     18022
     18013     18015     18017     18013     18015     18018     18013     18015     18019
     18017     18015     18018     18017     18015     18019     18018     18015     18019
     18013     18022     18024     18031     18029     18036     18031     18029     18038
     18036     18029     18038     18029     18031     18033     18029     18031     18034
     18029     18031     18035     18033     18031     18034     18033     18031     18035
     18034     18031     18035     18029     18038     18040     18047     18045     18052
     18047     18045     18054     18052     18045     18054     18045     18047     18049
     18045     18047     18050     18045     18047     18051     18049     18047     18050
     18049     18047     18051     18050     18047     18051     18045     18054     18056
     18063     18061     18068     18063     18061     18070     18068     18061     18070
     18061     18063     18065     18061     18063     18066     18061     18063     18067
     18065     18063     18066     18065     18063     18067     18066     18063     18067
     18061     18070     18072     18079     18077     18084     18079     18077     18086
     18084     18077     18086     18077     18079     18081     18077     18079     18082
     18077     18079     18083     18081     18079     18082     18081     18079     18083
     18082     18079     18083     18077     18086     18088     18095     18093     18100
     18095     18093     18102     18100     18093     18102     18093     18095     18097
     18093     18095     18098     18093     18095     18099     18097     18095     18098
     18097     18095     18099     18098     18095     18099     18093     18102     18104
     18111     18109     18116     18111     18109     18118     18116     18109     18118
     18109     18111     18113     18109     18111     18114     18109     18111     18115
     18113     18111     18114     18113     18111     18115     18114     18111     18115
     18109     18118     18120     18127     18125     18132     18127     18125     18134
     18132     18125     18134     18125     18127     18129     18125     18127     18130
     18125     18127     18131     18129     18127     18130     18129     18127     18131
     18130     18127     18131     18125     18134     18136     18143     18141     18185
     18143     18141     18199     18185     18141     18199     18141     18143     18145
     18141     18143     18200     18145     18143     18200     18143     18145     18147
     18143     18145     18155     18147     18145     18155     18145     18147     18149
     18145     18147     18187     18149     18147     18187     18147     18149     18151
     18147     18149     18173     18151     18149     18173     18149     18151     18153
     18149     18151     18165     18153     18151     18165     18151     18153     18155
     18151     18153     18201     18155     18153     18201     18145     18155     18153
     18145     18155     18157     18153     18155     18157     18155     18157     18159
     18155     18157     18161     18155     18157     18163     18159     18157     18161
     18159     18157     18163     18161     18157     18163     18151     18165     18167
     18151     18165     18169     18151     18165     18171     18167     18165     18169
     18167     18165     18171     18169     18165     18171     18149     18173     18175
     18149     18173     18202     18175     18173     18202     18173     18175     18177
     18173     18175     18203     18177     18175     18203     18175     18177     18179
     18175     18177     18187     18179     18177     18187     18177     18179     18181
     18177     18179     18191     18181     18179     18191     18179     18181     18183
     18179     18181     18204     18183     18181     18204     18181     18183     18185
     18181     18183     18189     18185     18183     18189     18141     18185     18183
     18141     18185     18187     18183     18185     18187     18147     18187     18177
     18147     18187     18185     18177     18187     18185     18183     18189     18205
     18179     18191     18193     18179     18191     18195     18179     18191     18197
     18193     18191     18195     18193     18191     18197     18195     18191     18197
     18228     18226     18270     18228     18226     18284     18270     18226     18284
     18226     18228     18230     18226     18228     18285     18230     18228     18285
     18228     18230     18232     18228     18230     18240     18232     18230     18240
     18230     18232     18234     18230     18232     18272     18234     18232     18272
     18232     18234     18236     18232     18234     18258     18236     18234     18258
     18234     18236     18238     18234     18236     18250     18238     18236     18250
     18236     18238     18240     18236     18238     18286     18240     18238     18286
     18230     18240     18238     18230     18240     18242     18238     18240     18242
     18240     18242     18244     18240     18242     18246     18240     18242     18248
     18244     18242     18246     18244     18242     18248     18246     18242     18248
     18236     18250     18252     18236     18250     18254     18236     18250     18256
     18252     18250     18254     18252     18250     18256     18254     18250     18256
     18234     18258     18260     18234     18258     18287     18260     18258     18287
     18258     18260     18262     18258     18260     18288     18262     18260     18288
     18260     18262     18264     18260     18262     18272     18264     18262     18272
     18262     18264     18266     18262     18264     18276     18266     18264     18276
     18264     18266     18268     18264     18266     18289     18268     18266     18289
     18266     18268     18270     18266     18268     18274     18270     18268     18274
     18226     18270     18268     18226     18270     18272     18268     18270     18272
     18232     18272     18262     18232     18272     18270     18262     18272     18270
     18268     18274     18290     18264     18276     18278     18264     18276     18280
     18264     18276     18282     18278     18276     18280     18278     18276     18282
     18280     18276     18282

     17374 !NPHI: dihedrals
         1         6         8        10         1         6         8        11
         1         6        14        16         1         6        14        17
         3         1         6         8         3         1         6        14
         4         1         6         8         4         1         6        14
         5         1         6         8         5         1         6        14
         6         8        11        13         6         8        11        17
         6        14        17        11         6        14        17        19
         8         6        14        16         8         6        14        17
         8        11        17        14         8        11        17        19
        10         8         6        14        10         8        11        13
        10         8        11        17        11         8         6        14
        11        17        14        16        13        11        17        14
        13        11        17        19        16        14        17        19
        21        26        28        30        21        26        28        31
        21        26        34        36        21        26        34        37
        23        21        26        28        23        21        26        34
        24        21        26        28        24        21        26        34
        25        21        26        28        25        21        26        34
        26        28        31        33        26        28        31        37
        26        34        37        31        26        34        37        39
        28        26        34        36        28        26        34        37
        28        31        37        34        28        31        37        39
        30        28        26        34        30        28        31        33
        30        28        31        37        31        28        26        34
        31        37        34        36        33        31        37        34
        33        31        37        39        36        34        37        39
        41        46        48        50        41        46        48        51
        41        46        54        56        41        46        54        57
        43        41        46        48        43        41        46        54
        44        41        46        48        44        41        46        54
        45        41        46        48        45        41        46        54
        46        48        51        53        46        48        51        57
        46        54        57        51        46        54        57        59
        48        46        54        56        48        46        54        57
        48        51        57        54        48        51        57        59
        50        48        46        54        50        48        51        53
        50        48        51        57        51        48        46        54
        51        57        54        56        53        51        57        54
        53        51        57        59        56        54        57        59
        61        66        68        70        61        66        68        71
        61        66        74        76        61        66        74        77
        63        61        66        68        63        61        66        74
        64        61        66        68        64        61        66        74
        65        61        66        68        65        61        66        74
        66        68        71        73        66        68        71        77
        66        74        77        71        66        74        77        79
        68        66        74        76        68        66        74        77
        68        71        77        74        68        71        77        79
        70        68        66        74        70        68        71        73
        70        68        71        77        71        68        66        74
        71        77        74        76        73        71        77        74
        73        71        77        79        76        74        77        79
        81        86        88        90        81        86        88        91
        81        86        94        96        81        86        94        97
        83        81        86        88        83        81        86        94
        84        81        86        88        84        81        86        94
        85        81        86        88        85        81        86        94
        86        88        91        93        86        88        91        97
        86        94        97        91        86        94        97        99
        88        86        94        96        88        86        94        97
        88        91        97        94        88        91        97        99
        90        88        86        94        90        88        91        93
        90        88        91        97        91        88        86        94
        91        97        94        96        93        91        97        94
        93        91        97        99        96        94        97        99
       101       106       108       110       101       106       108       111
       101       106       114       116       101       106       114       117
       103       101       106       108       103       101       106       114
       104       101       106       108       104       101       106       114
       105       101       106       108       105       101       106       114
       106       108       111       113       106       108       111       117
       106       114       117       111       106       114       117       119
       108       106       114       116       108       106       114       117
       108       111       117       114       108       111       117       119
       110       108       106       114       110       108       111       113
       110       108       111       117       111       108       106       114
       111       117       114       116       113       111       117       114
       113       111       117       119       116       114       117       119
       121       126       128       130       121       126       128       131
       121       126       134       136       121       126       134       137
       123       121       126       128       123       121       126       134
       124       121       126       128       124       121       126       134
       125       121       126       128       125       121       126       134
       126       128       131       133       126       128       131       137
       126       134       137       131       126       134       137       139
       128       126       134       136       128       126       134       137
       128       131       137       134       128       131       137       139
       130       128       126       134       130       128       131       133
       130       128       131       137       131       128       126       134
       131       137       134       136       133       131       137       134
       133       131       137       139       136       134       137       139
       141       146       148       150       141       146       148       151
       141       146       154       156       141       146       154       157
       143       141       146       148       143       141       146       154
       144       141       146       148       144       141       146       154
       145       141       146       148       145       141       146       154
       146       148       151       153       146       148       151       157
       146       154       157       151       146       154       157       159
       148       146       154       156       148       146       154       157
       148       151       157       154       148       151       157       159
       150       148       146       154       150       148       151       153
       150       148       151       157       151       148       146       154
       151       157       154       156       153       151       157       154
       153       151       157       159       156       154       157       159
       161       166       168       170       161       166       168       171
       161       166       174       176       161       166       174       177
       163       161       166       168       163       161       166       174
       164       161       166       168       164       161       166       174
       165       161       166       168       165       161       166       174
       166       168       171       173       166       168       171       177
       166       174       177       171       166       174       177       179
       168       166       174       176       168       166       174       177
       168       171       177       174       168       171       177       179
       170       168       166       174       170       168       171       173
       170       168       171       177       171       168       166       174
       171       177       174       176       173       171       177       174
       173       171       177       179       176       174       177       179
       181       186       188       190       181       186       188       191
       181       186       194       196       181       186       194       197
       183       181       186       188       183       181       186       194
       184       181       186       188       184       181       186       194
       185       181       186       188       185       181       186       194
       186       188       191       193       186       188       191       197
       186       194       197       191       186       194       197       199
       188       186       194       196       188       186       194       197
       188       191       197       194       188       191       197       199
       190       188       186       194       190       188       191       193
       190       188       191       197       191       188       186       194
       191       197       194       196       193       191       197       194
       193       191       197       199       196       194       197       199
       201       206       208       210       201       206       208       211
       201       206       214       216       201       206       214       217
       203       201       206       208       203       201       206       214
       204       201       206       208       204       201       206       214
       205       201       206       208       205       201       206       214
       206       208       211       213       206       208       211       217
       206       214       217       211       206       214       217       219
       208       206       214       216       208       206       214       217
       208       211       217       214       208       211       217       219
       210       208       206       214       210       208       211       213
       210       208       211       217       211       208       206       214
       211       217       214       216       213       211       217       214
       213       211       217       219       216       214       217       219
       221       226       228       230       221       226       228       231
       221       226       234       236       221       226       234       237
       223       221       226       228       223       221       226       234
       224       221       226       228       224       221       226       234
       225       221       226       228       225       221       226       234
       226       228       231       233       226       228       231       237
       226       234       237       231       226       234       237       239
       228       226       234       236       228       226       234       237
       228       231       237       234       228       231       237       239
       230       228       226       234       230       228       231       233
       230       228       231       237       231       228       226       234
       231       237       234       236       233       231       237       234
       233       231       237       239       236       234       237       239
       241       246       248       250       241       246       248       251
       241       246       254       256       241       246       254       257
       243       241       246       248       243       241       246       254
       244       241       246       248       244       241       246       254
       245       241       246       248       245       241       246       254
       246       248       251       253       246       248       251       257
       246       254       257       251       246       254       257       259
       248       246       254       256       248       246       254       257
       248       251       257       254       248       251       257       259
       250       248       246       254       250       248       251       253
       250       248       251       257       251       248       246       254
       251       257       254       256       253       251       257       254
       253       251       257       259       256       254       257       259
       261       266       268       270       261       266       268       271
       261       266       274       276       261       266       274       277
       263       261       266       268       263       261       266       274
       264       261       266       268       264       261       266       274
       265       261       266       268       265       261       266       274
       266       268       271       273       266       268       271       277
       266       274       277       271       266       274       277       279
       268       266       274       276       268       266       274       277
       268       271       277       274       268       271       277       279
       270       268       266       274       270       268       271       273
       270       268       271       277       271       268       266       274
       271       277       274       276       273       271       277       274
       273       271       277       279       276       274       277       279
       281       286       288       290       281       286       288       291
       281       286       294       296       281       286       294       297
       283       281       286       288       283       281       286       294
       284       281       286       288       284       281       286       294
       285       281       286       288       285       281       286       294
       286       288       291       293       286       288       291       297
       286       294       297       291       286       294       297       299
       288       286       294       296       288       286       294       297
       288       291       297       294       288       291       297       299
       290       288       286       294       290       288       291       293
       290       288       291       297       291       288       286       294
       291       297       294       296       293       291       297       294
       293       291       297       299       296       294       297       299
       301       306       308       310       301       306       308       311
       301       306       314       316       301       306       314       317
       303       301       306       308       303       301       306       314
       304       301       306       308       304       301       306       314
       305       301       306       308       305       301       306       314
       306       308       311       313       306       308       311       317
       306       314       317       311       306       314       317       319
       308       306       314       316       308       306       314       317
       308       311       317       314       308       311       317       319
       310       308       306       314       310       308       311       313
       310       308       311       317       311       308       306       314
       311       317       314       316       313       311       317       314
       313       311       317       319       316       314       317       319
       321       326       328       330       321       326       328       331
       321       326       334       336       321       326       334       337
       323       321       326       328       323       321       326       334
       324       321       326       328       324       321       326       334
       325       321       326       328       325       321       326       334
       326       328       331       333       326       328       331       337
       326       334       337       331       326       334       337       339
       328       326       334       336       328       326       334       337
       328       331       337       334       328       331       337       339
       330       328       326       334       330       328       331       333
       330       328       331       337       331       328       326       334
       331       337       334       336       333       331       337       334
       333       331       337       339       336       334       337       339
       341       346       348       350       341       346       348       351
       341       346       354       356       341       346       354       357
       343       341       346       348       343       341       346       354
       344       341       346       348       344       341       346       354
       345       341       346       348       345       341       346       354
       346       348       351       353       346       348       351       357
       346       354       357       351       346       354       357       359
       348       346       354       356       348       346       354       357
       348       351       357       354       348       351       357       359
       350       348       346       354       350       348       351       353
       350       348       351       357       351       348       346       354
       351       357       354       356       353       351       357       354
       353       351       357       359       356       354       357       359
       361       366       368       370       361       366       368       371
       361       366       374       376       361       366       374       377
       363       361       366       368       363       361       366       374
       364       361       366       368       364       361       366       374
       365       361       366       368       365       361       366       374
       366       368       371       373       366       368       371       377
       366       374       377       371       366       374       377       379
       368       366       374       376       368       366       374       377
       368       371       377       374       368       371       377       379
       370       368       366       374       370       368       371       373
       370       368       371       377       371       368       366       374
       371       377       374       376       373       371       377       374
       373       371       377       379       376       374       377       379
       381       386       388       390       381       386       388       391
       381       386       394       396       381       386       394       397
       383       381       386       388       383       381       386       394
       384       381       386       388       384       381       386       394
       385       381       386       388       385       381       386       394
       386       388       391       393       386       388       391       397
       386       394       397       391       386       394       397       399
       388       386       394       396       388       386       394       397
       388       391       397       394       388       391       397       399
       390       388       386       394       390       388       391       393
       390       388       391       397       391       388       386       394
       391       397       394       396       393       391       397       394
       393       391       397       399       396       394       397       399
       401       406       408       410       401       406       408       411
       401       406       414       416       401       406       414       417
       403       401       406       408       403       401       406       414
       404       401       406       408       404       401       406       414
       405       401       406       408       405       401       406       414
       406       408       411       413       406       408       411       417
       406       414       417       411       406       414       417       419
       408       406       414       416       408       406       414       417
       408       411       417       414       408       411       417       419
       410       408       406       414       410       408       411       413
       410       408       411       417       411       408       406       414
       411       417       414       416       413       411       417       414
       413       411       417       419       416       414       417       419
       421       426       428       430       421       426       428       431
       421       426       434       436       421       426       434       437
       423       421       426       428       423       421       426       434
       424       421       426       428       424       421       426       434
       425       421       426       428       425       421       426       434
       426       428       431       433       426       428       431       437
       426       434       437       431       426       434       437       439
       428       426       434       436       428       426       434       437
       428       431       437       434       428       431       437       439
       430       428       426       434       430       428       431       433
       430       428       431       437       431       428       426       434
       431       437       434       436       433       431       437       434
       433       431       437       439       436       434       437       439
       441       446       448       450       441       446       448       451
       441       446       454       456       441       446       454       457
       443       441       446       448       443       441       446       454
       444       441       446       448       444       441       446       454
       445       441       446       448       445       441       446       454
       446       448       451       453       446       448       451       457
       446       454       457       451       446       454       457       459
       448       446       454       456       448       446       454       457
       448       451       457       454       448       451       457       459
       450       448       446       454       450       448       451       453
       450       448       451       457       451       448       446       454
       451       457       454       456       453       451       457       454
       453       451       457       459       456       454       457       459
       461       466       468       470       461       466       468       471
       461       466       474       476       461       466       474       477
       463       461       466       468       463       461       466       474
       464       461       466       468       464       461       466       474
       465       461       466       468       465       461       466       474
       466       468       471       473       466       468       471       477
       466       474       477       471       466       474       477       479
       468       466       474       476       468       466       474       477
       468       471       477       474       468       471       477       479
       470       468       466       474       470       468       471       473
       470       468       471       477       471       468       466       474
       471       477       474       476       473       471       477       474
       473       471       477       479       476       474       477       479
       481       486       488       490       481       486       488       491
       481       486       494       496       481       486       494       497
       483       481       486       488       483       481       486       494
       484       481       486       488       484       481       486       494
       485       481       486       488       485       481       486       494
       486       488       491       493       486       488       491       497
       486       494       497       491       486       494       497       499
       488       486       494       496       488       486       494       497
       488       491       497       494       488       491       497       499
       490       488       486       494       490       488       491       493
       490       488       491       497       491       488       486       494
       491       497       494       496       493       491       497       494
       493       491       497       499       496       494       497       499
       501       506       508       510       501       506       508       511
       501       506       514       516       501       506       514       517
       503       501       506       508       503       501       506       514
       504       501       506       508       504       501       506       514
       505       501       506       508       505       501       506       514
       506       508       511       513       506       508       511       517
       506       514       517       511       506       514       517       519
       508       506       514       516       508       506       514       517
       508       511       517       514       508       511       517       519
       510       508       506       514       510       508       511       513
       510       508       511       517       511       508       506       514
       511       517       514       516       513       511       517       514
       513       511       517       519       516       514       517       519
       521       526       528       530       521       526       528       531
       521       526       534       536       521       526       534       537
       523       521       526       528       523       521       526       534
       524       521       526       528       524       521       526       534
       525       521       526       528       525       521       526       534
       526       528       531       533       526       528       531       537
       526       534       537       531       526       534       537       539
       528       526       534       536       528       526       534       537
       528       531       537       534       528       531       537       539
       530       528       526       534       530       528       531       533
       530       528       531       537       531       528       526       534
       531       537       534       536       533       531       537       534
       533       531       537       539       536       534       537       539
       541       546       548       550       541       546       548       551
       541       546       554       556       541       546       554       557
       543       541       546       548       543       541       546       554
       544       541       546       548       544       541       546       554
       545       541       546       548       545       541       546       554
       546       548       551       553       546       548       551       557
       546       554       557       551       546       554       557       559
       548       546       554       556       548       546       554       557
       548       551       557       554       548       551       557       559
       550       548       546       554       550       548       551       553
       550       548       551       557       551       548       546       554
       551       557       554       556       553       551       557       554
       553       551       557       559       556       554       557       559
       561       566       568       570       561       566       568       571
       561       566       574       576       561       566       574       577
       563       561       566       568       563       561       566       574
       564       561       566       568       564       561       566       574
       565       561       566       568       565       561       566       574
       566       568       571       573       566       568       571       577
       566       574       577       571       566       574       577       579
       568       566       574       576       568       566       574       577
       568       571       577       574       568       571       577       579
       570       568       566       574       570       568       571       573
       570       568       571       577       571       568       566       574
       571       577       574       576       573       571       577       574
       573       571       577       579       576       574       577       579
       581       586       588       590       581       586       588       591
       581       586       594       596       581       586       594       597
       583       581       586       588       583       581       586       594
       584       581       586       588       584       581       586       594
       585       581       586       588       585       581       586       594
       586       588       591       593       586       588       591       597
       586       594       597       591       586       594       597       599
       588       586       594       596       588       586       594       597
       588       591       597       594       588       591       597       599
       590       588       586       594       590       588       591       593
       590       588       591       597       591       588       586       594
       591       597       594       596       593       591       597       594
       593       591       597       599       596       594       597       599
       601       606       608       610       601       606       608       611
       601       606       614       616       601       606       614       617
       603       601       606       608       603       601       606       614
       604       601       606       608       604       601       606       614
       605       601       606       608       605       601       606       614
       606       608       611       613       606       608       611       617
       606       614       617       611       606       614       617       619
       608       606       614       616       608       606       614       617
       608       611       617       614       608       611       617       619
       610       608       606       614       610       608       611       613
       610       608       611       617       611       608       606       614
       611       617       614       616       613       611       617       614
       613       611       617       619       616       614       617       619
       621       626       628       630       621       626       628       631
       621       626       634       636       621       626       634       637
       623       621       626       628       623       621       626       634
       624       621       626       628       624       621       626       634
       625       621       626       628       625       621       626       634
       626       628       631       633       626       628       631       637
       626       634       637       631       626       634       637       639
       628       626       634       636       628       626       634       637
       628       631       637       634       628       631       637       639
       630       628       626       634       630       628       631       633
       630       628       631       637       631       628       626       634
       631       637       634       636       633       631       637       634
       633       631       637       639       636       634       637       639
       641       646       648       650       641       646       648       651
       641       646       654       656       641       646       654       657
       643       641       646       648       643       641       646       654
       644       641       646       648       644       641       646       654
       645       641       646       648       645       641       646       654
       646       648       651       653       646       648       651       657
       646       654       657       651       646       654       657       659
       648       646       654       656       648       646       654       657
       648       651       657       654       648       651       657       659
       650       648       646       654       650       648       651       653
       650       648       651       657       651       648       646       654
       651       657       654       656       653       651       657       654
       653       651       657       659       656       654       657       659
       661       666       668       670       661       666       668       671
       661       666       674       676       661       666       674       677
       663       661       666       668       663       661       666       674
       664       661       666       668       664       661       666       674
       665       661       666       668       665       661       666       674
       666       668       671       673       666       668       671       677
       666       674       677       671       666       674       677       679
       668       666       674       676       668       666       674       677
       668       671       677       674       668       671       677       679
       670       668       666       674       670       668       671       673
       670       668       671       677       671       668       666       674
       671       677       674       676       673       671       677       674
       673       671       677       679       676       674       677       679
       681       686       688       690       681       686       688       691
       681       686       694       696       681       686       694       697
       683       681       686       688       683       681       686       694
       684       681       686       688       684       681       686       694
       685       681       686       688       685       681       686       694
       686       688       691       693       686       688       691       697
       686       694       697       691       686       694       697       699
       688       686       694       696       688       686       694       697
       688       691       697       694       688       691       697       699
       690       688       686       694       690       688       691       693
       690       688       691       697       691       688       686       694
       691       697       694       696       693       691       697       694
       693       691       697       699       696       694       697       699
       701       706       708       710       701       706       708       711
       701       706       714       716       701       706       714       717
       703       701       706       708       703       701       706       714
       704       701       706       708       704       701       706       714
       705       701       706       708       705       701       706       714
       706       708       711       713       706       708       711       717
       706       714       717       711       706       714       717       719
       708       706       714       716       708       706       714       717
       708       711       717       714       708       711       717       719
       710       708       706       714       710       708       711       713
       710       708       711       717       711       708       706       714
       711       717       714       716       713       711       717       714
       713       711       717       719       716       714       717       719
       721       726       728       730       721       726       728       731
       721       726       734       736       721       726       734       737
       723       721       726       728       723       721       726       734
       724       721       726       728       724       721       726       734
       725       721       726       728       725       721       726       734
       726       728       731       733       726       728       731       737
       726       734       737       731       726       734       737       739
       728       726       734       736       728       726       734       737
       728       731       737       734       728       731       737       739
       730       728       726       734       730       728       731       733
       730       728       731       737       731       728       726       734
       731       737       734       736       733       731       737       734
       733       731       737       739       736       734       737       739
       741       746       748       750       741       746       748       751
       741       746       754       756       741       746       754       757
       743       741       746       748       743       741       746       754
       744       741       746       748       744       741       746       754
       745       741       746       748       745       741       746       754
       746       748       751       753       746       748       751       757
       746       754       757       751       746       754       757       759
       748       746       754       756       748       746       754       757
       748       751       757       754       748       751       757       759
       750       748       746       754       750       748       751       753
       750       748       751       757       751       748       746       754
       751       757       754       756       753       751       757       754
       753       751       757       759       756       754       757       759
       761       766       768       770       761       766       768       771
       761       766       774       776       761       766       774       777
       763       761       766       768       763       761       766       774
       764       761       766       768       764       761       766       774
       765       761       766       768       765       761       766       774
       766       768       771       773       766       768       771       777
       766       774       777       771       766       774       777       779
       768       766       774       776       768       766       774       777
       768       771       777       774       768       771       777       779
       770       768       766       774       770       768       771       773
       770       768       771       777       771       768       766       774
       771       777       774       776       773       771       777       774
       773       771       777       779       776       774       777       779
       781       786       788       790       781       786       788       791
       781       786       794       796       781       786       794       797
       783       781       786       788       783       781       786       794
       784       781       786       788       784       781       786       794
       785       781       786       788       785       781       786       794
       786       788       791       793       786       788       791       797
       786       794       797       791       786       794       797       799
       788       786       794       796       788       786       794       797
       788       791       797       794       788       791       797       799
       790       788       786       794       790       788       791       793
       790       788       791       797       791       788       786       794
       791       797       794       796       793       791       797       794
       793       791       797       799       796       794       797       799
       801       806       808       810       801       806       808       811
       801       806       814       816       801       806       814       817
       803       801       806       808       803       801       806       814
       804       801       806       808       804       801       806       814
       805       801       806       808       805       801       806       814
       806       808       811       813       806       808       811       817
       806       814       817       811       806       814       817       819
       808       806       814       816       808       806       814       817
       808       811       817       814       808       811       817       819
       810       808       806       814       810       808       811       813
       810       808       811       817       811       808       806       814
       811       817       814       816       813       811       817       814
       813       811       817       819       816       814       817       819
       821       826       828       830       821       826       828       831
       821       826       834       836       821       826       834       837
       823       821       826       828       823       821       826       834
       824       821       826       828       824       821       826       834
       825       821       826       828       825       821       826       834
       826       828       831       833       826       828       831       837
       826       834       837       831       826       834       837       839
       828       826       834       836       828       826       834       837
       828       831       837       834       828       831       837       839
       830       828       826       834       830       828       831       833
       830       828       831       837       831       828       826       834
       831       837       834       836       833       831       837       834
       833       831       837       839       836       834       837       839
       841       846       848       850       841       846       848       851
       841       846       854       856       841       846       854       857
       843       841       846       848       843       841       846       854
       844       841       846       848       844       841       846       854
       845       841       846       848       845       841       846       854
       846       848       851       853       846       848       851       857
       846       854       857       851       846       854       857       859
       848       846       854       856       848       846       854       857
       848       851       857       854       848       851       857       859
       850       848       846       854       850       848       851       853
       850       848       851       857       851       848       846       854
       851       857       854       856       853       851       857       854
       853       851       857       859       856       854       857       859
       861       866       868       870       861       866       868       871
       861       866       874       876       861       866       874       877
       863       861       866       868       863       861       866       874
       864       861       866       868       864       861       866       874
       865       861       866       868       865       861       866       874
       866       868       871       873       866       868       871       877
       866       874       877       871       866       874       877       879
       868       866       874       876       868       866       874       877
       868       871       877       874       868       871       877       879
       870       868       866       874       870       868       871       873
       870       868       871       877       871       868       866       874
       871       877       874       876       873       871       877       874
       873       871       877       879       876       874       877       879
       881       886       888       890       881       886       888       891
       881       886       894       896       881       886       894       897
       883       881       886       888       883       881       886       894
       884       881       886       888       884       881       886       894
       885       881       886       888       885       881       886       894
       886       888       891       893       886       888       891       897
       886       894       897       891       886       894       897       899
       888       886       894       896       888       886       894       897
       888       891       897       894       888       891       897       899
       890       888       886       894       890       888       891       893
       890       888       891       897       891       888       886       894
       891       897       894       896       893       891       897       894
       893       891       897       899       896       894       897       899
       901       906       908       910       901       906       908       911
       901       906       914       916       901       906       914       917
       903       901       906       908       903       901       906       914
       904       901       906       908       904       901       906       914
       905       901       906       908       905       901       906       914
       906       908       911       913       906       908       911       917
       906       914       917       911       906       914       917       919
       908       906       914       916       908       906       914       917
       908       911       917       914       908       911       917       919
       910       908       906       914       910       908       911       913
       910       908       911       917       911       908       906       914
       911       917       914       916       913       911       917       914
       913       911       917       919       916       914       917       919
       921       926       928       930       921       926       928       931
       921       926       934       936       921       926       934       937
       923       921       926       928       923       921       926       934
       924       921       926       928       924       921       926       934
       925       921       926       928       925       921       926       934
       926       928       931       933       926       928       931       937
       926       934       937       931       926       934       937       939
       928       926       934       936       928       926       934       937
       928       931       937       934       928       931       937       939
       930       928       926       934       930       928       931       933
       930       928       931       937       931       928       926       934
       931       937       934       936       933       931       937       934
       933       931       937       939       936       934       937       939
       941       946       948       950       941       946       948       951
       941       946       954       956       941       946       954       957
       943       941       946       948       943       941       946       954
       944       941       946       948       944       941       946       954
       945       941       946       948       945       941       946       954
       946       948       951       953       946       948       951       957
       946       954       957       951       946       954       957       959
       948       946       954       956       948       946       954       957
       948       951       957       954       948       951       957       959
       950       948       946       954       950       948       951       953
       950       948       951       957       951       948       946       954
       951       957       954       956       953       951       957       954
       953       951       957       959       956       954       957       959
       961       966       968       970       961       966       968       971
       961       966       974       976       961       966       974       977
       963       961       966       968       963       961       966       974
       964       961       966       968       964       961       966       974
       965       961       966       968       965       961       966       974
       966       968       971       973       966       968       971       977
       966       974       977       971       966       974       977       979
       968       966       974       976       968       966       974       977
       968       971       977       974       968       971       977       979
       970       968       966       974       970       968       971       973
       970       968       971       977       971       968       966       974
       971       977       974       976       973       971       977       974
       973       971       977       979       976       974       977       979
       981       986       988       990       981       986       988       991
       981       986       994       996       981       986       994       997
       983       981       986       988       983       981       986       994
       984       981       986       988       984       981       986       994
       985       981       986       988       985       981       986       994
       986       988       991       993       986       988       991       997
       986       994       997       991       986       994       997       999
       988       986       994       996       988       986       994       997
       988       991       997       994       988       991       997       999
       990       988       986       994       990       988       991       993
       990       988       991       997       991       988       986       994
       991       997       994       996       993       991       997       994
       993       991       997       999       996       994       997       999
      1001      1006      1008      1010      1001      1006      1008      1011
      1001      1006      1014      1016      1001      1006      1014      1017
      1003      1001      1006      1008      1003      1001      1006      1014
      1004      1001      1006      1008      1004      1001      1006      1014
      1005      1001      1006      1008      1005      1001      1006      1014
      1006      1008      1011      1013      1006      1008      1011      1017
      1006      1014      1017      1011      1006      1014      1017      1019
      1008      1006      1014      1016      1008      1006      1014      1017
      1008      1011      1017      1014      1008      1011      1017      1019
      1010      1008      1006      1014      1010      1008      1011      1013
      1010      1008      1011      1017      1011      1008      1006      1014
      1011      1017      1014      1016      1013      1011      1017      1014
      1013      1011      1017      1019      1016      1014      1017      1019
      1021      1026      1028      1030      1021      1026      1028      1031
      1021      1026      1034      1036      1021      1026      1034      1037
      1023      1021      1026      1028      1023      1021      1026      1034
      1024      1021      1026      1028      1024      1021      1026      1034
      1025      1021      1026      1028      1025      1021      1026      1034
      1026      1028      1031      1033      1026      1028      1031      1037
      1026      1034      1037      1031      1026      1034      1037      1039
      1028      1026      1034      1036      1028      1026      1034      1037
      1028      1031      1037      1034      1028      1031      1037      1039
      1030      1028      1026      1034      1030      1028      1031      1033
      1030      1028      1031      1037      1031      1028      1026      1034
      1031      1037      1034      1036      1033      1031      1037      1034
      1033      1031      1037      1039      1036      1034      1037      1039
      1041      1046      1048      1050      1041      1046      1048      1051
      1041      1046      1054      1056      1041      1046      1054      1057
      1043      1041      1046      1048      1043      1041      1046      1054
      1044      1041      1046      1048      1044      1041      1046      1054
      1045      1041      1046      1048      1045      1041      1046      1054
      1046      1048      1051      1053      1046      1048      1051      1057
      1046      1054      1057      1051      1046      1054      1057      1059
      1048      1046      1054      1056      1048      1046      1054      1057
      1048      1051      1057      1054      1048      1051      1057      1059
      1050      1048      1046      1054      1050      1048      1051      1053
      1050      1048      1051      1057      1051      1048      1046      1054
      1051      1057      1054      1056      1053      1051      1057      1054
      1053      1051      1057      1059      1056      1054      1057      1059
      1061      1066      1068      1070      1061      1066      1068      1071
      1061      1066      1074      1076      1061      1066      1074      1077
      1063      1061      1066      1068      1063      1061      1066      1074
      1064      1061      1066      1068      1064      1061      1066      1074
      1065      1061      1066      1068      1065      1061      1066      1074
      1066      1068      1071      1073      1066      1068      1071      1077
      1066      1074      1077      1071      1066      1074      1077      1079
      1068      1066      1074      1076      1068      1066      1074      1077
      1068      1071      1077      1074      1068      1071      1077      1079
      1070      1068      1066      1074      1070      1068      1071      1073
      1070      1068      1071      1077      1071      1068      1066      1074
      1071      1077      1074      1076      1073      1071      1077      1074
      1073      1071      1077      1079      1076      1074      1077      1079
      1081      1086      1088      1090      1081      1086      1088      1091
      1081      1086      1094      1096      1081      1086      1094      1097
      1083      1081      1086      1088      1083      1081      1086      1094
      1084      1081      1086      1088      1084      1081      1086      1094
      1085      1081      1086      1088      1085      1081      1086      1094
      1086      1088      1091      1093      1086      1088      1091      1097
      1086      1094      1097      1091      1086      1094      1097      1099
      1088      1086      1094      1096      1088      1086      1094      1097
      1088      1091      1097      1094      1088      1091      1097      1099
      1090      1088      1086      1094      1090      1088      1091      1093
      1090      1088      1091      1097      1091      1088      1086      1094
      1091      1097      1094      1096      1093      1091      1097      1094
      1093      1091      1097      1099      1096      1094      1097      1099
      1101      1106      1108      1110      1101      1106      1108      1111
      1101      1106      1114      1116      1101      1106      1114      1117
      1103      1101      1106      1108      1103      1101      1106      1114
      1104      1101      1106      1108      1104      1101      1106      1114
      1105      1101      1106      1108      1105      1101      1106      1114
      1106      1108      1111      1113      1106      1108      1111      1117
      1106      1114      1117      1111      1106      1114      1117      1119
      1108      1106      1114      1116      1108      1106      1114      1117
      1108      1111      1117      1114      1108      1111      1117      1119
      1110      1108      1106      1114      1110      1108      1111      1113
      1110      1108      1111      1117      1111      1108      1106      1114
      1111      1117      1114      1116      1113      1111      1117      1114
      1113      1111      1117      1119      1116      1114      1117      1119
      1121      1126      1128      1130      1121      1126      1128      1131
      1121      1126      1134      1136      1121      1126      1134      1137
      1123      1121      1126      1128      1123      1121      1126      1134
      1124      1121      1126      1128      1124      1121      1126      1134
      1125      1121      1126      1128      1125      1121      1126      1134
      1126      1128      1131      1133      1126      1128      1131      1137
      1126      1134      1137      1131      1126      1134      1137      1139
      1128      1126      1134      1136      1128      1126      1134      1137
      1128      1131      1137      1134      1128      1131      1137      1139
      1130      1128      1126      1134      1130      1128      1131      1133
      1130      1128      1131      1137      1131      1128      1126      1134
      1131      1137      1134      1136      1133      1131      1137      1134
      1133      1131      1137      1139      1136      1134      1137      1139
      1141      1146      1148      1150      1141      1146      1148      1151
      1141      1146      1154      1156      1141      1146      1154      1157
      1143      1141      1146      1148      1143      1141      1146      1154
      1144      1141      1146      1148      1144      1141      1146      1154
      1145      1141      1146      1148      1145      1141      1146      1154
      1146      1148      1151      1153      1146      1148      1151      1157
      1146      1154      1157      1151      1146      1154      1157      1159
      1148      1146      1154      1156      1148      1146      1154      1157
      1148      1151      1157      1154      1148      1151      1157      1159
      1150      1148      1146      1154      1150      1148      1151      1153
      1150      1148      1151      1157      1151      1148      1146      1154
      1151      1157      1154      1156      1153      1151      1157      1154
      1153      1151      1157      1159      1156      1154      1157      1159
      1161      1166      1168      1170      1161      1166      1168      1171
      1161      1166      1174      1176      1161      1166      1174      1177
      1163      1161      1166      1168      1163      1161      1166      1174
      1164      1161      1166      1168      1164      1161      1166      1174
      1165      1161      1166      1168      1165      1161      1166      1174
      1166      1168      1171      1173      1166      1168      1171      1177
      1166      1174      1177      1171      1166      1174      1177      1179
      1168      1166      1174      1176      1168      1166      1174      1177
      1168      1171      1177      1174      1168      1171      1177      1179
      1170      1168      1166      1174      1170      1168      1171      1173
      1170      1168      1171      1177      1171      1168      1166      1174
      1171      1177      1174      1176      1173      1171      1177      1174
      1173      1171      1177      1179      1176      1174      1177      1179
      1181      1186      1188      1190      1181      1186      1188      1191
      1181      1186      1194      1196      1181      1186      1194      1197
      1183      1181      1186      1188      1183      1181      1186      1194
      1184      1181      1186      1188      1184      1181      1186      1194
      1185      1181      1186      1188      1185      1181      1186      1194
      1186      1188      1191      1193      1186      1188      1191      1197
      1186      1194      1197      1191      1186      1194      1197      1199
      1188      1186      1194      1196      1188      1186      1194      1197
      1188      1191      1197      1194      1188      1191      1197      1199
      1190      1188      1186      1194      1190      1188      1191      1193
      1190      1188      1191      1197      1191      1188      1186      1194
      1191      1197      1194      1196      1193      1191      1197      1194
      1193      1191      1197      1199      1196      1194      1197      1199
      1201      1206      1208      1210      1201      1206      1208      1211
      1201      1206      1214      1216      1201      1206      1214      1217
      1203      1201      1206      1208      1203      1201      1206      1214
      1204      1201      1206      1208      1204      1201      1206      1214
      1205      1201      1206      1208      1205      1201      1206      1214
      1206      1208      1211      1213      1206      1208      1211      1217
      1206      1214      1217      1211      1206      1214      1217      1219
      1208      1206      1214      1216      1208      1206      1214      1217
      1208      1211      1217      1214      1208      1211      1217      1219
      1210      1208      1206      1214      1210      1208      1211      1213
      1210      1208      1211      1217      1211      1208      1206      1214
      1211      1217      1214      1216      1213      1211      1217      1214
      1213      1211      1217      1219      1216      1214      1217      1219
      1221      1226      1228      1230      1221      1226      1228      1231
      1221      1226      1234      1236      1221      1226      1234      1237
      1223      1221      1226      1228      1223      1221      1226      1234
      1224      1221      1226      1228      1224      1221      1226      1234
      1225      1221      1226      1228      1225      1221      1226      1234
      1226      1228      1231      1233      1226      1228      1231      1237
      1226      1234      1237      1231      1226      1234      1237      1239
      1228      1226      1234      1236      1228      1226      1234      1237
      1228      1231      1237      1234      1228      1231      1237      1239
      1230      1228      1226      1234      1230      1228      1231      1233
      1230      1228      1231      1237      1231      1228      1226      1234
      1231      1237      1234      1236      1233      1231      1237      1234
      1233      1231      1237      1239      1236      1234      1237      1239
      1241      1246      1248      1250      1241      1246      1248      1251
      1241      1246      1254      1256      1241      1246      1254      1257
      1243      1241      1246      1248      1243      1241      1246      1254
      1244      1241      1246      1248      1244      1241      1246      1254
      1245      1241      1246      1248      1245      1241      1246      1254
      1246      1248      1251      1253      1246      1248      1251      1257
      1246      1254      1257      1251      1246      1254      1257      1259
      1248      1246      1254      1256      1248      1246      1254      1257
      1248      1251      1257      1254      1248      1251      1257      1259
      1250      1248      1246      1254      1250      1248      1251      1253
      1250      1248      1251      1257      1251      1248      1246      1254
      1251      1257      1254      1256      1253      1251      1257      1254
      1253      1251      1257      1259      1256      1254      1257      1259
      1261      1266      1268      1270      1261      1266      1268      1271
      1261      1266      1274      1276      1261      1266      1274      1277
      1263      1261      1266      1268      1263      1261      1266      1274
      1264      1261      1266      1268      1264      1261      1266      1274
      1265      1261      1266      1268      1265      1261      1266      1274
      1266      1268      1271      1273      1266      1268      1271      1277
      1266      1274      1277      1271      1266      1274      1277      1279
      1268      1266      1274      1276      1268      1266      1274      1277
      1268      1271      1277      1274      1268      1271      1277      1279
      1270      1268      1266      1274      1270      1268      1271      1273
      1270      1268      1271      1277      1271      1268      1266      1274
      1271      1277      1274      1276      1273      1271      1277      1274
      1273      1271      1277      1279      1276      1274      1277      1279
      1281      1286      1288      1290      1281      1286      1288      1291
      1281      1286      1294      1296      1281      1286      1294      1297
      1283      1281      1286      1288      1283      1281      1286      1294
      1284      1281      1286      1288      1284      1281      1286      1294
      1285      1281      1286      1288      1285      1281      1286      1294
      1286      1288      1291      1293      1286      1288      1291      1297
      1286      1294      1297      1291      1286      1294      1297      1299
      1288      1286      1294      1296      1288      1286      1294      1297
      1288      1291      1297      1294      1288      1291      1297      1299
      1290      1288      1286      1294      1290      1288      1291      1293
      1290      1288      1291      1297      1291      1288      1286      1294
      1291      1297      1294      1296      1293      1291      1297      1294
      1293      1291      1297      1299      1296      1294      1297      1299
      1301      1306      1308      1310      1301      1306      1308      1311
      1301      1306      1314      1316      1301      1306      1314      1317
      1303      1301      1306      1308      1303      1301      1306      1314
      1304      1301      1306      1308      1304      1301      1306      1314
      1305      1301      1306      1308      1305      1301      1306      1314
      1306      1308      1311      1313      1306      1308      1311      1317
      1306      1314      1317      1311      1306      1314      1317      1319
      1308      1306      1314      1316      1308      1306      1314      1317
      1308      1311      1317      1314      1308      1311      1317      1319
      1310      1308      1306      1314      1310      1308      1311      1313
      1310      1308      1311      1317      1311      1308      1306      1314
      1311      1317      1314      1316      1313      1311      1317      1314
      1313      1311      1317      1319      1316      1314      1317      1319
      1321      1326      1328      1330      1321      1326      1328      1331
      1321      1326      1334      1336      1321      1326      1334      1337
      1323      1321      1326      1328      1323      1321      1326      1334
      1324      1321      1326      1328      1324      1321      1326      1334
      1325      1321      1326      1328      1325      1321      1326      1334
      1326      1328      1331      1333      1326      1328      1331      1337
      1326      1334      1337      1331      1326      1334      1337      1339
      1328      1326      1334      1336      1328      1326      1334      1337
      1328      1331      1337      1334      1328      1331      1337      1339
      1330      1328      1326      1334      1330      1328      1331      1333
      1330      1328      1331      1337      1331      1328      1326      1334
      1331      1337      1334      1336      1333      1331      1337      1334
      1333      1331      1337      1339      1336      1334      1337      1339
      1341      1346      1348      1350      1341      1346      1348      1351
      1341      1346      1354      1356      1341      1346      1354      1357
      1343      1341      1346      1348      1343      1341      1346      1354
      1344      1341      1346      1348      1344      1341      1346      1354
      1345      1341      1346      1348      1345      1341      1346      1354
      1346      1348      1351      1353      1346      1348      1351      1357
      1346      1354      1357      1351      1346      1354      1357      1359
      1348      1346      1354      1356      1348      1346      1354      1357
      1348      1351      1357      1354      1348      1351      1357      1359
      1350      1348      1346      1354      1350      1348      1351      1353
      1350      1348      1351      1357      1351      1348      1346      1354
      1351      1357      1354      1356      1353      1351      1357      1354
      1353      1351      1357      1359      1356      1354      1357      1359
      1361      1366      1368      1370      1361      1366      1368      1371
      1361      1366      1374      1376      1361      1366      1374      1377
      1363      1361      1366      1368      1363      1361      1366      1374
      1364      1361      1366      1368      1364      1361      1366      1374
      1365      1361      1366      1368      1365      1361      1366      1374
      1366      1368      1371      1373      1366      1368      1371      1377
      1366      1374      1377      1371      1366      1374      1377      1379
      1368      1366      1374      1376      1368      1366      1374      1377
      1368      1371      1377      1374      1368      1371      1377      1379
      1370      1368      1366      1374      1370      1368      1371      1373
      1370      1368      1371      1377      1371      1368      1366      1374
      1371      1377      1374      1376      1373      1371      1377      1374
      1373      1371      1377      1379      1376      1374      1377      1379
      1381      1386      1388      1390      1381      1386      1388      1391
      1381      1386      1394      1396      1381      1386      1394      1397
      1383      1381      1386      1388      1383      1381      1386      1394
      1384      1381      1386      1388      1384      1381      1386      1394
      1385      1381      1386      1388      1385      1381      1386      1394
      1386      1388      1391      1393      1386      1388      1391      1397
      1386      1394      1397      1391      1386      1394      1397      1399
      1388      1386      1394      1396      1388      1386      1394      1397
      1388      1391      1397      1394      1388      1391      1397      1399
      1390      1388      1386      1394      1390      1388      1391      1393
      1390      1388      1391      1397      1391      1388      1386      1394
      1391      1397      1394      1396      1393      1391      1397      1394
      1393      1391      1397      1399      1396      1394      1397      1399
      1401      1406      1408      1410      1401      1406      1408      1411
      1401      1406      1414      1416      1401      1406      1414      1417
      1403      1401      1406      1408      1403      1401      1406      1414
      1404      1401      1406      1408      1404      1401      1406      1414
      1405      1401      1406      1408      1405      1401      1406      1414
      1406      1408      1411      1413      1406      1408      1411      1417
      1406      1414      1417      1411      1406      1414      1417      1419
      1408      1406      1414      1416      1408      1406      1414      1417
      1408      1411      1417      1414      1408      1411      1417      1419
      1410      1408      1406      1414      1410      1408      1411      1413
      1410      1408      1411      1417      1411      1408      1406      1414
      1411      1417      1414      1416      1413      1411      1417      1414
      1413      1411      1417      1419      1416      1414      1417      1419
      1421      1426      1428      1430      1421      1426      1428      1431
      1421      1426      1434      1436      1421      1426      1434      1437
      1423      1421      1426      1428      1423      1421      1426      1434
      1424      1421      1426      1428      1424      1421      1426      1434
      1425      1421      1426      1428      1425      1421      1426      1434
      1426      1428      1431      1433      1426      1428      1431      1437
      1426      1434      1437      1431      1426      1434      1437      1439
      1428      1426      1434      1436      1428      1426      1434      1437
      1428      1431      1437      1434      1428      1431      1437      1439
      1430      1428      1426      1434      1430      1428      1431      1433
      1430      1428      1431      1437      1431      1428      1426      1434
      1431      1437      1434      1436      1433      1431      1437      1434
      1433      1431      1437      1439      1436      1434      1437      1439
      1441      1446      1448      1450      1441      1446      1448      1451
      1441      1446      1454      1456      1441      1446      1454      1457
      1443      1441      1446      1448      1443      1441      1446      1454
      1444      1441      1446      1448      1444      1441      1446      1454
      1445      1441      1446      1448      1445      1441      1446      1454
      1446      1448      1451      1453      1446      1448      1451      1457
      1446      1454      1457      1451      1446      1454      1457      1459
      1448      1446      1454      1456      1448      1446      1454      1457
      1448      1451      1457      1454      1448      1451      1457      1459
      1450      1448      1446      1454      1450      1448      1451      1453
      1450      1448      1451      1457      1451      1448      1446      1454
      1451      1457      1454      1456      1453      1451      1457      1454
      1453      1451      1457      1459      1456      1454      1457      1459
      1461      1466      1468      1470      1461      1466      1468      1471
      1461      1466      1474      1476      1461      1466      1474      1477
      1463      1461      1466      1468      1463      1461      1466      1474
      1464      1461      1466      1468      1464      1461      1466      1474
      1465      1461      1466      1468      1465      1461      1466      1474
      1466      1468      1471      1473      1466      1468      1471      1477
      1466      1474      1477      1471      1466      1474      1477      1479
      1468      1466      1474      1476      1468      1466      1474      1477
      1468      1471      1477      1474      1468      1471      1477      1479
      1470      1468      1466      1474      1470      1468      1471      1473
      1470      1468      1471      1477      1471      1468      1466      1474
      1471      1477      1474      1476      1473      1471      1477      1474
      1473      1471      1477      1479      1476      1474      1477      1479
      1481      1486      1488      1490      1481      1486      1488      1491
      1481      1486      1494      1496      1481      1486      1494      1497
      1483      1481      1486      1488      1483      1481      1486      1494
      1484      1481      1486      1488      1484      1481      1486      1494
      1485      1481      1486      1488      1485      1481      1486      1494
      1486      1488      1491      1493      1486      1488      1491      1497
      1486      1494      1497      1491      1486      1494      1497      1499
      1488      1486      1494      1496      1488      1486      1494      1497
      1488      1491      1497      1494      1488      1491      1497      1499
      1490      1488      1486      1494      1490      1488      1491      1493
      1490      1488      1491      1497      1491      1488      1486      1494
      1491      1497      1494      1496      1493      1491      1497      1494
      1493      1491      1497      1499      1496      1494      1497      1499
      1501      1506      1508      1510      1501      1506      1508      1511
      1501      1506      1514      1516      1501      1506      1514      1517
      1503      1501      1506      1508      1503      1501      1506      1514
      1504      1501      1506      1508      1504      1501      1506      1514
      1505      1501      1506      1508      1505      1501      1506      1514
      1506      1508      1511      1513      1506      1508      1511      1517
      1506      1514      1517      1511      1506      1514      1517      1519
      1508      1506      1514      1516      1508      1506      1514      1517
      1508      1511      1517      1514      1508      1511      1517      1519
      1510      1508      1506      1514      1510      1508      1511      1513
      1510      1508      1511      1517      1511      1508      1506      1514
      1511      1517      1514      1516      1513      1511      1517      1514
      1513      1511      1517      1519      1516      1514      1517      1519
      1521      1526      1528      1530      1521      1526      1528      1531
      1521      1526      1534      1536      1521      1526      1534      1537
      1523      1521      1526      1528      1523      1521      1526      1534
      1524      1521      1526      1528      1524      1521      1526      1534
      1525      1521      1526      1528      1525      1521      1526      1534
      1526      1528      1531      1533      1526      1528      1531      1537
      1526      1534      1537      1531      1526      1534      1537      1539
      1528      1526      1534      1536      1528      1526      1534      1537
      1528      1531      1537      1534      1528      1531      1537      1539
      1530      1528      1526      1534      1530      1528      1531      1533
      1530      1528      1531      1537      1531      1528      1526      1534
      1531      1537      1534      1536      1533      1531      1537      1534
      1533      1531      1537      1539      1536      1534      1537      1539
      1541      1546      1548      1550      1541      1546      1548      1551
      1541      1546      1554      1556      1541      1546      1554      1557
      1543      1541      1546      1548      1543      1541      1546      1554
      1544      1541      1546      1548      1544      1541      1546      1554
      1545      1541      1546      1548      1545      1541      1546      1554
      1546      1548      1551      1553      1546      1548      1551      1557
      1546      1554      1557      1551      1546      1554      1557      1559
      1548      1546      1554      1556      1548      1546      1554      1557
      1548      1551      1557      1554      1548      1551      1557      1559
      1550      1548      1546      1554      1550      1548      1551      1553
      1550      1548      1551      1557      1551      1548      1546      1554
      1551      1557      1554      1556      1553      1551      1557      1554
      1553      1551      1557      1559      1556      1554      1557      1559
      1561      1566      1568      1570      1561      1566      1568      1571
      1561      1566      1574      1576      1561      1566      1574      1577
      1563      1561      1566      1568      1563      1561      1566      1574
      1564      1561      1566      1568      1564      1561      1566      1574
      1565      1561      1566      1568      1565      1561      1566      1574
      1566      1568      1571      1573      1566      1568      1571      1577
      1566      1574      1577      1571      1566      1574      1577      1579
      1568      1566      1574      1576      1568      1566      1574      1577
      1568      1571      1577      1574      1568      1571      1577      1579
      1570      1568      1566      1574      1570      1568      1571      1573
      1570      1568      1571      1577      1571      1568      1566      1574
      1571      1577      1574      1576      1573      1571      1577      1574
      1573      1571      1577      1579      1576      1574      1577      1579
      1581      1586      1588      1590      1581      1586      1588      1591
      1581      1586      1594      1596      1581      1586      1594      1597
      1583      1581      1586      1588      1583      1581      1586      1594
      1584      1581      1586      1588      1584      1581      1586      1594
      1585      1581      1586      1588      1585      1581      1586      1594
      1586      1588      1591      1593      1586      1588      1591      1597
      1586      1594      1597      1591      1586      1594      1597      1599
      1588      1586      1594      1596      1588      1586      1594      1597
      1588      1591      1597      1594      1588      1591      1597      1599
      1590      1588      1586      1594      1590      1588      1591      1593
      1590      1588      1591      1597      1591      1588      1586      1594
      1591      1597      1594      1596      1593      1591      1597      1594
      1593      1591      1597      1599      1596      1594      1597      1599
      1601      1606      1608      1610      1601      1606      1608      1611
      1601      1606      1614      1616      1601      1606      1614      1617
      1603      1601      1606      1608      1603      1601      1606      1614
      1604      1601      1606      1608      1604      1601      1606      1614
      1605      1601      1606      1608      1605      1601      1606      1614
      1606      1608      1611      1613      1606      1608      1611      1617
      1606      1614      1617      1611      1606      1614      1617      1619
      1608      1606      1614      1616      1608      1606      1614      1617
      1608      1611      1617      1614      1608      1611      1617      1619
      1610      1608      1606      1614      1610      1608      1611      1613
      1610      1608      1611      1617      1611      1608      1606      1614
      1611      1617      1614      1616      1613      1611      1617      1614
      1613      1611      1617      1619      1616      1614      1617      1619
      1621      1626      1628      1630      1621      1626      1628      1631
      1621      1626      1634      1636      1621      1626      1634      1637
      1623      1621      1626      1628      1623      1621      1626      1634
      1624      1621      1626      1628      1624      1621      1626      1634
      1625      1621      1626      1628      1625      1621      1626      1634
      1626      1628      1631      1633      1626      1628      1631      1637
      1626      1634      1637      1631      1626      1634      1637      1639
      1628      1626      1634      1636      1628      1626      1634      1637
      1628      1631      1637      1634      1628      1631      1637      1639
      1630      1628      1626      1634      1630      1628      1631      1633
      1630      1628      1631      1637      1631      1628      1626      1634
      1631      1637      1634      1636      1633      1631      1637      1634
      1633      1631      1637      1639      1636      1634      1637      1639
      1641      1646      1648      1650      1641      1646      1648      1651
      1641      1646      1654      1656      1641      1646      1654      1657
      1643      1641      1646      1648      1643      1641      1646      1654
      1644      1641      1646      1648      1644      1641      1646      1654
      1645      1641      1646      1648      1645      1641      1646      1654
      1646      1648      1651      1653      1646      1648      1651      1657
      1646      1654      1657      1651      1646      1654      1657      1659
      1648      1646      1654      1656      1648      1646      1654      1657
      1648      1651      1657      1654      1648      1651      1657      1659
      1650      1648      1646      1654      1650      1648      1651      1653
      1650      1648      1651      1657      1651      1648      1646      1654
      1651      1657      1654      1656      1653      1651      1657      1654
      1653      1651      1657      1659      1656      1654      1657      1659
      1661      1666      1668      1670      1661      1666      1668      1671
      1661      1666      1674      1676      1661      1666      1674      1677
      1663      1661      1666      1668      1663      1661      1666      1674
      1664      1661      1666      1668      1664      1661      1666      1674
      1665      1661      1666      1668      1665      1661      1666      1674
      1666      1668      1671      1673      1666      1668      1671      1677
      1666      1674      1677      1671      1666      1674      1677      1679
      1668      1666      1674      1676      1668      1666      1674      1677
      1668      1671      1677      1674      1668      1671      1677      1679
      1670      1668      1666      1674      1670      1668      1671      1673
      1670      1668      1671      1677      1671      1668      1666      1674
      1671      1677      1674      1676      1673      1671      1677      1674
      1673      1671      1677      1679      1676      1674      1677      1679
      1681      1686      1688      1690      1681      1686      1688      1691
      1681      1686      1694      1696      1681      1686      1694      1697
      1683      1681      1686      1688      1683      1681      1686      1694
      1684      1681      1686      1688      1684      1681      1686      1694
      1685      1681      1686      1688      1685      1681      1686      1694
      1686      1688      1691      1693      1686      1688      1691      1697
      1686      1694      1697      1691      1686      1694      1697      1699
      1688      1686      1694      1696      1688      1686      1694      1697
      1688      1691      1697      1694      1688      1691      1697      1699
      1690      1688      1686      1694      1690      1688      1691      1693
      1690      1688      1691      1697      1691      1688      1686      1694
      1691      1697      1694      1696      1693      1691      1697      1694
      1693      1691      1697      1699      1696      1694      1697      1699
      1701      1706      1708      1710      1701      1706      1708      1711
      1701      1706      1714      1716      1701      1706      1714      1717
      1703      1701      1706      1708      1703      1701      1706      1714
      1704      1701      1706      1708      1704      1701      1706      1714
      1705      1701      1706      1708      1705      1701      1706      1714
      1706      1708      1711      1713      1706      1708      1711      1717
      1706      1714      1717      1711      1706      1714      1717      1719
      1708      1706      1714      1716      1708      1706      1714      1717
      1708      1711      1717      1714      1708      1711      1717      1719
      1710      1708      1706      1714      1710      1708      1711      1713
      1710      1708      1711      1717      1711      1708      1706      1714
      1711      1717      1714      1716      1713      1711      1717      1714
      1713      1711      1717      1719      1716      1714      1717      1719
      1721      1726      1728      1730      1721      1726      1728      1731
      1721      1726      1734      1736      1721      1726      1734      1737
      1723      1721      1726      1728      1723      1721      1726      1734
      1724      1721      1726      1728      1724      1721      1726      1734
      1725      1721      1726      1728      1725      1721      1726      1734
      1726      1728      1731      1733      1726      1728      1731      1737
      1726      1734      1737      1731      1726      1734      1737      1739
      1728      1726      1734      1736      1728      1726      1734      1737
      1728      1731      1737      1734      1728      1731      1737      1739
      1730      1728      1726      1734      1730      1728      1731      1733
      1730      1728      1731      1737      1731      1728      1726      1734
      1731      1737      1734      1736      1733      1731      1737      1734
      1733      1731      1737      1739      1736      1734      1737      1739
      1741      1746      1748      1750      1741      1746      1748      1751
      1741      1746      1754      1756      1741      1746      1754      1757
      1743      1741      1746      1748      1743      1741      1746      1754
      1744      1741      1746      1748      1744      1741      1746      1754
      1745      1741      1746      1748      1745      1741      1746      1754
      1746      1748      1751      1753      1746      1748      1751      1757
      1746      1754      1757      1751      1746      1754      1757      1759
      1748      1746      1754      1756      1748      1746      1754      1757
      1748      1751      1757      1754      1748      1751      1757      1759
      1750      1748      1746      1754      1750      1748      1751      1753
      1750      1748      1751      1757      1751      1748      1746      1754
      1751      1757      1754      1756      1753      1751      1757      1754
      1753      1751      1757      1759      1756      1754      1757      1759
      1761      1766      1768      1770      1761      1766      1768      1771
      1761      1766      1774      1776      1761      1766      1774      1777
      1763      1761      1766      1768      1763      1761      1766      1774
      1764      1761      1766      1768      1764      1761      1766      1774
      1765      1761      1766      1768      1765      1761      1766      1774
      1766      1768      1771      1773      1766      1768      1771      1777
      1766      1774      1777      1771      1766      1774      1777      1779
      1768      1766      1774      1776      1768      1766      1774      1777
      1768      1771      1777      1774      1768      1771      1777      1779
      1770      1768      1766      1774      1770      1768      1771      1773
      1770      1768      1771      1777      1771      1768      1766      1774
      1771      1777      1774      1776      1773      1771      1777      1774
      1773      1771      1777      1779      1776      1774      1777      1779
      1781      1786      1788      1790      1781      1786      1788      1791
      1781      1786      1794      1796      1781      1786      1794      1797
      1783      1781      1786      1788      1783      1781      1786      1794
      1784      1781      1786      1788      1784      1781      1786      1794
      1785      1781      1786      1788      1785      1781      1786      1794
      1786      1788      1791      1793      1786      1788      1791      1797
      1786      1794      1797      1791      1786      1794      1797      1799
      1788      1786      1794      1796      1788      1786      1794      1797
      1788      1791      1797      1794      1788      1791      1797      1799
      1790      1788      1786      1794      1790      1788      1791      1793
      1790      1788      1791      1797      1791      1788      1786      1794
      1791      1797      1794      1796      1793      1791      1797      1794
      1793      1791      1797      1799      1796      1794      1797      1799
      1801      1806      1808      1810      1801      1806      1808      1811
      1801      1806      1814      1816      1801      1806      1814      1817
      1803      1801      1806      1808      1803      1801      1806      1814
      1804      1801      1806      1808      1804      1801      1806      1814
      1805      1801      1806      1808      1805      1801      1806      1814
      1806      1808      1811      1813      1806      1808      1811      1817
      1806      1814      1817      1811      1806      1814      1817      1819
      1808      1806      1814      1816      1808      1806      1814      1817
      1808      1811      1817      1814      1808      1811      1817      1819
      1810      1808      1806      1814      1810      1808      1811      1813
      1810      1808      1811      1817      1811      1808      1806      1814
      1811      1817      1814      1816      1813      1811      1817      1814
      1813      1811      1817      1819      1816      1814      1817      1819
      1821      1826      1828      1830      1821      1826      1828      1831
      1821      1826      1834      1836      1821      1826      1834      1837
      1823      1821      1826      1828      1823      1821      1826      1834
      1824      1821      1826      1828      1824      1821      1826      1834
      1825      1821      1826      1828      1825      1821      1826      1834
      1826      1828      1831      1833      1826      1828      1831      1837
      1826      1834      1837      1831      1826      1834      1837      1839
      1828      1826      1834      1836      1828      1826      1834      1837
      1828      1831      1837      1834      1828      1831      1837      1839
      1830      1828      1826      1834      1830      1828      1831      1833
      1830      1828      1831      1837      1831      1828      1826      1834
      1831      1837      1834      1836      1833      1831      1837      1834
      1833      1831      1837      1839      1836      1834      1837      1839
      1841      1846      1848      1850      1841      1846      1848      1851
      1841      1846      1854      1856      1841      1846      1854      1857
      1843      1841      1846      1848      1843      1841      1846      1854
      1844      1841      1846      1848      1844      1841      1846      1854
      1845      1841      1846      1848      1845      1841      1846      1854
      1846      1848      1851      1853      1846      1848      1851      1857
      1846      1854      1857      1851      1846      1854      1857      1859
      1848      1846      1854      1856      1848      1846      1854      1857
      1848      1851      1857      1854      1848      1851      1857      1859
      1850      1848      1846      1854      1850      1848      1851      1853
      1850      1848      1851      1857      1851      1848      1846      1854
      1851      1857      1854      1856      1853      1851      1857      1854
      1853      1851      1857      1859      1856      1854      1857      1859
      1861      1866      1868      1870      1861      1866      1868      1871
      1861      1866      1874      1876      1861      1866      1874      1877
      1863      1861      1866      1868      1863      1861      1866      1874
      1864      1861      1866      1868      1864      1861      1866      1874
      1865      1861      1866      1868      1865      1861      1866      1874
      1866      1868      1871      1873      1866      1868      1871      1877
      1866      1874      1877      1871      1866      1874      1877      1879
      1868      1866      1874      1876      1868      1866      1874      1877
      1868      1871      1877      1874      1868      1871      1877      1879
      1870      1868      1866      1874      1870      1868      1871      1873
      1870      1868      1871      1877      1871      1868      1866      1874
      1871      1877      1874      1876      1873      1871      1877      1874
      1873      1871      1877      1879      1876      1874      1877      1879
      1881      1886      1888      1890      1881      1886      1888      1891
      1881      1886      1894      1896      1881      1886      1894      1897
      1883      1881      1886      1888      1883      1881      1886      1894
      1884      1881      1886      1888      1884      1881      1886      1894
      1885      1881      1886      1888      1885      1881      1886      1894
      1886      1888      1891      1893      1886      1888      1891      1897
      1886      1894      1897      1891      1886      1894      1897      1899
      1888      1886      1894      1896      1888      1886      1894      1897
      1888      1891      1897      1894      1888      1891      1897      1899
      1890      1888      1886      1894      1890      1888      1891      1893
      1890      1888      1891      1897      1891      1888      1886      1894
      1891      1897      1894      1896      1893      1891      1897      1894
      1893      1891      1897      1899      1896      1894      1897      1899
      1901      1906      1908      1910      1901      1906      1908      1911
      1901      1906      1914      1916      1901      1906      1914      1917
      1903      1901      1906      1908      1903      1901      1906      1914
      1904      1901      1906      1908      1904      1901      1906      1914
      1905      1901      1906      1908      1905      1901      1906      1914
      1906      1908      1911      1913      1906      1908      1911      1917
      1906      1914      1917      1911      1906      1914      1917      1919
      1908      1906      1914      1916      1908      1906      1914      1917
      1908      1911      1917      1914      1908      1911      1917      1919
      1910      1908      1906      1914      1910      1908      1911      1913
      1910      1908      1911      1917      1911      1908      1906      1914
      1911      1917      1914      1916      1913      1911      1917      1914
      1913      1911      1917      1919      1916      1914      1917      1919
      1921      1926      1928      1930      1921      1926      1928      1931
      1921      1926      1934      1936      1921      1926      1934      1937
      1923      1921      1926      1928      1923      1921      1926      1934
      1924      1921      1926      1928      1924      1921      1926      1934
      1925      1921      1926      1928      1925      1921      1926      1934
      1926      1928      1931      1933      1926      1928      1931      1937
      1926      1934      1937      1931      1926      1934      1937      1939
      1928      1926      1934      1936      1928      1926      1934      1937
      1928      1931      1937      1934      1928      1931      1937      1939
      1930      1928      1926      1934      1930      1928      1931      1933
      1930      1928      1931      1937      1931      1928      1926      1934
      1931      1937      1934      1936      1933      1931      1937      1934
      1933      1931      1937      1939      1936      1934      1937      1939
      1941      1946      1948      1950      1941      1946      1948      1951
      1941      1946      1954      1956      1941      1946      1954      1957
      1943      1941      1946      1948      1943      1941      1946      1954
      1944      1941      1946      1948      1944      1941      1946      1954
      1945      1941      1946      1948      1945      1941      1946      1954
      1946      1948      1951      1953      1946      1948      1951      1957
      1946      1954      1957      1951      1946      1954      1957      1959
      1948      1946      1954      1956      1948      1946      1954      1957
      1948      1951      1957      1954      1948      1951      1957      1959
      1950      1948      1946      1954      1950      1948      1951      1953
      1950      1948      1951      1957      1951      1948      1946      1954
      1951      1957      1954      1956      1953      1951      1957      1954
      1953      1951      1957      1959      1956      1954      1957      1959
      1961      1966      1968      1970      1961      1966      1968      1971
      1961      1966      1974      1976      1961      1966      1974      1977
      1963      1961      1966      1968      1963      1961      1966      1974
      1964      1961      1966      1968      1964      1961      1966      1974
      1965      1961      1966      1968      1965      1961      1966      1974
      1966      1968      1971      1973      1966      1968      1971      1977
      1966      1974      1977      1971      1966      1974      1977      1979
      1968      1966      1974      1976      1968      1966      1974      1977
      1968      1971      1977      1974      1968      1971      1977      1979
      1970      1968      1966      1974      1970      1968      1971      1973
      1970      1968      1971      1977      1971      1968      1966      1974
      1971      1977      1974      1976      1973      1971      1977      1974
      1973      1971      1977      1979      1976      1974      1977      1979
      1981      1986      1988      1990      1981      1986      1988      1991
      1981      1986      1994      1996      1981      1986      1994      1997
      1983      1981      1986      1988      1983      1981      1986      1994
      1984      1981      1986      1988      1984      1981      1986      1994
      1985      1981      1986      1988      1985      1981      1986      1994
      1986      1988      1991      1993      1986      1988      1991      1997
      1986      1994      1997      1991      1986      1994      1997      1999
      1988      1986      1994      1996      1988      1986      1994      1997
      1988      1991      1997      1994      1988      1991      1997      1999
      1990      1988      1986      1994      1990      1988      1991      1993
      1990      1988      1991      1997      1991      1988      1986      1994
      1991      1997      1994      1996      1993      1991      1997      1994
      1993      1991      1997      1999      1996      1994      1997      1999
      2001      2006      2008      2010      2001      2006      2008      2011
      2001      2006      2014      2016      2001      2006      2014      2017
      2003      2001      2006      2008      2003      2001      2006      2014
      2004      2001      2006      2008      2004      2001      2006      2014
      2005      2001      2006      2008      2005      2001      2006      2014
      2006      2008      2011      2013      2006      2008      2011      2017
      2006      2014      2017      2011      2006      2014      2017      2019
      2008      2006      2014      2016      2008      2006      2014      2017
      2008      2011      2017      2014      2008      2011      2017      2019
      2010      2008      2006      2014      2010      2008      2011      2013
      2010      2008      2011      2017      2011      2008      2006      2014
      2011      2017      2014      2016      2013      2011      2017      2014
      2013      2011      2017      2019      2016      2014      2017      2019
      2021      2026      2028      2030      2021      2026      2028      2031
      2021      2026      2034      2036      2021      2026      2034      2037
      2023      2021      2026      2028      2023      2021      2026      2034
      2024      2021      2026      2028      2024      2021      2026      2034
      2025      2021      2026      2028      2025      2021      2026      2034
      2026      2028      2031      2033      2026      2028      2031      2037
      2026      2034      2037      2031      2026      2034      2037      2039
      2028      2026      2034      2036      2028      2026      2034      2037
      2028      2031      2037      2034      2028      2031      2037      2039
      2030      2028      2026      2034      2030      2028      2031      2033
      2030      2028      2031      2037      2031      2028      2026      2034
      2031      2037      2034      2036      2033      2031      2037      2034
      2033      2031      2037      2039      2036      2034      2037      2039
      2041      2046      2048      2050      2041      2046      2048      2051
      2041      2046      2054      2056      2041      2046      2054      2057
      2043      2041      2046      2048      2043      2041      2046      2054
      2044      2041      2046      2048      2044      2041      2046      2054
      2045      2041      2046      2048      2045      2041      2046      2054
      2046      2048      2051      2053      2046      2048      2051      2057
      2046      2054      2057      2051      2046      2054      2057      2059
      2048      2046      2054      2056      2048      2046      2054      2057
      2048      2051      2057      2054      2048      2051      2057      2059
      2050      2048      2046      2054      2050      2048      2051      2053
      2050      2048      2051      2057      2051      2048      2046      2054
      2051      2057      2054      2056      2053      2051      2057      2054
      2053      2051      2057      2059      2056      2054      2057      2059
      2061      2066      2068      2070      2061      2066      2068      2071
      2061      2066      2074      2076      2061      2066      2074      2077
      2063      2061      2066      2068      2063      2061      2066      2074
      2064      2061      2066      2068      2064      2061      2066      2074
      2065      2061      2066      2068      2065      2061      2066      2074
      2066      2068      2071      2073      2066      2068      2071      2077
      2066      2074      2077      2071      2066      2074      2077      2079
      2068      2066      2074      2076      2068      2066      2074      2077
      2068      2071      2077      2074      2068      2071      2077      2079
      2070      2068      2066      2074      2070      2068      2071      2073
      2070      2068      2071      2077      2071      2068      2066      2074
      2071      2077      2074      2076      2073      2071      2077      2074
      2073      2071      2077      2079      2076      2074      2077      2079
      2081      2086      2088      2090      2081      2086      2088      2091
      2081      2086      2094      2096      2081      2086      2094      2097
      2083      2081      2086      2088      2083      2081      2086      2094
      2084      2081      2086      2088      2084      2081      2086      2094
      2085      2081      2086      2088      2085      2081      2086      2094
      2086      2088      2091      2093      2086      2088      2091      2097
      2086      2094      2097      2091      2086      2094      2097      2099
      2088      2086      2094      2096      2088      2086      2094      2097
      2088      2091      2097      2094      2088      2091      2097      2099
      2090      2088      2086      2094      2090      2088      2091      2093
      2090      2088      2091      2097      2091      2088      2086      2094
      2091      2097      2094      2096      2093      2091      2097      2094
      2093      2091      2097      2099      2096      2094      2097      2099
      2101      2106      2108      2110      2101      2106      2108      2111
      2101      2106      2114      2116      2101      2106      2114      2117
      2103      2101      2106      2108      2103      2101      2106      2114
      2104      2101      2106      2108      2104      2101      2106      2114
      2105      2101      2106      2108      2105      2101      2106      2114
      2106      2108      2111      2113      2106      2108      2111      2117
      2106      2114      2117      2111      2106      2114      2117      2119
      2108      2106      2114      2116      2108      2106      2114      2117
      2108      2111      2117      2114      2108      2111      2117      2119
      2110      2108      2106      2114      2110      2108      2111      2113
      2110      2108      2111      2117      2111      2108      2106      2114
      2111      2117      2114      2116      2113      2111      2117      2114
      2113      2111      2117      2119      2116      2114      2117      2119
      2121      2126      2128      2130      2121      2126      2128      2131
      2121      2126      2134      2136      2121      2126      2134      2137
      2123      2121      2126      2128      2123      2121      2126      2134
      2124      2121      2126      2128      2124      2121      2126      2134
      2125      2121      2126      2128      2125      2121      2126      2134
      2126      2128      2131      2133      2126      2128      2131      2137
      2126      2134      2137      2131      2126      2134      2137      2139
      2128      2126      2134      2136      2128      2126      2134      2137
      2128      2131      2137      2134      2128      2131      2137      2139
      2130      2128      2126      2134      2130      2128      2131      2133
      2130      2128      2131      2137      2131      2128      2126      2134
      2131      2137      2134      2136      2133      2131      2137      2134
      2133      2131      2137      2139      2136      2134      2137      2139
      2141      2146      2148      2150      2141      2146      2148      2151
      2141      2146      2154      2156      2141      2146      2154      2157
      2143      2141      2146      2148      2143      2141      2146      2154
      2144      2141      2146      2148      2144      2141      2146      2154
      2145      2141      2146      2148      2145      2141      2146      2154
      2146      2148      2151      2153      2146      2148      2151      2157
      2146      2154      2157      2151      2146      2154      2157      2159
      2148      2146      2154      2156      2148      2146      2154      2157
      2148      2151      2157      2154      2148      2151      2157      2159
      2150      2148      2146      2154      2150      2148      2151      2153
      2150      2148      2151      2157      2151      2148      2146      2154
      2151      2157      2154      2156      2153      2151      2157      2154
      2153      2151      2157      2159      2156      2154      2157      2159
      2161      2166      2168      2170      2161      2166      2168      2171
      2161      2166      2174      2176      2161      2166      2174      2177
      2163      2161      2166      2168      2163      2161      2166      2174
      2164      2161      2166      2168      2164      2161      2166      2174
      2165      2161      2166      2168      2165      2161      2166      2174
      2166      2168      2171      2173      2166      2168      2171      2177
      2166      2174      2177      2171      2166      2174      2177      2179
      2168      2166      2174      2176      2168      2166      2174      2177
      2168      2171      2177      2174      2168      2171      2177      2179
      2170      2168      2166      2174      2170      2168      2171      2173
      2170      2168      2171      2177      2171      2168      2166      2174
      2171      2177      2174      2176      2173      2171      2177      2174
      2173      2171      2177      2179      2176      2174      2177      2179
      2181      2186      2188      2190      2181      2186      2188      2191
      2181      2186      2194      2196      2181      2186      2194      2197
      2183      2181      2186      2188      2183      2181      2186      2194
      2184      2181      2186      2188      2184      2181      2186      2194
      2185      2181      2186      2188      2185      2181      2186      2194
      2186      2188      2191      2193      2186      2188      2191      2197
      2186      2194      2197      2191      2186      2194      2197      2199
      2188      2186      2194      2196      2188      2186      2194      2197
      2188      2191      2197      2194      2188      2191      2197      2199
      2190      2188      2186      2194      2190      2188      2191      2193
      2190      2188      2191      2197      2191      2188      2186      2194
      2191      2197      2194      2196      2193      2191      2197      2194
      2193      2191      2197      2199      2196      2194      2197      2199
      2201      2206      2208      2210      2201      2206      2208      2211
      2201      2206      2214      2216      2201      2206      2214      2217
      2203      2201      2206      2208      2203      2201      2206      2214
      2204      2201      2206      2208      2204      2201      2206      2214
      2205      2201      2206      2208      2205      2201      2206      2214
      2206      2208      2211      2213      2206      2208      2211      2217
      2206      2214      2217      2211      2206      2214      2217      2219
      2208      2206      2214      2216      2208      2206      2214      2217
      2208      2211      2217      2214      2208      2211      2217      2219
      2210      2208      2206      2214      2210      2208      2211      2213
      2210      2208      2211      2217      2211      2208      2206      2214
      2211      2217      2214      2216      2213      2211      2217      2214
      2213      2211      2217      2219      2216      2214      2217      2219
      2221      2226      2228      2230      2221      2226      2228      2231
      2221      2226      2234      2236      2221      2226      2234      2237
      2223      2221      2226      2228      2223      2221      2226      2234
      2224      2221      2226      2228      2224      2221      2226      2234
      2225      2221      2226      2228      2225      2221      2226      2234
      2226      2228      2231      2233      2226      2228      2231      2237
      2226      2234      2237      2231      2226      2234      2237      2239
      2228      2226      2234      2236      2228      2226      2234      2237
      2228      2231      2237      2234      2228      2231      2237      2239
      2230      2228      2226      2234      2230      2228      2231      2233
      2230      2228      2231      2237      2231      2228      2226      2234
      2231      2237      2234      2236      2233      2231      2237      2234
      2233      2231      2237      2239      2236      2234      2237      2239
      2241      2246      2248      2250      2241      2246      2248      2251
      2241      2246      2254      2256      2241      2246      2254      2257
      2243      2241      2246      2248      2243      2241      2246      2254
      2244      2241      2246      2248      2244      2241      2246      2254
      2245      2241      2246      2248      2245      2241      2246      2254
      2246      2248      2251      2253      2246      2248      2251      2257
      2246      2254      2257      2251      2246      2254      2257      2259
      2248      2246      2254      2256      2248      2246      2254      2257
      2248      2251      2257      2254      2248      2251      2257      2259
      2250      2248      2246      2254      2250      2248      2251      2253
      2250      2248      2251      2257      2251      2248      2246      2254
      2251      2257      2254      2256      2253      2251      2257      2254
      2253      2251      2257      2259      2256      2254      2257      2259
      2261      2266      2268      2270      2261      2266      2268      2271
      2261      2266      2274      2276      2261      2266      2274      2277
      2263      2261      2266      2268      2263      2261      2266      2274
      2264      2261      2266      2268      2264      2261      2266      2274
      2265      2261      2266      2268      2265      2261      2266      2274
      2266      2268      2271      2273      2266      2268      2271      2277
      2266      2274      2277      2271      2266      2274      2277      2279
      2268      2266      2274      2276      2268      2266      2274      2277
      2268      2271      2277      2274      2268      2271      2277      2279
      2270      2268      2266      2274      2270      2268      2271      2273
      2270      2268      2271      2277      2271      2268      2266      2274
      2271      2277      2274      2276      2273      2271      2277      2274
      2273      2271      2277      2279      2276      2274      2277      2279
      2281      2286      2288      2290      2281      2286      2288      2291
      2281      2286      2294      2296      2281      2286      2294      2297
      2283      2281      2286      2288      2283      2281      2286      2294
      2284      2281      2286      2288      2284      2281      2286      2294
      2285      2281      2286      2288      2285      2281      2286      2294
      2286      2288      2291      2293      2286      2288      2291      2297
      2286      2294      2297      2291      2286      2294      2297      2299
      2288      2286      2294      2296      2288      2286      2294      2297
      2288      2291      2297      2294      2288      2291      2297      2299
      2290      2288      2286      2294      2290      2288      2291      2293
      2290      2288      2291      2297      2291      2288      2286      2294
      2291      2297      2294      2296      2293      2291      2297      2294
      2293      2291      2297      2299      2296      2294      2297      2299
      2301      2306      2308      2310      2301      2306      2308      2311
      2301      2306      2314      2316      2301      2306      2314      2317
      2303      2301      2306      2308      2303      2301      2306      2314
      2304      2301      2306      2308      2304      2301      2306      2314
      2305      2301      2306      2308      2305      2301      2306      2314
      2306      2308      2311      2313      2306      2308      2311      2317
      2306      2314      2317      2311      2306      2314      2317      2319
      2308      2306      2314      2316      2308      2306      2314      2317
      2308      2311      2317      2314      2308      2311      2317      2319
      2310      2308      2306      2314      2310      2308      2311      2313
      2310      2308      2311      2317      2311      2308      2306      2314
      2311      2317      2314      2316      2313      2311      2317      2314
      2313      2311      2317      2319      2316      2314      2317      2319
      2321      2326      2328      2330      2321      2326      2328      2331
      2321      2326      2334      2336      2321      2326      2334      2337
      2323      2321      2326      2328      2323      2321      2326      2334
      2324      2321      2326      2328      2324      2321      2326      2334
      2325      2321      2326      2328      2325      2321      2326      2334
      2326      2328      2331      2333      2326      2328      2331      2337
      2326      2334      2337      2331      2326      2334      2337      2339
      2328      2326      2334      2336      2328      2326      2334      2337
      2328      2331      2337      2334      2328      2331      2337      2339
      2330      2328      2326      2334      2330      2328      2331      2333
      2330      2328      2331      2337      2331      2328      2326      2334
      2331      2337      2334      2336      2333      2331      2337      2334
      2333      2331      2337      2339      2336      2334      2337      2339
      2341      2346      2348      2350      2341      2346      2348      2351
      2341      2346      2354      2356      2341      2346      2354      2357
      2343      2341      2346      2348      2343      2341      2346      2354
      2344      2341      2346      2348      2344      2341      2346      2354
      2345      2341      2346      2348      2345      2341      2346      2354
      2346      2348      2351      2353      2346      2348      2351      2357
      2346      2354      2357      2351      2346      2354      2357      2359
      2348      2346      2354      2356      2348      2346      2354      2357
      2348      2351      2357      2354      2348      2351      2357      2359
      2350      2348      2346      2354      2350      2348      2351      2353
      2350      2348      2351      2357      2351      2348      2346      2354
      2351      2357      2354      2356      2353      2351      2357      2354
      2353      2351      2357      2359      2356      2354      2357      2359
      2361      2366      2368      2370      2361      2366      2368      2371
      2361      2366      2374      2376      2361      2366      2374      2377
      2363      2361      2366      2368      2363      2361      2366      2374
      2364      2361      2366      2368      2364      2361      2366      2374
      2365      2361      2366      2368      2365      2361      2366      2374
      2366      2368      2371      2373      2366      2368      2371      2377
      2366      2374      2377      2371      2366      2374      2377      2379
      2368      2366      2374      2376      2368      2366      2374      2377
      2368      2371      2377      2374      2368      2371      2377      2379
      2370      2368      2366      2374      2370      2368      2371      2373
      2370      2368      2371      2377      2371      2368      2366      2374
      2371      2377      2374      2376      2373      2371      2377      2374
      2373      2371      2377      2379      2376      2374      2377      2379
      2381      2386      2388      2390      2381      2386      2388      2391
      2381      2386      2394      2396      2381      2386      2394      2397
      2383      2381      2386      2388      2383      2381      2386      2394
      2384      2381      2386      2388      2384      2381      2386      2394
      2385      2381      2386      2388      2385      2381      2386      2394
      2386      2388      2391      2393      2386      2388      2391      2397
      2386      2394      2397      2391      2386      2394      2397      2399
      2388      2386      2394      2396      2388      2386      2394      2397
      2388      2391      2397      2394      2388      2391      2397      2399
      2390      2388      2386      2394      2390      2388      2391      2393
      2390      2388      2391      2397      2391      2388      2386      2394
      2391      2397      2394      2396      2393      2391      2397      2394
      2393      2391      2397      2399      2396      2394      2397      2399
      2401      2406      2408      2410      2401      2406      2408      2411
      2401      2406      2414      2416      2401      2406      2414      2417
      2403      2401      2406      2408      2403      2401      2406      2414
      2404      2401      2406      2408      2404      2401      2406      2414
      2405      2401      2406      2408      2405      2401      2406      2414
      2406      2408      2411      2413      2406      2408      2411      2417
      2406      2414      2417      2411      2406      2414      2417      2419
      2408      2406      2414      2416      2408      2406      2414      2417
      2408      2411      2417      2414      2408      2411      2417      2419
      2410      2408      2406      2414      2410      2408      2411      2413
      2410      2408      2411      2417      2411      2408      2406      2414
      2411      2417      2414      2416      2413      2411      2417      2414
      2413      2411      2417      2419      2416      2414      2417      2419
      2421      2426      2428      2430      2421      2426      2428      2431
      2421      2426      2434      2436      2421      2426      2434      2437
      2423      2421      2426      2428      2423      2421      2426      2434
      2424      2421      2426      2428      2424      2421      2426      2434
      2425      2421      2426      2428      2425      2421      2426      2434
      2426      2428      2431      2433      2426      2428      2431      2437
      2426      2434      2437      2431      2426      2434      2437      2439
      2428      2426      2434      2436      2428      2426      2434      2437
      2428      2431      2437      2434      2428      2431      2437      2439
      2430      2428      2426      2434      2430      2428      2431      2433
      2430      2428      2431      2437      2431      2428      2426      2434
      2431      2437      2434      2436      2433      2431      2437      2434
      2433      2431      2437      2439      2436      2434      2437      2439
      2441      2446      2448      2450      2441      2446      2448      2451
      2441      2446      2454      2456      2441      2446      2454      2457
      2443      2441      2446      2448      2443      2441      2446      2454
      2444      2441      2446      2448      2444      2441      2446      2454
      2445      2441      2446      2448      2445      2441      2446      2454
      2446      2448      2451      2453      2446      2448      2451      2457
      2446      2454      2457      2451      2446      2454      2457      2459
      2448      2446      2454      2456      2448      2446      2454      2457
      2448      2451      2457      2454      2448      2451      2457      2459
      2450      2448      2446      2454      2450      2448      2451      2453
      2450      2448      2451      2457      2451      2448      2446      2454
      2451      2457      2454      2456      2453      2451      2457      2454
      2453      2451      2457      2459      2456      2454      2457      2459
      2461      2466      2468      2470      2461      2466      2468      2471
      2461      2466      2474      2476      2461      2466      2474      2477
      2463      2461      2466      2468      2463      2461      2466      2474
      2464      2461      2466      2468      2464      2461      2466      2474
      2465      2461      2466      2468      2465      2461      2466      2474
      2466      2468      2471      2473      2466      2468      2471      2477
      2466      2474      2477      2471      2466      2474      2477      2479
      2468      2466      2474      2476      2468      2466      2474      2477
      2468      2471      2477      2474      2468      2471      2477      2479
      2470      2468      2466      2474      2470      2468      2471      2473
      2470      2468      2471      2477      2471      2468      2466      2474
      2471      2477      2474      2476      2473      2471      2477      2474
      2473      2471      2477      2479      2476      2474      2477      2479
      2481      2486      2488      2490      2481      2486      2488      2491
      2481      2486      2494      2496      2481      2486      2494      2497
      2483      2481      2486      2488      2483      2481      2486      2494
      2484      2481      2486      2488      2484      2481      2486      2494
      2485      2481      2486      2488      2485      2481      2486      2494
      2486      2488      2491      2493      2486      2488      2491      2497
      2486      2494      2497      2491      2486      2494      2497      2499
      2488      2486      2494      2496      2488      2486      2494      2497
      2488      2491      2497      2494      2488      2491      2497      2499
      2490      2488      2486      2494      2490      2488      2491      2493
      2490      2488      2491      2497      2491      2488      2486      2494
      2491      2497      2494      2496      2493      2491      2497      2494
      2493      2491      2497      2499      2496      2494      2497      2499
      2501      2506      2508      2510      2501      2506      2508      2511
      2501      2506      2514      2516      2501      2506      2514      2517
      2503      2501      2506      2508      2503      2501      2506      2514
      2504      2501      2506      2508      2504      2501      2506      2514
      2505      2501      2506      2508      2505      2501      2506      2514
      2506      2508      2511      2513      2506      2508      2511      2517
      2506      2514      2517      2511      2506      2514      2517      2519
      2508      2506      2514      2516      2508      2506      2514      2517
      2508      2511      2517      2514      2508      2511      2517      2519
      2510      2508      2506      2514      2510      2508      2511      2513
      2510      2508      2511      2517      2511      2508      2506      2514
      2511      2517      2514      2516      2513      2511      2517      2514
      2513      2511      2517      2519      2516      2514      2517      2519
      2521      2526      2528      2530      2521      2526      2528      2531
      2521      2526      2534      2536      2521      2526      2534      2537
      2523      2521      2526      2528      2523      2521      2526      2534
      2524      2521      2526      2528      2524      2521      2526      2534
      2525      2521      2526      2528      2525      2521      2526      2534
      2526      2528      2531      2533      2526      2528      2531      2537
      2526      2534      2537      2531      2526      2534      2537      2539
      2528      2526      2534      2536      2528      2526      2534      2537
      2528      2531      2537      2534      2528      2531      2537      2539
      2530      2528      2526      2534      2530      2528      2531      2533
      2530      2528      2531      2537      2531      2528      2526      2534
      2531      2537      2534      2536      2533      2531      2537      2534
      2533      2531      2537      2539      2536      2534      2537      2539
      2541      2546      2548      2550      2541      2546      2548      2551
      2541      2546      2554      2556      2541      2546      2554      2557
      2543      2541      2546      2548      2543      2541      2546      2554
      2544      2541      2546      2548      2544      2541      2546      2554
      2545      2541      2546      2548      2545      2541      2546      2554
      2546      2548      2551      2553      2546      2548      2551      2557
      2546      2554      2557      2551      2546      2554      2557      2559
      2548      2546      2554      2556      2548      2546      2554      2557
      2548      2551      2557      2554      2548      2551      2557      2559
      2550      2548      2546      2554      2550      2548      2551      2553
      2550      2548      2551      2557      2551      2548      2546      2554
      2551      2557      2554      2556      2553      2551      2557      2554
      2553      2551      2557      2559      2556      2554      2557      2559
      2561      2566      2568      2570      2561      2566      2568      2571
      2561      2566      2574      2576      2561      2566      2574      2577
      2563      2561      2566      2568      2563      2561      2566      2574
      2564      2561      2566      2568      2564      2561      2566      2574
      2565      2561      2566      2568      2565      2561      2566      2574
      2566      2568      2571      2573      2566      2568      2571      2577
      2566      2574      2577      2571      2566      2574      2577      2579
      2568      2566      2574      2576      2568      2566      2574      2577
      2568      2571      2577      2574      2568      2571      2577      2579
      2570      2568      2566      2574      2570      2568      2571      2573
      2570      2568      2571      2577      2571      2568      2566      2574
      2571      2577      2574      2576      2573      2571      2577      2574
      2573      2571      2577      2579      2576      2574      2577      2579
      2581      2586      2588      2590      2581      2586      2588      2591
      2581      2586      2594      2596      2581      2586      2594      2597
      2583      2581      2586      2588      2583      2581      2586      2594
      2584      2581      2586      2588      2584      2581      2586      2594
      2585      2581      2586      2588      2585      2581      2586      2594
      2586      2588      2591      2593      2586      2588      2591      2597
      2586      2594      2597      2591      2586      2594      2597      2599
      2588      2586      2594      2596      2588      2586      2594      2597
      2588      2591      2597      2594      2588      2591      2597      2599
      2590      2588      2586      2594      2590      2588      2591      2593
      2590      2588      2591      2597      2591      2588      2586      2594
      2591      2597      2594      2596      2593      2591      2597      2594
      2593      2591      2597      2599      2596      2594      2597      2599
      2601      2606      2608      2610      2601      2606      2608      2611
      2601      2606      2614      2616      2601      2606      2614      2617
      2603      2601      2606      2608      2603      2601      2606      2614
      2604      2601      2606      2608      2604      2601      2606      2614
      2605      2601      2606      2608      2605      2601      2606      2614
      2606      2608      2611      2613      2606      2608      2611      2617
      2606      2614      2617      2611      2606      2614      2617      2619
      2608      2606      2614      2616      2608      2606      2614      2617
      2608      2611      2617      2614      2608      2611      2617      2619
      2610      2608      2606      2614      2610      2608      2611      2613
      2610      2608      2611      2617      2611      2608      2606      2614
      2611      2617      2614      2616      2613      2611      2617      2614
      2613      2611      2617      2619      2616      2614      2617      2619
      2621      2626      2628      2630      2621      2626      2628      2631
      2621      2626      2634      2636      2621      2626      2634      2637
      2623      2621      2626      2628      2623      2621      2626      2634
      2624      2621      2626      2628      2624      2621      2626      2634
      2625      2621      2626      2628      2625      2621      2626      2634
      2626      2628      2631      2633      2626      2628      2631      2637
      2626      2634      2637      2631      2626      2634      2637      2639
      2628      2626      2634      2636      2628      2626      2634      2637
      2628      2631      2637      2634      2628      2631      2637      2639
      2630      2628      2626      2634      2630      2628      2631      2633
      2630      2628      2631      2637      2631      2628      2626      2634
      2631      2637      2634      2636      2633      2631      2637      2634
      2633      2631      2637      2639      2636      2634      2637      2639
      2641      2646      2648      2650      2641      2646      2648      2651
      2641      2646      2654      2656      2641      2646      2654      2657
      2643      2641      2646      2648      2643      2641      2646      2654
      2644      2641      2646      2648      2644      2641      2646      2654
      2645      2641      2646      2648      2645      2641      2646      2654
      2646      2648      2651      2653      2646      2648      2651      2657
      2646      2654      2657      2651      2646      2654      2657      2659
      2648      2646      2654      2656      2648      2646      2654      2657
      2648      2651      2657      2654      2648      2651      2657      2659
      2650      2648      2646      2654      2650      2648      2651      2653
      2650      2648      2651      2657      2651      2648      2646      2654
      2651      2657      2654      2656      2653      2651      2657      2654
      2653      2651      2657      2659      2656      2654      2657      2659
      2661      2666      2668      2670      2661      2666      2668      2671
      2661      2666      2674      2676      2661      2666      2674      2677
      2663      2661      2666      2668      2663      2661      2666      2674
      2664      2661      2666      2668      2664      2661      2666      2674
      2665      2661      2666      2668      2665      2661      2666      2674
      2666      2668      2671      2673      2666      2668      2671      2677
      2666      2674      2677      2671      2666      2674      2677      2679
      2668      2666      2674      2676      2668      2666      2674      2677
      2668      2671      2677      2674      2668      2671      2677      2679
      2670      2668      2666      2674      2670      2668      2671      2673
      2670      2668      2671      2677      2671      2668      2666      2674
      2671      2677      2674      2676      2673      2671      2677      2674
      2673      2671      2677      2679      2676      2674      2677      2679
      2681      2686      2688      2690      2681      2686      2688      2691
      2681      2686      2694      2696      2681      2686      2694      2697
      2683      2681      2686      2688      2683      2681      2686      2694
      2684      2681      2686      2688      2684      2681      2686      2694
      2685      2681      2686      2688      2685      2681      2686      2694
      2686      2688      2691      2693      2686      2688      2691      2697
      2686      2694      2697      2691      2686      2694      2697      2699
      2688      2686      2694      2696      2688      2686      2694      2697
      2688      2691      2697      2694      2688      2691      2697      2699
      2690      2688      2686      2694      2690      2688      2691      2693
      2690      2688      2691      2697      2691      2688      2686      2694
      2691      2697      2694      2696      2693      2691      2697      2694
      2693      2691      2697      2699      2696      2694      2697      2699
      2701      2706      2708      2710      2701      2706      2708      2711
      2701      2706      2714      2716      2701      2706      2714      2717
      2703      2701      2706      2708      2703      2701      2706      2714
      2704      2701      2706      2708      2704      2701      2706      2714
      2705      2701      2706      2708      2705      2701      2706      2714
      2706      2708      2711      2713      2706      2708      2711      2717
      2706      2714      2717      2711      2706      2714      2717      2719
      2708      2706      2714      2716      2708      2706      2714      2717
      2708      2711      2717      2714      2708      2711      2717      2719
      2710      2708      2706      2714      2710      2708      2711      2713
      2710      2708      2711      2717      2711      2708      2706      2714
      2711      2717      2714      2716      2713      2711      2717      2714
      2713      2711      2717      2719      2716      2714      2717      2719
      2721      2726      2728      2730      2721      2726      2728      2731
      2721      2726      2734      2736      2721      2726      2734      2737
      2723      2721      2726      2728      2723      2721      2726      2734
      2724      2721      2726      2728      2724      2721      2726      2734
      2725      2721      2726      2728      2725      2721      2726      2734
      2726      2728      2731      2733      2726      2728      2731      2737
      2726      2734      2737      2731      2726      2734      2737      2739
      2728      2726      2734      2736      2728      2726      2734      2737
      2728      2731      2737      2734      2728      2731      2737      2739
      2730      2728      2726      2734      2730      2728      2731      2733
      2730      2728      2731      2737      2731      2728      2726      2734
      2731      2737      2734      2736      2733      2731      2737      2734
      2733      2731      2737      2739      2736      2734      2737      2739
      2741      2746      2748      2750      2741      2746      2748      2751
      2741      2746      2754      2756      2741      2746      2754      2757
      2743      2741      2746      2748      2743      2741      2746      2754
      2744      2741      2746      2748      2744      2741      2746      2754
      2745      2741      2746      2748      2745      2741      2746      2754
      2746      2748      2751      2753      2746      2748      2751      2757
      2746      2754      2757      2751      2746      2754      2757      2759
      2748      2746      2754      2756      2748      2746      2754      2757
      2748      2751      2757      2754      2748      2751      2757      2759
      2750      2748      2746      2754      2750      2748      2751      2753
      2750      2748      2751      2757      2751      2748      2746      2754
      2751      2757      2754      2756      2753      2751      2757      2754
      2753      2751      2757      2759      2756      2754      2757      2759
      2761      2766      2768      2770      2761      2766      2768      2771
      2761      2766      2774      2776      2761      2766      2774      2777
      2763      2761      2766      2768      2763      2761      2766      2774
      2764      2761      2766      2768      2764      2761      2766      2774
      2765      2761      2766      2768      2765      2761      2766      2774
      2766      2768      2771      2773      2766      2768      2771      2777
      2766      2774      2777      2771      2766      2774      2777      2779
      2768      2766      2774      2776      2768      2766      2774      2777
      2768      2771      2777      2774      2768      2771      2777      2779
      2770      2768      2766      2774      2770      2768      2771      2773
      2770      2768      2771      2777      2771      2768      2766      2774
      2771      2777      2774      2776      2773      2771      2777      2774
      2773      2771      2777      2779      2776      2774      2777      2779
      2781      2786      2788      2790      2781      2786      2788      2791
      2781      2786      2794      2796      2781      2786      2794      2797
      2783      2781      2786      2788      2783      2781      2786      2794
      2784      2781      2786      2788      2784      2781      2786      2794
      2785      2781      2786      2788      2785      2781      2786      2794
      2786      2788      2791      2793      2786      2788      2791      2797
      2786      2794      2797      2791      2786      2794      2797      2799
      2788      2786      2794      2796      2788      2786      2794      2797
      2788      2791      2797      2794      2788      2791      2797      2799
      2790      2788      2786      2794      2790      2788      2791      2793
      2790      2788      2791      2797      2791      2788      2786      2794
      2791      2797      2794      2796      2793      2791      2797      2794
      2793      2791      2797      2799      2796      2794      2797      2799
      2801      2806      2808      2810      2801      2806      2808      2811
      2801      2806      2814      2816      2801      2806      2814      2817
      2803      2801      2806      2808      2803      2801      2806      2814
      2804      2801      2806      2808      2804      2801      2806      2814
      2805      2801      2806      2808      2805      2801      2806      2814
      2806      2808      2811      2813      2806      2808      2811      2817
      2806      2814      2817      2811      2806      2814      2817      2819
      2808      2806      2814      2816      2808      2806      2814      2817
      2808      2811      2817      2814      2808      2811      2817      2819
      2810      2808      2806      2814      2810      2808      2811      2813
      2810      2808      2811      2817      2811      2808      2806      2814
      2811      2817      2814      2816      2813      2811      2817      2814
      2813      2811      2817      2819      2816      2814      2817      2819
      2821      2826      2828      2830      2821      2826      2828      2831
      2821      2826      2834      2836      2821      2826      2834      2837
      2823      2821      2826      2828      2823      2821      2826      2834
      2824      2821      2826      2828      2824      2821      2826      2834
      2825      2821      2826      2828      2825      2821      2826      2834
      2826      2828      2831      2833      2826      2828      2831      2837
      2826      2834      2837      2831      2826      2834      2837      2839
      2828      2826      2834      2836      2828      2826      2834      2837
      2828      2831      2837      2834      2828      2831      2837      2839
      2830      2828      2826      2834      2830      2828      2831      2833
      2830      2828      2831      2837      2831      2828      2826      2834
      2831      2837      2834      2836      2833      2831      2837      2834
      2833      2831      2837      2839      2836      2834      2837      2839
      2841      2846      2848      2850      2841      2846      2848      2851
      2841      2846      2854      2856      2841      2846      2854      2857
      2843      2841      2846      2848      2843      2841      2846      2854
      2844      2841      2846      2848      2844      2841      2846      2854
      2845      2841      2846      2848      2845      2841      2846      2854
      2846      2848      2851      2853      2846      2848      2851      2857
      2846      2854      2857      2851      2846      2854      2857      2859
      2848      2846      2854      2856      2848      2846      2854      2857
      2848      2851      2857      2854      2848      2851      2857      2859
      2850      2848      2846      2854      2850      2848      2851      2853
      2850      2848      2851      2857      2851      2848      2846      2854
      2851      2857      2854      2856      2853      2851      2857      2854
      2853      2851      2857      2859      2856      2854      2857      2859
      2861      2866      2868      2870      2861      2866      2868      2871
      2861      2866      2874      2876      2861      2866      2874      2877
      2863      2861      2866      2868      2863      2861      2866      2874
      2864      2861      2866      2868      2864      2861      2866      2874
      2865      2861      2866      2868      2865      2861      2866      2874
      2866      2868      2871      2873      2866      2868      2871      2877
      2866      2874      2877      2871      2866      2874      2877      2879
      2868      2866      2874      2876      2868      2866      2874      2877
      2868      2871      2877      2874      2868      2871      2877      2879
      2870      2868      2866      2874      2870      2868      2871      2873
      2870      2868      2871      2877      2871      2868      2866      2874
      2871      2877      2874      2876      2873      2871      2877      2874
      2873      2871      2877      2879      2876      2874      2877      2879
      2881      2886      2888      2890      2881      2886      2888      2891
      2881      2886      2894      2896      2881      2886      2894      2897
      2883      2881      2886      2888      2883      2881      2886      2894
      2884      2881      2886      2888      2884      2881      2886      2894
      2885      2881      2886      2888      2885      2881      2886      2894
      2886      2888      2891      2893      2886      2888      2891      2897
      2886      2894      2897      2891      2886      2894      2897      2899
      2888      2886      2894      2896      2888      2886      2894      2897
      2888      2891      2897      2894      2888      2891      2897      2899
      2890      2888      2886      2894      2890      2888      2891      2893
      2890      2888      2891      2897      2891      2888      2886      2894
      2891      2897      2894      2896      2893      2891      2897      2894
      2893      2891      2897      2899      2896      2894      2897      2899
      2901      2906      2908      2910      2901      2906      2908      2911
      2901      2906      2914      2916      2901      2906      2914      2917
      2903      2901      2906      2908      2903      2901      2906      2914
      2904      2901      2906      2908      2904      2901      2906      2914
      2905      2901      2906      2908      2905      2901      2906      2914
      2906      2908      2911      2913      2906      2908      2911      2917
      2906      2914      2917      2911      2906      2914      2917      2919
      2908      2906      2914      2916      2908      2906      2914      2917
      2908      2911      2917      2914      2908      2911      2917      2919
      2910      2908      2906      2914      2910      2908      2911      2913
      2910      2908      2911      2917      2911      2908      2906      2914
      2911      2917      2914      2916      2913      2911      2917      2914
      2913      2911      2917      2919      2916      2914      2917      2919
      2921      2926      2928      2930      2921      2926      2928      2931
      2921      2926      2934      2936      2921      2926      2934      2937
      2923      2921      2926      2928      2923      2921      2926      2934
      2924      2921      2926      2928      2924      2921      2926      2934
      2925      2921      2926      2928      2925      2921      2926      2934
      2926      2928      2931      2933      2926      2928      2931      2937
      2926      2934      2937      2931      2926      2934      2937      2939
      2928      2926      2934      2936      2928      2926      2934      2937
      2928      2931      2937      2934      2928      2931      2937      2939
      2930      2928      2926      2934      2930      2928      2931      2933
      2930      2928      2931      2937      2931      2928      2926      2934
      2931      2937      2934      2936      2933      2931      2937      2934
      2933      2931      2937      2939      2936      2934      2937      2939
      2941      2946      2948      2950      2941      2946      2948      2951
      2941      2946      2954      2956      2941      2946      2954      2957
      2943      2941      2946      2948      2943      2941      2946      2954
      2944      2941      2946      2948      2944      2941      2946      2954
      2945      2941      2946      2948      2945      2941      2946      2954
      2946      2948      2951      2953      2946      2948      2951      2957
      2946      2954      2957      2951      2946      2954      2957      2959
      2948      2946      2954      2956      2948      2946      2954      2957
      2948      2951      2957      2954      2948      2951      2957      2959
      2950      2948      2946      2954      2950      2948      2951      2953
      2950      2948      2951      2957      2951      2948      2946      2954
      2951      2957      2954      2956      2953      2951      2957      2954
      2953      2951      2957      2959      2956      2954      2957      2959
      2961      2966      2968      2970      2961      2966      2968      2971
      2961      2966      2974      2976      2961      2966      2974      2977
      2963      2961      2966      2968      2963      2961      2966      2974
      2964      2961      2966      2968      2964      2961      2966      2974
      2965      2961      2966      2968      2965      2961      2966      2974
      2966      2968      2971      2973      2966      2968      2971      2977
      2966      2974      2977      2971      2966      2974      2977      2979
      2968      2966      2974      2976      2968      2966      2974      2977
      2968      2971      2977      2974      2968      2971      2977      2979
      2970      2968      2966      2974      2970      2968      2971      2973
      2970      2968      2971      2977      2971      2968      2966      2974
      2971      2977      2974      2976      2973      2971      2977      2974
      2973      2971      2977      2979      2976      2974      2977      2979
      2981      2986      2988      2990      2981      2986      2988      2991
      2981      2986      2994      2996      2981      2986      2994      2997
      2983      2981      2986      2988      2983      2981      2986      2994
      2984      2981      2986      2988      2984      2981      2986      2994
      2985      2981      2986      2988      2985      2981      2986      2994
      2986      2988      2991      2993      2986      2988      2991      2997
      2986      2994      2997      2991      2986      2994      2997      2999
      2988      2986      2994      2996      2988      2986      2994      2997
      2988      2991      2997      2994      2988      2991      2997      2999
      2990      2988      2986      2994      2990      2988      2991      2993
      2990      2988      2991      2997      2991      2988      2986      2994
      2991      2997      2994      2996      2993      2991      2997      2994
      2993      2991      2997      2999      2996      2994      2997      2999
      3001      3006      3008      3010      3001      3006      3008      3011
      3001      3006      3014      3016      3001      3006      3014      3017
      3003      3001      3006      3008      3003      3001      3006      3014
      3004      3001      3006      3008      3004      3001      3006      3014
      3005      3001      3006      3008      3005      3001      3006      3014
      3006      3008      3011      3013      3006      3008      3011      3017
      3006      3014      3017      3011      3006      3014      3017      3019
      3008      3006      3014      3016      3008      3006      3014      3017
      3008      3011      3017      3014      3008      3011      3017      3019
      3010      3008      3006      3014      3010      3008      3011      3013
      3010      3008      3011      3017      3011      3008      3006      3014
      3011      3017      3014      3016      3013      3011      3017      3014
      3013      3011      3017      3019      3016      3014      3017      3019
      3021      3026      3028      3030      3021      3026      3028      3031
      3021      3026      3034      3036      3021      3026      3034      3037
      3023      3021      3026      3028      3023      3021      3026      3034
      3024      3021      3026      3028      3024      3021      3026      3034
      3025      3021      3026      3028      3025      3021      3026      3034
      3026      3028      3031      3033      3026      3028      3031      3037
      3026      3034      3037      3031      3026      3034      3037      3039
      3028      3026      3034      3036      3028      3026      3034      3037
      3028      3031      3037      3034      3028      3031      3037      3039
      3030      3028      3026      3034      3030      3028      3031      3033
      3030      3028      3031      3037      3031      3028      3026      3034
      3031      3037      3034      3036      3033      3031      3037      3034
      3033      3031      3037      3039      3036      3034      3037      3039
      3041      3046      3048      3050      3041      3046      3048      3051
      3041      3046      3054      3056      3041      3046      3054      3057
      3043      3041      3046      3048      3043      3041      3046      3054
      3044      3041      3046      3048      3044      3041      3046      3054
      3045      3041      3046      3048      3045      3041      3046      3054
      3046      3048      3051      3053      3046      3048      3051      3057
      3046      3054      3057      3051      3046      3054      3057      3059
      3048      3046      3054      3056      3048      3046      3054      3057
      3048      3051      3057      3054      3048      3051      3057      3059
      3050      3048      3046      3054      3050      3048      3051      3053
      3050      3048      3051      3057      3051      3048      3046      3054
      3051      3057      3054      3056      3053      3051      3057      3054
      3053      3051      3057      3059      3056      3054      3057      3059
      3061      3066      3068      3070      3061      3066      3068      3071
      3061      3066      3074      3076      3061      3066      3074      3077
      3063      3061      3066      3068      3063      3061      3066      3074
      3064      3061      3066      3068      3064      3061      3066      3074
      3065      3061      3066      3068      3065      3061      3066      3074
      3066      3068      3071      3073      3066      3068      3071      3077
      3066      3074      3077      3071      3066      3074      3077      3079
      3068      3066      3074      3076      3068      3066      3074      3077
      3068      3071      3077      3074      3068      3071      3077      3079
      3070      3068      3066      3074      3070      3068      3071      3073
      3070      3068      3071      3077      3071      3068      3066      3074
      3071      3077      3074      3076      3073      3071      3077      3074
      3073      3071      3077      3079      3076      3074      3077      3079
      3081      3086      3088      3090      3081      3086      3088      3091
      3081      3086      3094      3096      3081      3086      3094      3097
      3083      3081      3086      3088      3083      3081      3086      3094
      3084      3081      3086      3088      3084      3081      3086      3094
      3085      3081      3086      3088      3085      3081      3086      3094
      3086      3088      3091      3093      3086      3088      3091      3097
      3086      3094      3097      3091      3086      3094      3097      3099
      3088      3086      3094      3096      3088      3086      3094      3097
      3088      3091      3097      3094      3088      3091      3097      3099
      3090      3088      3086      3094      3090      3088      3091      3093
      3090      3088      3091      3097      3091      3088      3086      3094
      3091      3097      3094      3096      3093      3091      3097      3094
      3093      3091      3097      3099      3096      3094      3097      3099
      3101      3106      3108      3110      3101      3106      3108      3111
      3101      3106      3114      3116      3101      3106      3114      3117
      3103      3101      3106      3108      3103      3101      3106      3114
      3104      3101      3106      3108      3104      3101      3106      3114
      3105      3101      3106      3108      3105      3101      3106      3114
      3106      3108      3111      3113      3106      3108      3111      3117
      3106      3114      3117      3111      3106      3114      3117      3119
      3108      3106      3114      3116      3108      3106      3114      3117
      3108      3111      3117      3114      3108      3111      3117      3119
      3110      3108      3106      3114      3110      3108      3111      3113
      3110      3108      3111      3117      3111      3108      3106      3114
      3111      3117      3114      3116      3113      3111      3117      3114
      3113      3111      3117      3119      3116      3114      3117      3119
      3121      3126      3128      3130      3121      3126      3128      3131
      3121      3126      3134      3136      3121      3126      3134      3137
      3123      3121      3126      3128      3123      3121      3126      3134
      3124      3121      3126      3128      3124      3121      3126      3134
      3125      3121      3126      3128      3125      3121      3126      3134
      3126      3128      3131      3133      3126      3128      3131      3137
      3126      3134      3137      3131      3126      3134      3137      3139
      3128      3126      3134      3136      3128      3126      3134      3137
      3128      3131      3137      3134      3128      3131      3137      3139
      3130      3128      3126      3134      3130      3128      3131      3133
      3130      3128      3131      3137      3131      3128      3126      3134
      3131      3137      3134      3136      3133      3131      3137      3134
      3133      3131      3137      3139      3136      3134      3137      3139
      3143      3141      3150      3152      3145      3143      3141      3148
      3145      3143      3141      3150      3146      3143      3141      3148
      3146      3143      3141      3150      3147      3143      3141      3148
      3147      3143      3141      3150      3148      3141      3150      3152
      3159      3157      3166      3168      3161      3159      3157      3164
      3161      3159      3157      3166      3162      3159      3157      3164
      3162      3159      3157      3166      3163      3159      3157      3164
      3163      3159      3157      3166      3164      3157      3166      3168
      3175      3173      3182      3184      3177      3175      3173      3180
      3177      3175      3173      3182      3178      3175      3173      3180
      3178      3175      3173      3182      3179      3175      3173      3180
      3179      3175      3173      3182      3180      3173      3182      3184
      3191      3189      3198      3200      3193      3191      3189      3196
      3193      3191      3189      3198      3194      3191      3189      3196
      3194      3191      3189      3198      3195      3191      3189      3196
      3195      3191      3189      3198      3196      3189      3198      3200
      3207      3205      3214      3216      3209      3207      3205      3212
      3209      3207      3205      3214      3210      3207      3205      3212
      3210      3207      3205      3214      3211      3207      3205      3212
      3211      3207      3205      3214      3212      3205      3214      3216
      3223      3221      3230      3232      3225      3223      3221      3228
      3225      3223      3221      3230      3226      3223      3221      3228
      3226      3223      3221      3230      3227      3223      3221      3228
      3227      3223      3221      3230      3228      3221      3230      3232
      3239      3237      3246      3248      3241      3239      3237      3244
      3241      3239      3237      3246      3242      3239      3237      3244
      3242      3239      3237      3246      3243      3239      3237      3244
      3243      3239      3237      3246      3244      3237      3246      3248
      3255      3253      3262      3264      3257      3255      3253      3260
      3257      3255      3253      3262      3258      3255      3253      3260
      3258      3255      3253      3262      3259      3255      3253      3260
      3259      3255      3253      3262      3260      3253      3262      3264
      3271      3269      3278      3280      3273      3271      3269      3276
      3273      3271      3269      3278      3274      3271      3269      3276
      3274      3271      3269      3278      3275      3271      3269      3276
      3275      3271      3269      3278      3276      3269      3278      3280
      3287      3285      3294      3296      3289      3287      3285      3292
      3289      3287      3285      3294      3290      3287      3285      3292
      3290      3287      3285      3294      3291      3287      3285      3292
      3291      3287      3285      3294      3292      3285      3294      3296
      3303      3301      3310      3312      3305      3303      3301      3308
      3305      3303      3301      3310      3306      3303      3301      3308
      3306      3303      3301      3310      3307      3303      3301      3308
      3307      3303      3301      3310      3308      3301      3310      3312
      3319      3317      3326      3328      3321      3319      3317      3324
      3321      3319      3317      3326      3322      3319      3317      3324
      3322      3319      3317      3326      3323      3319      3317      3324
      3323      3319      3317      3326      3324      3317      3326      3328
      3335      3333      3342      3344      3337      3335      3333      3340
      3337      3335      3333      3342      3338      3335      3333      3340
      3338      3335      3333      3342      3339      3335      3333      3340
      3339      3335      3333      3342      3340      3333      3342      3344
      3351      3349      3358      3360      3353      3351      3349      3356
      3353      3351      3349      3358      3354      3351      3349      3356
      3354      3351      3349      3358      3355      3351      3349      3356
      3355      3351      3349      3358      3356      3349      3358      3360
      3367      3365      3374      3376      3369      3367      3365      3372
      3369      3367      3365      3374      3370      3367      3365      3372
      3370      3367      3365      3374      3371      3367      3365      3372
      3371      3367      3365      3374      3372      3365      3374      3376
      3383      3381      3390      3392      3385      3383      3381      3388
      3385      3383      3381      3390      3386      3383      3381      3388
      3386      3383      3381      3390      3387      3383      3381      3388
      3387      3383      3381      3390      3388      3381      3390      3392
      3399      3397      3406      3408      3401      3399      3397      3404
      3401      3399      3397      3406      3402      3399      3397      3404
      3402      3399      3397      3406      3403      3399      3397      3404
      3403      3399      3397      3406      3404      3397      3406      3408
      3415      3413      3422      3424      3417      3415      3413      3420
      3417      3415      3413      3422      3418      3415      3413      3420
      3418      3415      3413      3422      3419      3415      3413      3420
      3419      3415      3413      3422      3420      3413      3422      3424
      3431      3429      3438      3440      3433      3431      3429      3436
      3433      3431      3429      3438      3434      3431      3429      3436
      3434      3431      3429      3438      3435      3431      3429      3436
      3435      3431      3429      3438      3436      3429      3438      3440
      3447      3445      3454      3456      3449      3447      3445      3452
      3449      3447      3445      3454      3450      3447      3445      3452
      3450      3447      3445      3454      3451      3447      3445      3452
      3451      3447      3445      3454      3452      3445      3454      3456
      3463      3461      3470      3472      3465      3463      3461      3468
      3465      3463      3461      3470      3466      3463      3461      3468
      3466      3463      3461      3470      3467      3463      3461      3468
      3467      3463      3461      3470      3468      3461      3470      3472
      3479      3477      3486      3488      3481      3479      3477      3484
      3481      3479      3477      3486      3482      3479      3477      3484
      3482      3479      3477      3486      3483      3479      3477      3484
      3483      3479      3477      3486      3484      3477      3486      3488
      3495      3493      3502      3504      3497      3495      3493      3500
      3497      3495      3493      3502      3498      3495      3493      3500
      3498      3495      3493      3502      3499      3495      3493      3500
      3499      3495      3493      3502      3500      3493      3502      3504
      3511      3509      3518      3520      3513      3511      3509      3516
      3513      3511      3509      3518      3514      3511      3509      3516
      3514      3511      3509      3518      3515      3511      3509      3516
      3515      3511      3509      3518      3516      3509      3518      3520
      3527      3525      3534      3536      3529      3527      3525      3532
      3529      3527      3525      3534      3530      3527      3525      3532
      3530      3527      3525      3534      3531      3527      3525      3532
      3531      3527      3525      3534      3532      3525      3534      3536
      3543      3541      3550      3552      3545      3543      3541      3548
      3545      3543      3541      3550      3546      3543      3541      3548
      3546      3543      3541      3550      3547      3543      3541      3548
      3547      3543      3541      3550      3548      3541      3550      3552
      3559      3557      3566      3568      3561      3559      3557      3564
      3561      3559      3557      3566      3562      3559      3557      3564
      3562      3559      3557      3566      3563      3559      3557      3564
      3563      3559      3557      3566      3564      3557      3566      3568
      3575      3573      3582      3584      3577      3575      3573      3580
      3577      3575      3573      3582      3578      3575      3573      3580
      3578      3575      3573      3582      3579      3575      3573      3580
      3579      3575      3573      3582      3580      3573      3582      3584
      3591      3589      3598      3600      3593      3591      3589      3596
      3593      3591      3589      3598      3594      3591      3589      3596
      3594      3591      3589      3598      3595      3591      3589      3596
      3595      3591      3589      3598      3596      3589      3598      3600
      3607      3605      3614      3616      3609      3607      3605      3612
      3609      3607      3605      3614      3610      3607      3605      3612
      3610      3607      3605      3614      3611      3607      3605      3612
      3611      3607      3605      3614      3612      3605      3614      3616
      3623      3621      3630      3632      3625      3623      3621      3628
      3625      3623      3621      3630      3626      3623      3621      3628
      3626      3623      3621      3630      3627      3623      3621      3628
      3627      3623      3621      3630      3628      3621      3630      3632
      3639      3637      3646      3648      3641      3639      3637      3644
      3641      3639      3637      3646      3642      3639      3637      3644
      3642      3639      3637      3646      3643      3639      3637      3644
      3643      3639      3637      3646      3644      3637      3646      3648
      3655      3653      3662      3664      3657      3655      3653      3660
      3657      3655      3653      3662      3658      3655      3653      3660
      3658      3655      3653      3662      3659      3655      3653      3660
      3659      3655      3653      3662      3660      3653      3662      3664
      3671      3669      3678      3680      3673      3671      3669      3676
      3673      3671      3669      3678      3674      3671      3669      3676
      3674      3671      3669      3678      3675      3671      3669      3676
      3675      3671      3669      3678      3676      3669      3678      3680
      3687      3685      3694      3696      3689      3687      3685      3692
      3689      3687      3685      3694      3690      3687      3685      3692
      3690      3687      3685      3694      3691      3687      3685      3692
      3691      3687      3685      3694      3692      3685      3694      3696
      3703      3701      3710      3712      3705      3703      3701      3708
      3705      3703      3701      3710      3706      3703      3701      3708
      3706      3703      3701      3710      3707      3703      3701      3708
      3707      3703      3701      3710      3708      3701      3710      3712
      3719      3717      3726      3728      3721      3719      3717      3724
      3721      3719      3717      3726      3722      3719      3717      3724
      3722      3719      3717      3726      3723      3719      3717      3724
      3723      3719      3717      3726      3724      3717      3726      3728
      3735      3733      3742      3744      3737      3735      3733      3740
      3737      3735      3733      3742      3738      3735      3733      3740
      3738      3735      3733      3742      3739      3735      3733      3740
      3739      3735      3733      3742      3740      3733      3742      3744
      3751      3749      3758      3760      3753      3751      3749      3756
      3753      3751      3749      3758      3754      3751      3749      3756
      3754      3751      3749      3758      3755      3751      3749      3756
      3755      3751      3749      3758      3756      3749      3758      3760
      3767      3765      3774      3776      3769      3767      3765      3772
      3769      3767      3765      3774      3770      3767      3765      3772
      3770      3767      3765      3774      3771      3767      3765      3772
      3771      3767      3765      3774      3772      3765      3774      3776
      3783      3781      3790      3792      3785      3783      3781      3788
      3785      3783      3781      3790      3786      3783      3781      3788
      3786      3783      3781      3790      3787      3783      3781      3788
      3787      3783      3781      3790      3788      3781      3790      3792
      3799      3797      3806      3808      3801      3799      3797      3804
      3801      3799      3797      3806      3802      3799      3797      3804
      3802      3799      3797      3806      3803      3799      3797      3804
      3803      3799      3797      3806      3804      3797      3806      3808
      3815      3813      3822      3824      3817      3815      3813      3820
      3817      3815      3813      3822      3818      3815      3813      3820
      3818      3815      3813      3822      3819      3815      3813      3820
      3819      3815      3813      3822      3820      3813      3822      3824
      3831      3829      3838      3840      3833      3831      3829      3836
      3833      3831      3829      3838      3834      3831      3829      3836
      3834      3831      3829      3838      3835      3831      3829      3836
      3835      3831      3829      3838      3836      3829      3838      3840
      3847      3845      3854      3856      3849      3847      3845      3852
      3849      3847      3845      3854      3850      3847      3845      3852
      3850      3847      3845      3854      3851      3847      3845      3852
      3851      3847      3845      3854      3852      3845      3854      3856
      3863      3861      3870      3872      3865      3863      3861      3868
      3865      3863      3861      3870      3866      3863      3861      3868
      3866      3863      3861      3870      3867      3863      3861      3868
      3867      3863      3861      3870      3868      3861      3870      3872
      3879      3877      3886      3888      3881      3879      3877      3884
      3881      3879      3877      3886      3882      3879      3877      3884
      3882      3879      3877      3886      3883      3879      3877      3884
      3883      3879      3877      3886      3884      3877      3886      3888
      3895      3893      3902      3904      3897      3895      3893      3900
      3897      3895      3893      3902      3898      3895      3893      3900
      3898      3895      3893      3902      3899      3895      3893      3900
      3899      3895      3893      3902      3900      3893      3902      3904
      3911      3909      3918      3920      3913      3911      3909      3916
      3913      3911      3909      3918      3914      3911      3909      3916
      3914      3911      3909      3918      3915      3911      3909      3916
      3915      3911      3909      3918      3916      3909      3918      3920
      3927      3925      3934      3936      3929      3927      3925      3932
      3929      3927      3925      3934      3930      3927      3925      3932
      3930      3927      3925      3934      3931      3927      3925      3932
      3931      3927      3925      3934      3932      3925      3934      3936
      3943      3941      3950      3952      3945      3943      3941      3948
      3945      3943      3941      3950      3946      3943      3941      3948
      3946      3943      3941      3950      3947      3943      3941      3948
      3947      3943      3941      3950      3948      3941      3950      3952
      3959      3957      3966      3968      3961      3959      3957      3964
      3961      3959      3957      3966      3962      3959      3957      3964
      3962      3959      3957      3966      3963      3959      3957      3964
      3963      3959      3957      3966      3964      3957      3966      3968
      3975      3973      3982      3984      3977      3975      3973      3980
      3977      3975      3973      3982      3978      3975      3973      3980
      3978      3975      3973      3982      3979      3975      3973      3980
      3979      3975      3973      3982      3980      3973      3982      3984
      3991      3989      3998      4000      3993      3991      3989      3996
      3993      3991      3989      3998      3994      3991      3989      3996
      3994      3991      3989      3998      3995      3991      3989      3996
      3995      3991      3989      3998      3996      3989      3998      4000
      4007      4005      4014      4016      4009      4007      4005      4012
      4009      4007      4005      4014      4010      4007      4005      4012
      4010      4007      4005      4014      4011      4007      4005      4012
      4011      4007      4005      4014      4012      4005      4014      4016
      4023      4021      4030      4032      4025      4023      4021      4028
      4025      4023      4021      4030      4026      4023      4021      4028
      4026      4023      4021      4030      4027      4023      4021      4028
      4027      4023      4021      4030      4028      4021      4030      4032
      4039      4037      4046      4048      4041      4039      4037      4044
      4041      4039      4037      4046      4042      4039      4037      4044
      4042      4039      4037      4046      4043      4039      4037      4044
      4043      4039      4037      4046      4044      4037      4046      4048
      4055      4053      4062      4064      4057      4055      4053      4060
      4057      4055      4053      4062      4058      4055      4053      4060
      4058      4055      4053      4062      4059      4055      4053      4060
      4059      4055      4053      4062      4060      4053      4062      4064
      4071      4069      4078      4080      4073      4071      4069      4076
      4073      4071      4069      4078      4074      4071      4069      4076
      4074      4071      4069      4078      4075      4071      4069      4076
      4075      4071      4069      4078      4076      4069      4078      4080
      4087      4085      4094      4096      4089      4087      4085      4092
      4089      4087      4085      4094      4090      4087      4085      4092
      4090      4087      4085      4094      4091      4087      4085      4092
      4091      4087      4085      4094      4092      4085      4094      4096
      4103      4101      4110      4112      4105      4103      4101      4108
      4105      4103      4101      4110      4106      4103      4101      4108
      4106      4103      4101      4110      4107      4103      4101      4108
      4107      4103      4101      4110      4108      4101      4110      4112
      4119      4117      4126      4128      4121      4119      4117      4124
      4121      4119      4117      4126      4122      4119      4117      4124
      4122      4119      4117      4126      4123      4119      4117      4124
      4123      4119      4117      4126      4124      4117      4126      4128
      4135      4133      4142      4144      4137      4135      4133      4140
      4137      4135      4133      4142      4138      4135      4133      4140
      4138      4135      4133      4142      4139      4135      4133      4140
      4139      4135      4133      4142      4140      4133      4142      4144
      4151      4149      4158      4160      4153      4151      4149      4156
      4153      4151      4149      4158      4154      4151      4149      4156
      4154      4151      4149      4158      4155      4151      4149      4156
      4155      4151      4149      4158      4156      4149      4158      4160
      4167      4165      4174      4176      4169      4167      4165      4172
      4169      4167      4165      4174      4170      4167      4165      4172
      4170      4167      4165      4174      4171      4167      4165      4172
      4171      4167      4165      4174      4172      4165      4174      4176
      4183      4181      4190      4192      4185      4183      4181      4188
      4185      4183      4181      4190      4186      4183      4181      4188
      4186      4183      4181      4190      4187      4183      4181      4188
      4187      4183      4181      4190      4188      4181      4190      4192
      4199      4197      4206      4208      4201      4199      4197      4204
      4201      4199      4197      4206      4202      4199      4197      4204
      4202      4199      4197      4206      4203      4199      4197      4204
      4203      4199      4197      4206      4204      4197      4206      4208
      4215      4213      4222      4224      4217      4215      4213      4220
      4217      4215      4213      4222      4218      4215      4213      4220
      4218      4215      4213      4222      4219      4215      4213      4220
      4219      4215      4213      4222      4220      4213      4222      4224
      4231      4229      4238      4240      4233      4231      4229      4236
      4233      4231      4229      4238      4234      4231      4229      4236
      4234      4231      4229      4238      4235      4231      4229      4236
      4235      4231      4229      4238      4236      4229      4238      4240
      4247      4245      4254      4256      4249      4247      4245      4252
      4249      4247      4245      4254      4250      4247      4245      4252
      4250      4247      4245      4254      4251      4247      4245      4252
      4251      4247      4245      4254      4252      4245      4254      4256
      4263      4261      4270      4272      4265      4263      4261      4268
      4265      4263      4261      4270      4266      4263      4261      4268
      4266      4263      4261      4270      4267      4263      4261      4268
      4267      4263      4261      4270      4268      4261      4270      4272
      4279      4277      4286      4288      4281      4279      4277      4284
      4281      4279      4277      4286      4282      4279      4277      4284
      4282      4279      4277      4286      4283      4279      4277      4284
      4283      4279      4277      4286      4284      4277      4286      4288
      4295      4293      4302      4304      4297      4295      4293      4300
      4297      4295      4293      4302      4298      4295      4293      4300
      4298      4295      4293      4302      4299      4295      4293      4300
      4299      4295      4293      4302      4300      4293      4302      4304
      4311      4309      4318      4320      4313      4311      4309      4316
      4313      4311      4309      4318      4314      4311      4309      4316
      4314      4311      4309      4318      4315      4311      4309      4316
      4315      4311      4309      4318      4316      4309      4318      4320
      4327      4325      4334      4336      4329      4327      4325      4332
      4329      4327      4325      4334      4330      4327      4325      4332
      4330      4327      4325      4334      4331      4327      4325      4332
      4331      4327      4325      4334      4332      4325      4334      4336
      4343      4341      4350      4352      4345      4343      4341      4348
      4345      4343      4341      4350      4346      4343      4341      4348
      4346      4343      4341      4350      4347      4343      4341      4348
      4347      4343      4341      4350      4348      4341      4350      4352
      4359      4357      4366      4368      4361      4359      4357      4364
      4361      4359      4357      4366      4362      4359      4357      4364
      4362      4359      4357      4366      4363      4359      4357      4364
      4363      4359      4357      4366      4364      4357      4366      4368
      4375      4373      4382      4384      4377      4375      4373      4380
      4377      4375      4373      4382      4378      4375      4373      4380
      4378      4375      4373      4382      4379      4375      4373      4380
      4379      4375      4373      4382      4380      4373      4382      4384
      4391      4389      4398      4400      4393      4391      4389      4396
      4393      4391      4389      4398      4394      4391      4389      4396
      4394      4391      4389      4398      4395      4391      4389      4396
      4395      4391      4389      4398      4396      4389      4398      4400
      4407      4405      4414      4416      4409      4407      4405      4412
      4409      4407      4405      4414      4410      4407      4405      4412
      4410      4407      4405      4414      4411      4407      4405      4412
      4411      4407      4405      4414      4412      4405      4414      4416
      4423      4421      4430      4432      4425      4423      4421      4428
      4425      4423      4421      4430      4426      4423      4421      4428
      4426      4423      4421      4430      4427      4423      4421      4428
      4427      4423      4421      4430      4428      4421      4430      4432
      4439      4437      4446      4448      4441      4439      4437      4444
      4441      4439      4437      4446      4442      4439      4437      4444
      4442      4439      4437      4446      4443      4439      4437      4444
      4443      4439      4437      4446      4444      4437      4446      4448
      4455      4453      4462      4464      4457      4455      4453      4460
      4457      4455      4453      4462      4458      4455      4453      4460
      4458      4455      4453      4462      4459      4455      4453      4460
      4459      4455      4453      4462      4460      4453      4462      4464
      4471      4469      4478      4480      4473      4471      4469      4476
      4473      4471      4469      4478      4474      4471      4469      4476
      4474      4471      4469      4478      4475      4471      4469      4476
      4475      4471      4469      4478      4476      4469      4478      4480
      4487      4485      4494      4496      4489      4487      4485      4492
      4489      4487      4485      4494      4490      4487      4485      4492
      4490      4487      4485      4494      4491      4487      4485      4492
      4491      4487      4485      4494      4492      4485      4494      4496
      4503      4501      4510      4512      4505      4503      4501      4508
      4505      4503      4501      4510      4506      4503      4501      4508
      4506      4503      4501      4510      4507      4503      4501      4508
      4507      4503      4501      4510      4508      4501      4510      4512
      4519      4517      4526      4528      4521      4519      4517      4524
      4521      4519      4517      4526      4522      4519      4517      4524
      4522      4519      4517      4526      4523      4519      4517      4524
      4523      4519      4517      4526      4524      4517      4526      4528
      4535      4533      4542      4544      4537      4535      4533      4540
      4537      4535      4533      4542      4538      4535      4533      4540
      4538      4535      4533      4542      4539      4535      4533      4540
      4539      4535      4533      4542      4540      4533      4542      4544
      4551      4549      4558      4560      4553      4551      4549      4556
      4553      4551      4549      4558      4554      4551      4549      4556
      4554      4551      4549      4558      4555      4551      4549      4556
      4555      4551      4549      4558      4556      4549      4558      4560
      4567      4565      4574      4576      4569      4567      4565      4572
      4569      4567      4565      4574      4570      4567      4565      4572
      4570      4567      4565      4574      4571      4567      4565      4572
      4571      4567      4565      4574      4572      4565      4574      4576
      4583      4581      4590      4592      4585      4583      4581      4588
      4585      4583      4581      4590      4586      4583      4581      4588
      4586      4583      4581      4590      4587      4583      4581      4588
      4587      4583      4581      4590      4588      4581      4590      4592
      4599      4597      4606      4608      4601      4599      4597      4604
      4601      4599      4597      4606      4602      4599      4597      4604
      4602      4599      4597      4606      4603      4599      4597      4604
      4603      4599      4597      4606      4604      4597      4606      4608
      4615      4613      4622      4624      4617      4615      4613      4620
      4617      4615      4613      4622      4618      4615      4613      4620
      4618      4615      4613      4622      4619      4615      4613      4620
      4619      4615      4613      4622      4620      4613      4622      4624
      4631      4629      4638      4640      4633      4631      4629      4636
      4633      4631      4629      4638      4634      4631      4629      4636
      4634      4631      4629      4638      4635      4631      4629      4636
      4635      4631      4629      4638      4636      4629      4638      4640
      4647      4645      4654      4656      4649      4647      4645      4652
      4649      4647      4645      4654      4650      4647      4645      4652
      4650      4647      4645      4654      4651      4647      4645      4652
      4651      4647      4645      4654      4652      4645      4654      4656
      4663      4661      4670      4672      4665      4663      4661      4668
      4665      4663      4661      4670      4666      4663      4661      4668
      4666      4663      4661      4670      4667      4663      4661      4668
      4667      4663      4661      4670      4668      4661      4670      4672
      4679      4677      4686      4688      4681      4679      4677      4684
      4681      4679      4677      4686      4682      4679      4677      4684
      4682      4679      4677      4686      4683      4679      4677      4684
      4683      4679      4677      4686      4684      4677      4686      4688
      4695      4693      4702      4704      4697      4695      4693      4700
      4697      4695      4693      4702      4698      4695      4693      4700
      4698      4695      4693      4702      4699      4695      4693      4700
      4699      4695      4693      4702      4700      4693      4702      4704
      4711      4709      4718      4720      4713      4711      4709      4716
      4713      4711      4709      4718      4714      4711      4709      4716
      4714      4711      4709      4718      4715      4711      4709      4716
      4715      4711      4709      4718      4716      4709      4718      4720
      4727      4725      4734      4736      4729      4727      4725      4732
      4729      4727      4725      4734      4730      4727      4725      4732
      4730      4727      4725      4734      4731      4727      4725      4732
      4731      4727      4725      4734      4732      4725      4734      4736
      4743      4741      4750      4752      4745      4743      4741      4748
      4745      4743      4741      4750      4746      4743      4741      4748
      4746      4743      4741      4750      4747      4743      4741      4748
      4747      4743      4741      4750      4748      4741      4750      4752
      4759      4757      4766      4768      4761      4759      4757      4764
      4761      4759      4757      4766      4762      4759      4757      4764
      4762      4759      4757      4766      4763      4759      4757      4764
      4763      4759      4757      4766      4764      4757      4766      4768
      4775      4773      4782      4784      4777      4775      4773      4780
      4777      4775      4773      4782      4778      4775      4773      4780
      4778      4775      4773      4782      4779      4775      4773      4780
      4779      4775      4773      4782      4780      4773      4782      4784
      4791      4789      4798      4800      4793      4791      4789      4796
      4793      4791      4789      4798      4794      4791      4789      4796
      4794      4791      4789      4798      4795      4791      4789      4796
      4795      4791      4789      4798      4796      4789      4798      4800
      4807      4805      4814      4816      4809      4807      4805      4812
      4809      4807      4805      4814      4810      4807      4805      4812
      4810      4807      4805      4814      4811      4807      4805      4812
      4811      4807      4805      4814      4812      4805      4814      4816
      4823      4821      4830      4832      4825      4823      4821      4828
      4825      4823      4821      4830      4826      4823      4821      4828
      4826      4823      4821      4830      4827      4823      4821      4828
      4827      4823      4821      4830      4828      4821      4830      4832
      4839      4837      4846      4848      4841      4839      4837      4844
      4841      4839      4837      4846      4842      4839      4837      4844
      4842      4839      4837      4846      4843      4839      4837      4844
      4843      4839      4837      4846      4844      4837      4846      4848
      4855      4853      4862      4864      4857      4855      4853      4860
      4857      4855      4853      4862      4858      4855      4853      4860
      4858      4855      4853      4862      4859      4855      4853      4860
      4859      4855      4853      4862      4860      4853      4862      4864
      4871      4869      4878      4880      4873      4871      4869      4876
      4873      4871      4869      4878      4874      4871      4869      4876
      4874      4871      4869      4878      4875      4871      4869      4876
      4875      4871      4869      4878      4876      4869      4878      4880
      4887      4885      4894      4896      4889      4887      4885      4892
      4889      4887      4885      4894      4890      4887      4885      4892
      4890      4887      4885      4894      4891      4887      4885      4892
      4891      4887      4885      4894      4892      4885      4894      4896
      4903      4901      4910      4912      4905      4903      4901      4908
      4905      4903      4901      4910      4906      4903      4901      4908
      4906      4903      4901      4910      4907      4903      4901      4908
      4907      4903      4901      4910      4908      4901      4910      4912
      4919      4917      4926      4928      4921      4919      4917      4924
      4921      4919      4917      4926      4922      4919      4917      4924
      4922      4919      4917      4926      4923      4919      4917      4924
      4923      4919      4917      4926      4924      4917      4926      4928
      4935      4933      4942      4944      4937      4935      4933      4940
      4937      4935      4933      4942      4938      4935      4933      4940
      4938      4935      4933      4942      4939      4935      4933      4940
      4939      4935      4933      4942      4940      4933      4942      4944
      4951      4949      4958      4960      4953      4951      4949      4956
      4953      4951      4949      4958      4954      4951      4949      4956
      4954      4951      4949      4958      4955      4951      4949      4956
      4955      4951      4949      4958      4956      4949      4958      4960
      4967      4965      4974      4976      4969      4967      4965      4972
      4969      4967      4965      4974      4970      4967      4965      4972
      4970      4967      4965      4974      4971      4967      4965      4972
      4971      4967      4965      4974      4972      4965      4974      4976
      4983      4981      4990      4992      4985      4983      4981      4988
      4985      4983      4981      4990      4986      4983      4981      4988
      4986      4983      4981      4990      4987      4983      4981      4988
      4987      4983      4981      4990      4988      4981      4990      4992
      4999      4997      5006      5008      5001      4999      4997      5004
      5001      4999      4997      5006      5002      4999      4997      5004
      5002      4999      4997      5006      5003      4999      4997      5004
      5003      4999      4997      5006      5004      4997      5006      5008
      5015      5013      5022      5024      5017      5015      5013      5020
      5017      5015      5013      5022      5018      5015      5013      5020
      5018      5015      5013      5022      5019      5015      5013      5020
      5019      5015      5013      5022      5020      5013      5022      5024
      5031      5029      5038      5040      5033      5031      5029      5036
      5033      5031      5029      5038      5034      5031      5029      5036
      5034      5031      5029      5038      5035      5031      5029      5036
      5035      5031      5029      5038      5036      5029      5038      5040
      5047      5045      5054      5056      5049      5047      5045      5052
      5049      5047      5045      5054      5050      5047      5045      5052
      5050      5047      5045      5054      5051      5047      5045      5052
      5051      5047      5045      5054      5052      5045      5054      5056
      5063      5061      5070      5072      5065      5063      5061      5068
      5065      5063      5061      5070      5066      5063      5061      5068
      5066      5063      5061      5070      5067      5063      5061      5068
      5067      5063      5061      5070      5068      5061      5070      5072
      5079      5077      5086      5088      5081      5079      5077      5084
      5081      5079      5077      5086      5082      5079      5077      5084
      5082      5079      5077      5086      5083      5079      5077      5084
      5083      5079      5077      5086      5084      5077      5086      5088
      5095      5093      5102      5104      5097      5095      5093      5100
      5097      5095      5093      5102      5098      5095      5093      5100
      5098      5095      5093      5102      5099      5095      5093      5100
      5099      5095      5093      5102      5100      5093      5102      5104
      5111      5109      5118      5120      5113      5111      5109      5116
      5113      5111      5109      5118      5114      5111      5109      5116
      5114      5111      5109      5118      5115      5111      5109      5116
      5115      5111      5109      5118      5116      5109      5118      5120
      5127      5125      5134      5136      5129      5127      5125      5132
      5129      5127      5125      5134      5130      5127      5125      5132
      5130      5127      5125      5134      5131      5127      5125      5132
      5131      5127      5125      5134      5132      5125      5134      5136
      5143      5141      5150      5152      5145      5143      5141      5148
      5145      5143      5141      5150      5146      5143      5141      5148
      5146      5143      5141      5150      5147      5143      5141      5148
      5147      5143      5141      5150      5148      5141      5150      5152
      5159      5157      5166      5168      5161      5159      5157      5164
      5161      5159      5157      5166      5162      5159      5157      5164
      5162      5159      5157      5166      5163      5159      5157      5164
      5163      5159      5157      5166      5164      5157      5166      5168
      5175      5173      5182      5184      5177      5175      5173      5180
      5177      5175      5173      5182      5178      5175      5173      5180
      5178      5175      5173      5182      5179      5175      5173      5180
      5179      5175      5173      5182      5180      5173      5182      5184
      5191      5189      5198      5200      5193      5191      5189      5196
      5193      5191      5189      5198      5194      5191      5189      5196
      5194      5191      5189      5198      5195      5191      5189      5196
      5195      5191      5189      5198      5196      5189      5198      5200
      5207      5205      5214      5216      5209      5207      5205      5212
      5209      5207      5205      5214      5210      5207      5205      5212
      5210      5207      5205      5214      5211      5207      5205      5212
      5211      5207      5205      5214      5212      5205      5214      5216
      5223      5221      5230      5232      5225      5223      5221      5228
      5225      5223      5221      5230      5226      5223      5221      5228
      5226      5223      5221      5230      5227      5223      5221      5228
      5227      5223      5221      5230      5228      5221      5230      5232
      5239      5237      5246      5248      5241      5239      5237      5244
      5241      5239      5237      5246      5242      5239      5237      5244
      5242      5239      5237      5246      5243      5239      5237      5244
      5243      5239      5237      5246      5244      5237      5246      5248
      5255      5253      5262      5264      5257      5255      5253      5260
      5257      5255      5253      5262      5258      5255      5253      5260
      5258      5255      5253      5262      5259      5255      5253      5260
      5259      5255      5253      5262      5260      5253      5262      5264
      5271      5269      5278      5280      5273      5271      5269      5276
      5273      5271      5269      5278      5274      5271      5269      5276
      5274      5271      5269      5278      5275      5271      5269      5276
      5275      5271      5269      5278      5276      5269      5278      5280
      5287      5285      5294      5296      5289      5287      5285      5292
      5289      5287      5285      5294      5290      5287      5285      5292
      5290      5287      5285      5294      5291      5287      5285      5292
      5291      5287      5285      5294      5292      5285      5294      5296
      5303      5301      5310      5312      5305      5303      5301      5308
      5305      5303      5301      5310      5306      5303      5301      5308
      5306      5303      5301      5310      5307      5303      5301      5308
      5307      5303      5301      5310      5308      5301      5310      5312
      5319      5317      5326      5328      5321      5319      5317      5324
      5321      5319      5317      5326      5322      5319      5317      5324
      5322      5319      5317      5326      5323      5319      5317      5324
      5323      5319      5317      5326      5324      5317      5326      5328
      5335      5333      5342      5344      5337      5335      5333      5340
      5337      5335      5333      5342      5338      5335      5333      5340
      5338      5335      5333      5342      5339      5335      5333      5340
      5339      5335      5333      5342      5340      5333      5342      5344
      5351      5349      5358      5360      5353      5351      5349      5356
      5353      5351      5349      5358      5354      5351      5349      5356
      5354      5351      5349      5358      5355      5351      5349      5356
      5355      5351      5349      5358      5356      5349      5358      5360
      5367      5365      5374      5376      5369      5367      5365      5372
      5369      5367      5365      5374      5370      5367      5365      5372
      5370      5367      5365      5374      5371      5367      5365      5372
      5371      5367      5365      5374      5372      5365      5374      5376
      5383      5381      5390      5392      5385      5383      5381      5388
      5385      5383      5381      5390      5386      5383      5381      5388
      5386      5383      5381      5390      5387      5383      5381      5388
      5387      5383      5381      5390      5388      5381      5390      5392
      5399      5397      5406      5408      5401      5399      5397      5404
      5401      5399      5397      5406      5402      5399      5397      5404
      5402      5399      5397      5406      5403      5399      5397      5404
      5403      5399      5397      5406      5404      5397      5406      5408
      5415      5413      5422      5424      5417      5415      5413      5420
      5417      5415      5413      5422      5418      5415      5413      5420
      5418      5415      5413      5422      5419      5415      5413      5420
      5419      5415      5413      5422      5420      5413      5422      5424
      5431      5429      5438      5440      5433      5431      5429      5436
      5433      5431      5429      5438      5434      5431      5429      5436
      5434      5431      5429      5438      5435      5431      5429      5436
      5435      5431      5429      5438      5436      5429      5438      5440
      5447      5445      5454      5456      5449      5447      5445      5452
      5449      5447      5445      5454      5450      5447      5445      5452
      5450      5447      5445      5454      5451      5447      5445      5452
      5451      5447      5445      5454      5452      5445      5454      5456
      5463      5461      5470      5472      5465      5463      5461      5468
      5465      5463      5461      5470      5466      5463      5461      5468
      5466      5463      5461      5470      5467      5463      5461      5468
      5467      5463      5461      5470      5468      5461      5470      5472
      5479      5477      5486      5488      5481      5479      5477      5484
      5481      5479      5477      5486      5482      5479      5477      5484
      5482      5479      5477      5486      5483      5479      5477      5484
      5483      5479      5477      5486      5484      5477      5486      5488
      5495      5493      5502      5504      5497      5495      5493      5500
      5497      5495      5493      5502      5498      5495      5493      5500
      5498      5495      5493      5502      5499      5495      5493      5500
      5499      5495      5493      5502      5500      5493      5502      5504
      5511      5509      5518      5520      5513      5511      5509      5516
      5513      5511      5509      5518      5514      5511      5509      5516
      5514      5511      5509      5518      5515      5511      5509      5516
      5515      5511      5509      5518      5516      5509      5518      5520
      5527      5525      5534      5536      5529      5527      5525      5532
      5529      5527      5525      5534      5530      5527      5525      5532
      5530      5527      5525      5534      5531      5527      5525      5532
      5531      5527      5525      5534      5532      5525      5534      5536
      5541      5546      5548      5550      5541      5546      5548      5551
      5541      5546      5554      5556      5541      5546      5554      5557
      5543      5541      5546      5548      5543      5541      5546      5554
      5544      5541      5546      5548      5544      5541      5546      5554
      5545      5541      5546      5548      5545      5541      5546      5554
      5546      5548      5551      5553      5546      5548      5551      5557
      5546      5554      5557      5551      5546      5554      5557      5559
      5548      5546      5554      5556      5548      5546      5554      5557
      5548      5551      5557      5554      5548      5551      5557      5559
      5550      5548      5546      5554      5550      5548      5551      5553
      5550      5548      5551      5557      5551      5548      5546      5554
      5551      5557      5554      5556      5553      5551      5557      5554
      5553      5551      5557      5559      5556      5554      5557      5559
      5561      5566      5568      5570      5561      5566      5568      5571
      5561      5566      5574      5576      5561      5566      5574      5577
      5563      5561      5566      5568      5563      5561      5566      5574
      5564      5561      5566      5568      5564      5561      5566      5574
      5565      5561      5566      5568      5565      5561      5566      5574
      5566      5568      5571      5573      5566      5568      5571      5577
      5566      5574      5577      5571      5566      5574      5577      5579
      5568      5566      5574      5576      5568      5566      5574      5577
      5568      5571      5577      5574      5568      5571      5577      5579
      5570      5568      5566      5574      5570      5568      5571      5573
      5570      5568      5571      5577      5571      5568      5566      5574
      5571      5577      5574      5576      5573      5571      5577      5574
      5573      5571      5577      5579      5576      5574      5577      5579
      5581      5586      5588      5590      5581      5586      5588      5591
      5581      5586      5594      5596      5581      5586      5594      5597
      5583      5581      5586      5588      5583      5581      5586      5594
      5584      5581      5586      5588      5584      5581      5586      5594
      5585      5581      5586      5588      5585      5581      5586      5594
      5586      5588      5591      5593      5586      5588      5591      5597
      5586      5594      5597      5591      5586      5594      5597      5599
      5588      5586      5594      5596      5588      5586      5594      5597
      5588      5591      5597      5594      5588      5591      5597      5599
      5590      5588      5586      5594      5590      5588      5591      5593
      5590      5588      5591      5597      5591      5588      5586      5594
      5591      5597      5594      5596      5593      5591      5597      5594
      5593      5591      5597      5599      5596      5594      5597      5599
      5601      5606      5608      5610      5601      5606      5608      5611
      5601      5606      5614      5616      5601      5606      5614      5617
      5603      5601      5606      5608      5603      5601      5606      5614
      5604      5601      5606      5608      5604      5601      5606      5614
      5605      5601      5606      5608      5605      5601      5606      5614
      5606      5608      5611      5613      5606      5608      5611      5617
      5606      5614      5617      5611      5606      5614      5617      5619
      5608      5606      5614      5616      5608      5606      5614      5617
      5608      5611      5617      5614      5608      5611      5617      5619
      5610      5608      5606      5614      5610      5608      5611      5613
      5610      5608      5611      5617      5611      5608      5606      5614
      5611      5617      5614      5616      5613      5611      5617      5614
      5613      5611      5617      5619      5616      5614      5617      5619
      5621      5626      5628      5630      5621      5626      5628      5631
      5621      5626      5634      5636      5621      5626      5634      5637
      5623      5621      5626      5628      5623      5621      5626      5634
      5624      5621      5626      5628      5624      5621      5626      5634
      5625      5621      5626      5628      5625      5621      5626      5634
      5626      5628      5631      5633      5626      5628      5631      5637
      5626      5634      5637      5631      5626      5634      5637      5639
      5628      5626      5634      5636      5628      5626      5634      5637
      5628      5631      5637      5634      5628      5631      5637      5639
      5630      5628      5626      5634      5630      5628      5631      5633
      5630      5628      5631      5637      5631      5628      5626      5634
      5631      5637      5634      5636      5633      5631      5637      5634
      5633      5631      5637      5639      5636      5634      5637      5639
      5641      5646      5648      5650      5641      5646      5648      5651
      5641      5646      5654      5656      5641      5646      5654      5657
      5643      5641      5646      5648      5643      5641      5646      5654
      5644      5641      5646      5648      5644      5641      5646      5654
      5645      5641      5646      5648      5645      5641      5646      5654
      5646      5648      5651      5653      5646      5648      5651      5657
      5646      5654      5657      5651      5646      5654      5657      5659
      5648      5646      5654      5656      5648      5646      5654      5657
      5648      5651      5657      5654      5648      5651      5657      5659
      5650      5648      5646      5654      5650      5648      5651      5653
      5650      5648      5651      5657      5651      5648      5646      5654
      5651      5657      5654      5656      5653      5651      5657      5654
      5653      5651      5657      5659      5656      5654      5657      5659
      5661      5666      5668      5670      5661      5666      5668      5671
      5661      5666      5674      5676      5661      5666      5674      5677
      5663      5661      5666      5668      5663      5661      5666      5674
      5664      5661      5666      5668      5664      5661      5666      5674
      5665      5661      5666      5668      5665      5661      5666      5674
      5666      5668      5671      5673      5666      5668      5671      5677
      5666      5674      5677      5671      5666      5674      5677      5679
      5668      5666      5674      5676      5668      5666      5674      5677
      5668      5671      5677      5674      5668      5671      5677      5679
      5670      5668      5666      5674      5670      5668      5671      5673
      5670      5668      5671      5677      5671      5668      5666      5674
      5671      5677      5674      5676      5673      5671      5677      5674
      5673      5671      5677      5679      5676      5674      5677      5679
      5681      5686      5688      5690      5681      5686      5688      5691
      5681      5686      5694      5696      5681      5686      5694      5697
      5683      5681      5686      5688      5683      5681      5686      5694
      5684      5681      5686      5688      5684      5681      5686      5694
      5685      5681      5686      5688      5685      5681      5686      5694
      5686      5688      5691      5693      5686      5688      5691      5697
      5686      5694      5697      5691      5686      5694      5697      5699
      5688      5686      5694      5696      5688      5686      5694      5697
      5688      5691      5697      5694      5688      5691      5697      5699
      5690      5688      5686      5694      5690      5688      5691      5693
      5690      5688      5691      5697      5691      5688      5686      5694
      5691      5697      5694      5696      5693      5691      5697      5694
      5693      5691      5697      5699      5696      5694      5697      5699
      5701      5706      5708      5710      5701      5706      5708      5711
      5701      5706      5714      5716      5701      5706      5714      5717
      5703      5701      5706      5708      5703      5701      5706      5714
      5704      5701      5706      5708      5704      5701      5706      5714
      5705      5701      5706      5708      5705      5701      5706      5714
      5706      5708      5711      5713      5706      5708      5711      5717
      5706      5714      5717      5711      5706      5714      5717      5719
      5708      5706      5714      5716      5708      5706      5714      5717
      5708      5711      5717      5714      5708      5711      5717      5719
      5710      5708      5706      5714      5710      5708      5711      5713
      5710      5708      5711      5717      5711      5708      5706      5714
      5711      5717      5714      5716      5713      5711      5717      5714
      5713      5711      5717      5719      5716      5714      5717      5719
      5721      5726      5728      5730      5721      5726      5728      5731
      5721      5726      5734      5736      5721      5726      5734      5737
      5723      5721      5726      5728      5723      5721      5726      5734
      5724      5721      5726      5728      5724      5721      5726      5734
      5725      5721      5726      5728      5725      5721      5726      5734
      5726      5728      5731      5733      5726      5728      5731      5737
      5726      5734      5737      5731      5726      5734      5737      5739
      5728      5726      5734      5736      5728      5726      5734      5737
      5728      5731      5737      5734      5728      5731      5737      5739
      5730      5728      5726      5734      5730      5728      5731      5733
      5730      5728      5731      5737      5731      5728      5726      5734
      5731      5737      5734      5736      5733      5731      5737      5734
      5733      5731      5737      5739      5736      5734      5737      5739
      5741      5746      5748      5750      5741      5746      5748      5751
      5741      5746      5754      5756      5741      5746      5754      5757
      5743      5741      5746      5748      5743      5741      5746      5754
      5744      5741      5746      5748      5744      5741      5746      5754
      5745      5741      5746      5748      5745      5741      5746      5754
      5746      5748      5751      5753      5746      5748      5751      5757
      5746      5754      5757      5751      5746      5754      5757      5759
      5748      5746      5754      5756      5748      5746      5754      5757
      5748      5751      5757      5754      5748      5751      5757      5759
      5750      5748      5746      5754      5750      5748      5751      5753
      5750      5748      5751      5757      5751      5748      5746      5754
      5751      5757      5754      5756      5753      5751      5757      5754
      5753      5751      5757      5759      5756      5754      5757      5759
      5761      5766      5768      5770      5761      5766      5768      5771
      5761      5766      5774      5776      5761      5766      5774      5777
      5763      5761      5766      5768      5763      5761      5766      5774
      5764      5761      5766      5768      5764      5761      5766      5774
      5765      5761      5766      5768      5765      5761      5766      5774
      5766      5768      5771      5773      5766      5768      5771      5777
      5766      5774      5777      5771      5766      5774      5777      5779
      5768      5766      5774      5776      5768      5766      5774      5777
      5768      5771      5777      5774      5768      5771      5777      5779
      5770      5768      5766      5774      5770      5768      5771      5773
      5770      5768      5771      5777      5771      5768      5766      5774
      5771      5777      5774      5776      5773      5771      5777      5774
      5773      5771      5777      5779      5776      5774      5777      5779
      5781      5786      5788      5790      5781      5786      5788      5791
      5781      5786      5794      5796      5781      5786      5794      5797
      5783      5781      5786      5788      5783      5781      5786      5794
      5784      5781      5786      5788      5784      5781      5786      5794
      5785      5781      5786      5788      5785      5781      5786      5794
      5786      5788      5791      5793      5786      5788      5791      5797
      5786      5794      5797      5791      5786      5794      5797      5799
      5788      5786      5794      5796      5788      5786      5794      5797
      5788      5791      5797      5794      5788      5791      5797      5799
      5790      5788      5786      5794      5790      5788      5791      5793
      5790      5788      5791      5797      5791      5788      5786      5794
      5791      5797      5794      5796      5793      5791      5797      5794
      5793      5791      5797      5799      5796      5794      5797      5799
      5801      5806      5808      5810      5801      5806      5808      5811
      5801      5806      5814      5816      5801      5806      5814      5817
      5803      5801      5806      5808      5803      5801      5806      5814
      5804      5801      5806      5808      5804      5801      5806      5814
      5805      5801      5806      5808      5805      5801      5806      5814
      5806      5808      5811      5813      5806      5808      5811      5817
      5806      5814      5817      5811      5806      5814      5817      5819
      5808      5806      5814      5816      5808      5806      5814      5817
      5808      5811      5817      5814      5808      5811      5817      5819
      5810      5808      5806      5814      5810      5808      5811      5813
      5810      5808      5811      5817      5811      5808      5806      5814
      5811      5817      5814      5816      5813      5811      5817      5814
      5813      5811      5817      5819      5816      5814      5817      5819
      5821      5826      5828      5830      5821      5826      5828      5831
      5821      5826      5834      5836      5821      5826      5834      5837
      5823      5821      5826      5828      5823      5821      5826      5834
      5824      5821      5826      5828      5824      5821      5826      5834
      5825      5821      5826      5828      5825      5821      5826      5834
      5826      5828      5831      5833      5826      5828      5831      5837
      5826      5834      5837      5831      5826      5834      5837      5839
      5828      5826      5834      5836      5828      5826      5834      5837
      5828      5831      5837      5834      5828      5831      5837      5839
      5830      5828      5826      5834      5830      5828      5831      5833
      5830      5828      5831      5837      5831      5828      5826      5834
      5831      5837      5834      5836      5833      5831      5837      5834
      5833      5831      5837      5839      5836      5834      5837      5839
      5841      5846      5848      5850      5841      5846      5848      5851
      5841      5846      5854      5856      5841      5846      5854      5857
      5843      5841      5846      5848      5843      5841      5846      5854
      5844      5841      5846      5848      5844      5841      5846      5854
      5845      5841      5846      5848      5845      5841      5846      5854
      5846      5848      5851      5853      5846      5848      5851      5857
      5846      5854      5857      5851      5846      5854      5857      5859
      5848      5846      5854      5856      5848      5846      5854      5857
      5848      5851      5857      5854      5848      5851      5857      5859
      5850      5848      5846      5854      5850      5848      5851      5853
      5850      5848      5851      5857      5851      5848      5846      5854
      5851      5857      5854      5856      5853      5851      5857      5854
      5853      5851      5857      5859      5856      5854      5857      5859
      5861      5866      5868      5870      5861      5866      5868      5871
      5861      5866      5874      5876      5861      5866      5874      5877
      5863      5861      5866      5868      5863      5861      5866      5874
      5864      5861      5866      5868      5864      5861      5866      5874
      5865      5861      5866      5868      5865      5861      5866      5874
      5866      5868      5871      5873      5866      5868      5871      5877
      5866      5874      5877      5871      5866      5874      5877      5879
      5868      5866      5874      5876      5868      5866      5874      5877
      5868      5871      5877      5874      5868      5871      5877      5879
      5870      5868      5866      5874      5870      5868      5871      5873
      5870      5868      5871      5877      5871      5868      5866      5874
      5871      5877      5874      5876      5873      5871      5877      5874
      5873      5871      5877      5879      5876      5874      5877      5879
      5881      5886      5888      5890      5881      5886      5888      5891
      5881      5886      5894      5896      5881      5886      5894      5897
      5883      5881      5886      5888      5883      5881      5886      5894
      5884      5881      5886      5888      5884      5881      5886      5894
      5885      5881      5886      5888      5885      5881      5886      5894
      5886      5888      5891      5893      5886      5888      5891      5897
      5886      5894      5897      5891      5886      5894      5897      5899
      5888      5886      5894      5896      5888      5886      5894      5897
      5888      5891      5897      5894      5888      5891      5897      5899
      5890      5888      5886      5894      5890      5888      5891      5893
      5890      5888      5891      5897      5891      5888      5886      5894
      5891      5897      5894      5896      5893      5891      5897      5894
      5893      5891      5897      5899      5896      5894      5897      5899
      5901      5906      5908      5910      5901      5906      5908      5911
      5901      5906      5914      5916      5901      5906      5914      5917
      5903      5901      5906      5908      5903      5901      5906      5914
      5904      5901      5906      5908      5904      5901      5906      5914
      5905      5901      5906      5908      5905      5901      5906      5914
      5906      5908      5911      5913      5906      5908      5911      5917
      5906      5914      5917      5911      5906      5914      5917      5919
      5908      5906      5914      5916      5908      5906      5914      5917
      5908      5911      5917      5914      5908      5911      5917      5919
      5910      5908      5906      5914      5910      5908      5911      5913
      5910      5908      5911      5917      5911      5908      5906      5914
      5911      5917      5914      5916      5913      5911      5917      5914
      5913      5911      5917      5919      5916      5914      5917      5919
      5921      5926      5928      5930      5921      5926      5928      5931
      5921      5926      5934      5936      5921      5926      5934      5937
      5923      5921      5926      5928      5923      5921      5926      5934
      5924      5921      5926      5928      5924      5921      5926      5934
      5925      5921      5926      5928      5925      5921      5926      5934
      5926      5928      5931      5933      5926      5928      5931      5937
      5926      5934      5937      5931      5926      5934      5937      5939
      5928      5926      5934      5936      5928      5926      5934      5937
      5928      5931      5937      5934      5928      5931      5937      5939
      5930      5928      5926      5934      5930      5928      5931      5933
      5930      5928      5931      5937      5931      5928      5926      5934
      5931      5937      5934      5936      5933      5931      5937      5934
      5933      5931      5937      5939      5936      5934      5937      5939
      5941      5946      5948      5950      5941      5946      5948      5951
      5941      5946      5954      5956      5941      5946      5954      5957
      5943      5941      5946      5948      5943      5941      5946      5954
      5944      5941      5946      5948      5944      5941      5946      5954
      5945      5941      5946      5948      5945      5941      5946      5954
      5946      5948      5951      5953      5946      5948      5951      5957
      5946      5954      5957      5951      5946      5954      5957      5959
      5948      5946      5954      5956      5948      5946      5954      5957
      5948      5951      5957      5954      5948      5951      5957      5959
      5950      5948      5946      5954      5950      5948      5951      5953
      5950      5948      5951      5957      5951      5948      5946      5954
      5951      5957      5954      5956      5953      5951      5957      5954
      5953      5951      5957      5959      5956      5954      5957      5959
      5961      5966      5968      5970      5961      5966      5968      5971
      5961      5966      5974      5976      5961      5966      5974      5977
      5963      5961      5966      5968      5963      5961      5966      5974
      5964      5961      5966      5968      5964      5961      5966      5974
      5965      5961      5966      5968      5965      5961      5966      5974
      5966      5968      5971      5973      5966      5968      5971      5977
      5966      5974      5977      5971      5966      5974      5977      5979
      5968      5966      5974      5976      5968      5966      5974      5977
      5968      5971      5977      5974      5968      5971      5977      5979
      5970      5968      5966      5974      5970      5968      5971      5973
      5970      5968      5971      5977      5971      5968      5966      5974
      5971      5977      5974      5976      5973      5971      5977      5974
      5973      5971      5977      5979      5976      5974      5977      5979
      5981      5986      5988      5990      5981      5986      5988      5991
      5981      5986      5994      5996      5981      5986      5994      5997
      5983      5981      5986      5988      5983      5981      5986      5994
      5984      5981      5986      5988      5984      5981      5986      5994
      5985      5981      5986      5988      5985      5981      5986      5994
      5986      5988      5991      5993      5986      5988      5991      5997
      5986      5994      5997      5991      5986      5994      5997      5999
      5988      5986      5994      5996      5988      5986      5994      5997
      5988      5991      5997      5994      5988      5991      5997      5999
      5990      5988      5986      5994      5990      5988      5991      5993
      5990      5988      5991      5997      5991      5988      5986      5994
      5991      5997      5994      5996      5993      5991      5997      5994
      5993      5991      5997      5999      5996      5994      5997      5999
      6001      6006      6008      6010      6001      6006      6008      6011
      6001      6006      6014      6016      6001      6006      6014      6017
      6003      6001      6006      6008      6003      6001      6006      6014
      6004      6001      6006      6008      6004      6001      6006      6014
      6005      6001      6006      6008      6005      6001      6006      6014
      6006      6008      6011      6013      6006      6008      6011      6017
      6006      6014      6017      6011      6006      6014      6017      6019
      6008      6006      6014      6016      6008      6006      6014      6017
      6008      6011      6017      6014      6008      6011      6017      6019
      6010      6008      6006      6014      6010      6008      6011      6013
      6010      6008      6011      6017      6011      6008      6006      6014
      6011      6017      6014      6016      6013      6011      6017      6014
      6013      6011      6017      6019      6016      6014      6017      6019
      6021      6026      6028      6030      6021      6026      6028      6031
      6021      6026      6034      6036      6021      6026      6034      6037
      6023      6021      6026      6028      6023      6021      6026      6034
      6024      6021      6026      6028      6024      6021      6026      6034
      6025      6021      6026      6028      6025      6021      6026      6034
      6026      6028      6031      6033      6026      6028      6031      6037
      6026      6034      6037      6031      6026      6034      6037      6039
      6028      6026      6034      6036      6028      6026      6034      6037
      6028      6031      6037      6034      6028      6031      6037      6039
      6030      6028      6026      6034      6030      6028      6031      6033
      6030      6028      6031      6037      6031      6028      6026      6034
      6031      6037      6034      6036      6033      6031      6037      6034
      6033      6031      6037      6039      6036      6034      6037      6039
      6041      6046      6048      6050      6041      6046      6048      6051
      6041      6046      6054      6056      6041      6046      6054      6057
      6043      6041      6046      6048      6043      6041      6046      6054
      6044      6041      6046      6048      6044      6041      6046      6054
      6045      6041      6046      6048      6045      6041      6046      6054
      6046      6048      6051      6053      6046      6048      6051      6057
      6046      6054      6057      6051      6046      6054      6057      6059
      6048      6046      6054      6056      6048      6046      6054      6057
      6048      6051      6057      6054      6048      6051      6057      6059
      6050      6048      6046      6054      6050      6048      6051      6053
      6050      6048      6051      6057      6051      6048      6046      6054
      6051      6057      6054      6056      6053      6051      6057      6054
      6053      6051      6057      6059      6056      6054      6057      6059
      6061      6066      6068      6070      6061      6066      6068      6071
      6061      6066      6074      6076      6061      6066      6074      6077
      6063      6061      6066      6068      6063      6061      6066      6074
      6064      6061      6066      6068      6064      6061      6066      6074
      6065      6061      6066      6068      6065      6061      6066      6074
      6066      6068      6071      6073      6066      6068      6071      6077
      6066      6074      6077      6071      6066      6074      6077      6079
      6068      6066      6074      6076      6068      6066      6074      6077
      6068      6071      6077      6074      6068      6071      6077      6079
      6070      6068      6066      6074      6070      6068      6071      6073
      6070      6068      6071      6077      6071      6068      6066      6074
      6071      6077      6074      6076      6073      6071      6077      6074
      6073      6071      6077      6079      6076      6074      6077      6079
      6081      6086      6088      6090      6081      6086      6088      6091
      6081      6086      6094      6096      6081      6086      6094      6097
      6083      6081      6086      6088      6083      6081      6086      6094
      6084      6081      6086      6088      6084      6081      6086      6094
      6085      6081      6086      6088      6085      6081      6086      6094
      6086      6088      6091      6093      6086      6088      6091      6097
      6086      6094      6097      6091      6086      6094      6097      6099
      6088      6086      6094      6096      6088      6086      6094      6097
      6088      6091      6097      6094      6088      6091      6097      6099
      6090      6088      6086      6094      6090      6088      6091      6093
      6090      6088      6091      6097      6091      6088      6086      6094
      6091      6097      6094      6096      6093      6091      6097      6094
      6093      6091      6097      6099      6096      6094      6097      6099
      6101      6106      6108      6110      6101      6106      6108      6111
      6101      6106      6114      6116      6101      6106      6114      6117
      6103      6101      6106      6108      6103      6101      6106      6114
      6104      6101      6106      6108      6104      6101      6106      6114
      6105      6101      6106      6108      6105      6101      6106      6114
      6106      6108      6111      6113      6106      6108      6111      6117
      6106      6114      6117      6111      6106      6114      6117      6119
      6108      6106      6114      6116      6108      6106      6114      6117
      6108      6111      6117      6114      6108      6111      6117      6119
      6110      6108      6106      6114      6110      6108      6111      6113
      6110      6108      6111      6117      6111      6108      6106      6114
      6111      6117      6114      6116      6113      6111      6117      6114
      6113      6111      6117      6119      6116      6114      6117      6119
      6121      6126      6128      6130      6121      6126      6128      6131
      6121      6126      6134      6136      6121      6126      6134      6137
      6123      6121      6126      6128      6123      6121      6126      6134
      6124      6121      6126      6128      6124      6121      6126      6134
      6125      6121      6126      6128      6125      6121      6126      6134
      6126      6128      6131      6133      6126      6128      6131      6137
      6126      6134      6137      6131      6126      6134      6137      6139
      6128      6126      6134      6136      6128      6126      6134      6137
      6128      6131      6137      6134      6128      6131      6137      6139
      6130      6128      6126      6134      6130      6128      6131      6133
      6130      6128      6131      6137      6131      6128      6126      6134
      6131      6137      6134      6136      6133      6131      6137      6134
      6133      6131      6137      6139      6136      6134      6137      6139
      6141      6146      6148      6150      6141      6146      6148      6151
      6141      6146      6154      6156      6141      6146      6154      6157
      6143      6141      6146      6148      6143      6141      6146      6154
      6144      6141      6146      6148      6144      6141      6146      6154
      6145      6141      6146      6148      6145      6141      6146      6154
      6146      6148      6151      6153      6146      6148      6151      6157
      6146      6154      6157      6151      6146      6154      6157      6159
      6148      6146      6154      6156      6148      6146      6154      6157
      6148      6151      6157      6154      6148      6151      6157      6159
      6150      6148      6146      6154      6150      6148      6151      6153
      6150      6148      6151      6157      6151      6148      6146      6154
      6151      6157      6154      6156      6153      6151      6157      6154
      6153      6151      6157      6159      6156      6154      6157      6159
      6161      6166      6168      6170      6161      6166      6168      6171
      6161      6166      6174      6176      6161      6166      6174      6177
      6163      6161      6166      6168      6163      6161      6166      6174
      6164      6161      6166      6168      6164      6161      6166      6174
      6165      6161      6166      6168      6165      6161      6166      6174
      6166      6168      6171      6173      6166      6168      6171      6177
      6166      6174      6177      6171      6166      6174      6177      6179
      6168      6166      6174      6176      6168      6166      6174      6177
      6168      6171      6177      6174      6168      6171      6177      6179
      6170      6168      6166      6174      6170      6168      6171      6173
      6170      6168      6171      6177      6171      6168      6166      6174
      6171      6177      6174      6176      6173      6171      6177      6174
      6173      6171      6177      6179      6176      6174      6177      6179
      6181      6186      6188      6190      6181      6186      6188      6191
      6181      6186      6194      6196      6181      6186      6194      6197
      6183      6181      6186      6188      6183      6181      6186      6194
      6184      6181      6186      6188      6184      6181      6186      6194
      6185      6181      6186      6188      6185      6181      6186      6194
      6186      6188      6191      6193      6186      6188      6191      6197
      6186      6194      6197      6191      6186      6194      6197      6199
      6188      6186      6194      6196      6188      6186      6194      6197
      6188      6191      6197      6194      6188      6191      6197      6199
      6190      6188      6186      6194      6190      6188      6191      6193
      6190      6188      6191      6197      6191      6188      6186      6194
      6191      6197      6194      6196      6193      6191      6197      6194
      6193      6191      6197      6199      6196      6194      6197      6199
      6201      6206      6208      6210      6201      6206      6208      6211
      6201      6206      6214      6216      6201      6206      6214      6217
      6203      6201      6206      6208      6203      6201      6206      6214
      6204      6201      6206      6208      6204      6201      6206      6214
      6205      6201      6206      6208      6205      6201      6206      6214
      6206      6208      6211      6213      6206      6208      6211      6217
      6206      6214      6217      6211      6206      6214      6217      6219
      6208      6206      6214      6216      6208      6206      6214      6217
      6208      6211      6217      6214      6208      6211      6217      6219
      6210      6208      6206      6214      6210      6208      6211      6213
      6210      6208      6211      6217      6211      6208      6206      6214
      6211      6217      6214      6216      6213      6211      6217      6214
      6213      6211      6217      6219      6216      6214      6217      6219
      6221      6226      6228      6230      6221      6226      6228      6231
      6221      6226      6234      6236      6221      6226      6234      6237
      6223      6221      6226      6228      6223      6221      6226      6234
      6224      6221      6226      6228      6224      6221      6226      6234
      6225      6221      6226      6228      6225      6221      6226      6234
      6226      6228      6231      6233      6226      6228      6231      6237
      6226      6234      6237      6231      6226      6234      6237      6239
      6228      6226      6234      6236      6228      6226      6234      6237
      6228      6231      6237      6234      6228      6231      6237      6239
      6230      6228      6226      6234      6230      6228      6231      6233
      6230      6228      6231      6237      6231      6228      6226      6234
      6231      6237      6234      6236      6233      6231      6237      6234
      6233      6231      6237      6239      6236      6234      6237      6239
      6241      6246      6248      6250      6241      6246      6248      6251
      6241      6246      6254      6256      6241      6246      6254      6257
      6243      6241      6246      6248      6243      6241      6246      6254
      6244      6241      6246      6248      6244      6241      6246      6254
      6245      6241      6246      6248      6245      6241      6246      6254
      6246      6248      6251      6253      6246      6248      6251      6257
      6246      6254      6257      6251      6246      6254      6257      6259
      6248      6246      6254      6256      6248      6246      6254      6257
      6248      6251      6257      6254      6248      6251      6257      6259
      6250      6248      6246      6254      6250      6248      6251      6253
      6250      6248      6251      6257      6251      6248      6246      6254
      6251      6257      6254      6256      6253      6251      6257      6254
      6253      6251      6257      6259      6256      6254      6257      6259
      6261      6266      6268      6270      6261      6266      6268      6271
      6261      6266      6274      6276      6261      6266      6274      6277
      6263      6261      6266      6268      6263      6261      6266      6274
      6264      6261      6266      6268      6264      6261      6266      6274
      6265      6261      6266      6268      6265      6261      6266      6274
      6266      6268      6271      6273      6266      6268      6271      6277
      6266      6274      6277      6271      6266      6274      6277      6279
      6268      6266      6274      6276      6268      6266      6274      6277
      6268      6271      6277      6274      6268      6271      6277      6279
      6270      6268      6266      6274      6270      6268      6271      6273
      6270      6268      6271      6277      6271      6268      6266      6274
      6271      6277      6274      6276      6273      6271      6277      6274
      6273      6271      6277      6279      6276      6274      6277      6279
      6281      6286      6288      6290      6281      6286      6288      6291
      6281      6286      6294      6296      6281      6286      6294      6297
      6283      6281      6286      6288      6283      6281      6286      6294
      6284      6281      6286      6288      6284      6281      6286      6294
      6285      6281      6286      6288      6285      6281      6286      6294
      6286      6288      6291      6293      6286      6288      6291      6297
      6286      6294      6297      6291      6286      6294      6297      6299
      6288      6286      6294      6296      6288      6286      6294      6297
      6288      6291      6297      6294      6288      6291      6297      6299
      6290      6288      6286      6294      6290      6288      6291      6293
      6290      6288      6291      6297      6291      6288      6286      6294
      6291      6297      6294      6296      6293      6291      6297      6294
      6293      6291      6297      6299      6296      6294      6297      6299
      6301      6306      6308      6310      6301      6306      6308      6311
      6301      6306      6314      6316      6301      6306      6314      6317
      6303      6301      6306      6308      6303      6301      6306      6314
      6304      6301      6306      6308      6304      6301      6306      6314
      6305      6301      6306      6308      6305      6301      6306      6314
      6306      6308      6311      6313      6306      6308      6311      6317
      6306      6314      6317      6311      6306      6314      6317      6319
      6308      6306      6314      6316      6308      6306      6314      6317
      6308      6311      6317      6314      6308      6311      6317      6319
      6310      6308      6306      6314      6310      6308      6311      6313
      6310      6308      6311      6317      6311      6308      6306      6314
      6311      6317      6314      6316      6313      6311      6317      6314
      6313      6311      6317      6319      6316      6314      6317      6319
      6321      6326      6328      6330      6321      6326      6328      6331
      6321      6326      6334      6336      6321      6326      6334      6337
      6323      6321      6326      6328      6323      6321      6326      6334
      6324      6321      6326      6328      6324      6321      6326      6334
      6325      6321      6326      6328      6325      6321      6326      6334
      6326      6328      6331      6333      6326      6328      6331      6337
      6326      6334      6337      6331      6326      6334      6337      6339
      6328      6326      6334      6336      6328      6326      6334      6337
      6328      6331      6337      6334      6328      6331      6337      6339
      6330      6328      6326      6334      6330      6328      6331      6333
      6330      6328      6331      6337      6331      6328      6326      6334
      6331      6337      6334      6336      6333      6331      6337      6334
      6333      6331      6337      6339      6336      6334      6337      6339
      6341      6346      6348      6350      6341      6346      6348      6351
      6341      6346      6354      6356      6341      6346      6354      6357
      6343      6341      6346      6348      6343      6341      6346      6354
      6344      6341      6346      6348      6344      6341      6346      6354
      6345      6341      6346      6348      6345      6341      6346      6354
      6346      6348      6351      6353      6346      6348      6351      6357
      6346      6354      6357      6351      6346      6354      6357      6359
      6348      6346      6354      6356      6348      6346      6354      6357
      6348      6351      6357      6354      6348      6351      6357      6359
      6350      6348      6346      6354      6350      6348      6351      6353
      6350      6348      6351      6357      6351      6348      6346      6354
      6351      6357      6354      6356      6353      6351      6357      6354
      6353      6351      6357      6359      6356      6354      6357      6359
      6361      6366      6368      6370      6361      6366      6368      6371
      6361      6366      6374      6376      6361      6366      6374      6377
      6363      6361      6366      6368      6363      6361      6366      6374
      6364      6361      6366      6368      6364      6361      6366      6374
      6365      6361      6366      6368      6365      6361      6366      6374
      6366      6368      6371      6373      6366      6368      6371      6377
      6366      6374      6377      6371      6366      6374      6377      6379
      6368      6366      6374      6376      6368      6366      6374      6377
      6368      6371      6377      6374      6368      6371      6377      6379
      6370      6368      6366      6374      6370      6368      6371      6373
      6370      6368      6371      6377      6371      6368      6366      6374
      6371      6377      6374      6376      6373      6371      6377      6374
      6373      6371      6377      6379      6376      6374      6377      6379
      6381      6386      6388      6390      6381      6386      6388      6391
      6381      6386      6394      6396      6381      6386      6394      6397
      6383      6381      6386      6388      6383      6381      6386      6394
      6384      6381      6386      6388      6384      6381      6386      6394
      6385      6381      6386      6388      6385      6381      6386      6394
      6386      6388      6391      6393      6386      6388      6391      6397
      6386      6394      6397      6391      6386      6394      6397      6399
      6388      6386      6394      6396      6388      6386      6394      6397
      6388      6391      6397      6394      6388      6391      6397      6399
      6390      6388      6386      6394      6390      6388      6391      6393
      6390      6388      6391      6397      6391      6388      6386      6394
      6391      6397      6394      6396      6393      6391      6397      6394
      6393      6391      6397      6399      6396      6394      6397      6399
      6401      6406      6408      6410      6401      6406      6408      6411
      6401      6406      6414      6416      6401      6406      6414      6417
      6403      6401      6406      6408      6403      6401      6406      6414
      6404      6401      6406      6408      6404      6401      6406      6414
      6405      6401      6406      6408      6405      6401      6406      6414
      6406      6408      6411      6413      6406      6408      6411      6417
      6406      6414      6417      6411      6406      6414      6417      6419
      6408      6406      6414      6416      6408      6406      6414      6417
      6408      6411      6417      6414      6408      6411      6417      6419
      6410      6408      6406      6414      6410      6408      6411      6413
      6410      6408      6411      6417      6411      6408      6406      6414
      6411      6417      6414      6416      6413      6411      6417      6414
      6413      6411      6417      6419      6416      6414      6417      6419
      6421      6426      6428      6430      6421      6426      6428      6431
      6421      6426      6434      6436      6421      6426      6434      6437
      6423      6421      6426      6428      6423      6421      6426      6434
      6424      6421      6426      6428      6424      6421      6426      6434
      6425      6421      6426      6428      6425      6421      6426      6434
      6426      6428      6431      6433      6426      6428      6431      6437
      6426      6434      6437      6431      6426      6434      6437      6439
      6428      6426      6434      6436      6428      6426      6434      6437
      6428      6431      6437      6434      6428      6431      6437      6439
      6430      6428      6426      6434      6430      6428      6431      6433
      6430      6428      6431      6437      6431      6428      6426      6434
      6431      6437      6434      6436      6433      6431      6437      6434
      6433      6431      6437      6439      6436      6434      6437      6439
      6441      6446      6448      6450      6441      6446      6448      6451
      6441      6446      6454      6456      6441      6446      6454      6457
      6443      6441      6446      6448      6443      6441      6446      6454
      6444      6441      6446      6448      6444      6441      6446      6454
      6445      6441      6446      6448      6445      6441      6446      6454
      6446      6448      6451      6453      6446      6448      6451      6457
      6446      6454      6457      6451      6446      6454      6457      6459
      6448      6446      6454      6456      6448      6446      6454      6457
      6448      6451      6457      6454      6448      6451      6457      6459
      6450      6448      6446      6454      6450      6448      6451      6453
      6450      6448      6451      6457      6451      6448      6446      6454
      6451      6457      6454      6456      6453      6451      6457      6454
      6453      6451      6457      6459      6456      6454      6457      6459
      6461      6466      6468      6470      6461      6466      6468      6471
      6461      6466      6474      6476      6461      6466      6474      6477
      6463      6461      6466      6468      6463      6461      6466      6474
      6464      6461      6466      6468      6464      6461      6466      6474
      6465      6461      6466      6468      6465      6461      6466      6474
      6466      6468      6471      6473      6466      6468      6471      6477
      6466      6474      6477      6471      6466      6474      6477      6479
      6468      6466      6474      6476      6468      6466      6474      6477
      6468      6471      6477      6474      6468      6471      6477      6479
      6470      6468      6466      6474      6470      6468      6471      6473
      6470      6468      6471      6477      6471      6468      6466      6474
      6471      6477      6474      6476      6473      6471      6477      6474
      6473      6471      6477      6479      6476      6474      6477      6479
      6481      6486      6488      6490      6481      6486      6488      6491
      6481      6486      6494      6496      6481      6486      6494      6497
      6483      6481      6486      6488      6483      6481      6486      6494
      6484      6481      6486      6488      6484      6481      6486      6494
      6485      6481      6486      6488      6485      6481      6486      6494
      6486      6488      6491      6493      6486      6488      6491      6497
      6486      6494      6497      6491      6486      6494      6497      6499
      6488      6486      6494      6496      6488      6486      6494      6497
      6488      6491      6497      6494      6488      6491      6497      6499
      6490      6488      6486      6494      6490      6488      6491      6493
      6490      6488      6491      6497      6491      6488      6486      6494
      6491      6497      6494      6496      6493      6491      6497      6494
      6493      6491      6497      6499      6496      6494      6497      6499
      6501      6506      6508      6510      6501      6506      6508      6511
      6501      6506      6514      6516      6501      6506      6514      6517
      6503      6501      6506      6508      6503      6501      6506      6514
      6504      6501      6506      6508      6504      6501      6506      6514
      6505      6501      6506      6508      6505      6501      6506      6514
      6506      6508      6511      6513      6506      6508      6511      6517
      6506      6514      6517      6511      6506      6514      6517      6519
      6508      6506      6514      6516      6508      6506      6514      6517
      6508      6511      6517      6514      6508      6511      6517      6519
      6510      6508      6506      6514      6510      6508      6511      6513
      6510      6508      6511      6517      6511      6508      6506      6514
      6511      6517      6514      6516      6513      6511      6517      6514
      6513      6511      6517      6519      6516      6514      6517      6519
      6521      6526      6528      6530      6521      6526      6528      6531
      6521      6526      6534      6536      6521      6526      6534      6537
      6523      6521      6526      6528      6523      6521      6526      6534
      6524      6521      6526      6528      6524      6521      6526      6534
      6525      6521      6526      6528      6525      6521      6526      6534
      6526      6528      6531      6533      6526      6528      6531      6537
      6526      6534      6537      6531      6526      6534      6537      6539
      6528      6526      6534      6536      6528      6526      6534      6537
      6528      6531      6537      6534      6528      6531      6537      6539
      6530      6528      6526      6534      6530      6528      6531      6533
      6530      6528      6531      6537      6531      6528      6526      6534
      6531      6537      6534      6536      6533      6531      6537      6534
      6533      6531      6537      6539      6536      6534      6537      6539
      6541      6546      6548      6550      6541      6546      6548      6551
      6541      6546      6554      6556      6541      6546      6554      6557
      6543      6541      6546      6548      6543      6541      6546      6554
      6544      6541      6546      6548      6544      6541      6546      6554
      6545      6541      6546      6548      6545      6541      6546      6554
      6546      6548      6551      6553      6546      6548      6551      6557
      6546      6554      6557      6551      6546      6554      6557      6559
      6548      6546      6554      6556      6548      6546      6554      6557
      6548      6551      6557      6554      6548      6551      6557      6559
      6550      6548      6546      6554      6550      6548      6551      6553
      6550      6548      6551      6557      6551      6548      6546      6554
      6551      6557      6554      6556      6553      6551      6557      6554
      6553      6551      6557      6559      6556      6554      6557      6559
      6561      6566      6568      6570      6561      6566      6568      6571
      6561      6566      6574      6576      6561      6566      6574      6577
      6563      6561      6566      6568      6563      6561      6566      6574
      6564      6561      6566      6568      6564      6561      6566      6574
      6565      6561      6566      6568      6565      6561      6566      6574
      6566      6568      6571      6573      6566      6568      6571      6577
      6566      6574      6577      6571      6566      6574      6577      6579
      6568      6566      6574      6576      6568      6566      6574      6577
      6568      6571      6577      6574      6568      6571      6577      6579
      6570      6568      6566      6574      6570      6568      6571      6573
      6570      6568      6571      6577      6571      6568      6566      6574
      6571      6577      6574      6576      6573      6571      6577      6574
      6573      6571      6577      6579      6576      6574      6577      6579
      6581      6586      6588      6590      6581      6586      6588      6591
      6581      6586      6594      6596      6581      6586      6594      6597
      6583      6581      6586      6588      6583      6581      6586      6594
      6584      6581      6586      6588      6584      6581      6586      6594
      6585      6581      6586      6588      6585      6581      6586      6594
      6586      6588      6591      6593      6586      6588      6591      6597
      6586      6594      6597      6591      6586      6594      6597      6599
      6588      6586      6594      6596      6588      6586      6594      6597
      6588      6591      6597      6594      6588      6591      6597      6599
      6590      6588      6586      6594      6590      6588      6591      6593
      6590      6588      6591      6597      6591      6588      6586      6594
      6591      6597      6594      6596      6593      6591      6597      6594
      6593      6591      6597      6599      6596      6594      6597      6599
      6601      6606      6608      6610      6601      6606      6608      6611
      6601      6606      6614      6616      6601      6606      6614      6617
      6603      6601      6606      6608      6603      6601      6606      6614
      6604      6601      6606      6608      6604      6601      6606      6614
      6605      6601      6606      6608      6605      6601      6606      6614
      6606      6608      6611      6613      6606      6608      6611      6617
      6606      6614      6617      6611      6606      6614      6617      6619
      6608      6606      6614      6616      6608      6606      6614      6617
      6608      6611      6617      6614      6608      6611      6617      6619
      6610      6608      6606      6614      6610      6608      6611      6613
      6610      6608      6611      6617      6611      6608      6606      6614
      6611      6617      6614      6616      6613      6611      6617      6614
      6613      6611      6617      6619      6616      6614      6617      6619
      6621      6626      6628      6630      6621      6626      6628      6631
      6621      6626      6634      6636      6621      6626      6634      6637
      6623      6621      6626      6628      6623      6621      6626      6634
      6624      6621      6626      6628      6624      6621      6626      6634
      6625      6621      6626      6628      6625      6621      6626      6634
      6626      6628      6631      6633      6626      6628      6631      6637
      6626      6634      6637      6631      6626      6634      6637      6639
      6628      6626      6634      6636      6628      6626      6634      6637
      6628      6631      6637      6634      6628      6631      6637      6639
      6630      6628      6626      6634      6630      6628      6631      6633
      6630      6628      6631      6637      6631      6628      6626      6634
      6631      6637      6634      6636      6633      6631      6637      6634
      6633      6631      6637      6639      6636      6634      6637      6639
      6641      6646      6648      6650      6641      6646      6648      6651
      6641      6646      6654      6656      6641      6646      6654      6657
      6643      6641      6646      6648      6643      6641      6646      6654
      6644      6641      6646      6648      6644      6641      6646      6654
      6645      6641      6646      6648      6645      6641      6646      6654
      6646      6648      6651      6653      6646      6648      6651      6657
      6646      6654      6657      6651      6646      6654      6657      6659
      6648      6646      6654      6656      6648      6646      6654      6657
      6648      6651      6657      6654      6648      6651      6657      6659
      6650      6648      6646      6654      6650      6648      6651      6653
      6650      6648      6651      6657      6651      6648      6646      6654
      6651      6657      6654      6656      6653      6651      6657      6654
      6653      6651      6657      6659      6656      6654      6657      6659
      6661      6666      6668      6670      6661      6666      6668      6671
      6661      6666      6674      6676      6661      6666      6674      6677
      6663      6661      6666      6668      6663      6661      6666      6674
      6664      6661      6666      6668      6664      6661      6666      6674
      6665      6661      6666      6668      6665      6661      6666      6674
      6666      6668      6671      6673      6666      6668      6671      6677
      6666      6674      6677      6671      6666      6674      6677      6679
      6668      6666      6674      6676      6668      6666      6674      6677
      6668      6671      6677      6674      6668      6671      6677      6679
      6670      6668      6666      6674      6670      6668      6671      6673
      6670      6668      6671      6677      6671      6668      6666      6674
      6671      6677      6674      6676      6673      6671      6677      6674
      6673      6671      6677      6679      6676      6674      6677      6679
      6681      6686      6688      6690      6681      6686      6688      6691
      6681      6686      6694      6696      6681      6686      6694      6697
      6683      6681      6686      6688      6683      6681      6686      6694
      6684      6681      6686      6688      6684      6681      6686      6694
      6685      6681      6686      6688      6685      6681      6686      6694
      6686      6688      6691      6693      6686      6688      6691      6697
      6686      6694      6697      6691      6686      6694      6697      6699
      6688      6686      6694      6696      6688      6686      6694      6697
      6688      6691      6697      6694      6688      6691      6697      6699
      6690      6688      6686      6694      6690      6688      6691      6693
      6690      6688      6691      6697      6691      6688      6686      6694
      6691      6697      6694      6696      6693      6691      6697      6694
      6693      6691      6697      6699      6696      6694      6697      6699
      6701      6706      6708      6710      6701      6706      6708      6711
      6701      6706      6714      6716      6701      6706      6714      6717
      6703      6701      6706      6708      6703      6701      6706      6714
      6704      6701      6706      6708      6704      6701      6706      6714
      6705      6701      6706      6708      6705      6701      6706      6714
      6706      6708      6711      6713      6706      6708      6711      6717
      6706      6714      6717      6711      6706      6714      6717      6719
      6708      6706      6714      6716      6708      6706      6714      6717
      6708      6711      6717      6714      6708      6711      6717      6719
      6710      6708      6706      6714      6710      6708      6711      6713
      6710      6708      6711      6717      6711      6708      6706      6714
      6711      6717      6714      6716      6713      6711      6717      6714
      6713      6711      6717      6719      6716      6714      6717      6719
      6721      6726      6728      6730      6721      6726      6728      6731
      6721      6726      6734      6736      6721      6726      6734      6737
      6723      6721      6726      6728      6723      6721      6726      6734
      6724      6721      6726      6728      6724      6721      6726      6734
      6725      6721      6726      6728      6725      6721      6726      6734
      6726      6728      6731      6733      6726      6728      6731      6737
      6726      6734      6737      6731      6726      6734      6737      6739
      6728      6726      6734      6736      6728      6726      6734      6737
      6728      6731      6737      6734      6728      6731      6737      6739
      6730      6728      6726      6734      6730      6728      6731      6733
      6730      6728      6731      6737      6731      6728      6726      6734
      6731      6737      6734      6736      6733      6731      6737      6734
      6733      6731      6737      6739      6736      6734      6737      6739
      6741      6746      6748      6750      6741      6746      6748      6751
      6741      6746      6754      6756      6741      6746      6754      6757
      6743      6741      6746      6748      6743      6741      6746      6754
      6744      6741      6746      6748      6744      6741      6746      6754
      6745      6741      6746      6748      6745      6741      6746      6754
      6746      6748      6751      6753      6746      6748      6751      6757
      6746      6754      6757      6751      6746      6754      6757      6759
      6748      6746      6754      6756      6748      6746      6754      6757
      6748      6751      6757      6754      6748      6751      6757      6759
      6750      6748      6746      6754      6750      6748      6751      6753
      6750      6748      6751      6757      6751      6748      6746      6754
      6751      6757      6754      6756      6753      6751      6757      6754
      6753      6751      6757      6759      6756      6754      6757      6759
      6761      6766      6768      6770      6761      6766      6768      6771
      6761      6766      6774      6776      6761      6766      6774      6777
      6763      6761      6766      6768      6763      6761      6766      6774
      6764      6761      6766      6768      6764      6761      6766      6774
      6765      6761      6766      6768      6765      6761      6766      6774
      6766      6768      6771      6773      6766      6768      6771      6777
      6766      6774      6777      6771      6766      6774      6777      6779
      6768      6766      6774      6776      6768      6766      6774      6777
      6768      6771      6777      6774      6768      6771      6777      6779
      6770      6768      6766      6774      6770      6768      6771      6773
      6770      6768      6771      6777      6771      6768      6766      6774
      6771      6777      6774      6776      6773      6771      6777      6774
      6773      6771      6777      6779      6776      6774      6777      6779
      6781      6786      6788      6790      6781      6786      6788      6791
      6781      6786      6794      6796      6781      6786      6794      6797
      6783      6781      6786      6788      6783      6781      6786      6794
      6784      6781      6786      6788      6784      6781      6786      6794
      6785      6781      6786      6788      6785      6781      6786      6794
      6786      6788      6791      6793      6786      6788      6791      6797
      6786      6794      6797      6791      6786      6794      6797      6799
      6788      6786      6794      6796      6788      6786      6794      6797
      6788      6791      6797      6794      6788      6791      6797      6799
      6790      6788      6786      6794      6790      6788      6791      6793
      6790      6788      6791      6797      6791      6788      6786      6794
      6791      6797      6794      6796      6793      6791      6797      6794
      6793      6791      6797      6799      6796      6794      6797      6799
      6801      6806      6808      6810      6801      6806      6808      6811
      6801      6806      6814      6816      6801      6806      6814      6817
      6803      6801      6806      6808      6803      6801      6806      6814
      6804      6801      6806      6808      6804      6801      6806      6814
      6805      6801      6806      6808      6805      6801      6806      6814
      6806      6808      6811      6813      6806      6808      6811      6817
      6806      6814      6817      6811      6806      6814      6817      6819
      6808      6806      6814      6816      6808      6806      6814      6817
      6808      6811      6817      6814      6808      6811      6817      6819
      6810      6808      6806      6814      6810      6808      6811      6813
      6810      6808      6811      6817      6811      6808      6806      6814
      6811      6817      6814      6816      6813      6811      6817      6814
      6813      6811      6817      6819      6816      6814      6817      6819
      6821      6826      6828      6830      6821      6826      6828      6831
      6821      6826      6834      6836      6821      6826      6834      6837
      6823      6821      6826      6828      6823      6821      6826      6834
      6824      6821      6826      6828      6824      6821      6826      6834
      6825      6821      6826      6828      6825      6821      6826      6834
      6826      6828      6831      6833      6826      6828      6831      6837
      6826      6834      6837      6831      6826      6834      6837      6839
      6828      6826      6834      6836      6828      6826      6834      6837
      6828      6831      6837      6834      6828      6831      6837      6839
      6830      6828      6826      6834      6830      6828      6831      6833
      6830      6828      6831      6837      6831      6828      6826      6834
      6831      6837      6834      6836      6833      6831      6837      6834
      6833      6831      6837      6839      6836      6834      6837      6839
      6841      6846      6848      6850      6841      6846      6848      6851
      6841      6846      6854      6856      6841      6846      6854      6857
      6843      6841      6846      6848      6843      6841      6846      6854
      6844      6841      6846      6848      6844      6841      6846      6854
      6845      6841      6846      6848      6845      6841      6846      6854
      6846      6848      6851      6853      6846      6848      6851      6857
      6846      6854      6857      6851      6846      6854      6857      6859
      6848      6846      6854      6856      6848      6846      6854      6857
      6848      6851      6857      6854      6848      6851      6857      6859
      6850      6848      6846      6854      6850      6848      6851      6853
      6850      6848      6851      6857      6851      6848      6846      6854
      6851      6857      6854      6856      6853      6851      6857      6854
      6853      6851      6857      6859      6856      6854      6857      6859
      6861      6866      6868      6870      6861      6866      6868      6871
      6861      6866      6874      6876      6861      6866      6874      6877
      6863      6861      6866      6868      6863      6861      6866      6874
      6864      6861      6866      6868      6864      6861      6866      6874
      6865      6861      6866      6868      6865      6861      6866      6874
      6866      6868      6871      6873      6866      6868      6871      6877
      6866      6874      6877      6871      6866      6874      6877      6879
      6868      6866      6874      6876      6868      6866      6874      6877
      6868      6871      6877      6874      6868      6871      6877      6879
      6870      6868      6866      6874      6870      6868      6871      6873
      6870      6868      6871      6877      6871      6868      6866      6874
      6871      6877      6874      6876      6873      6871      6877      6874
      6873      6871      6877      6879      6876      6874      6877      6879
      6881      6886      6888      6890      6881      6886      6888      6891
      6881      6886      6894      6896      6881      6886      6894      6897
      6883      6881      6886      6888      6883      6881      6886      6894
      6884      6881      6886      6888      6884      6881      6886      6894
      6885      6881      6886      6888      6885      6881      6886      6894
      6886      6888      6891      6893      6886      6888      6891      6897
      6886      6894      6897      6891      6886      6894      6897      6899
      6888      6886      6894      6896      6888      6886      6894      6897
      6888      6891      6897      6894      6888      6891      6897      6899
      6890      6888      6886      6894      6890      6888      6891      6893
      6890      6888      6891      6897      6891      6888      6886      6894
      6891      6897      6894      6896      6893      6891      6897      6894
      6893      6891      6897      6899      6896      6894      6897      6899
      6901      6906      6908      6910      6901      6906      6908      6911
      6901      6906      6914      6916      6901      6906      6914      6917
      6903      6901      6906      6908      6903      6901      6906      6914
      6904      6901      6906      6908      6904      6901      6906      6914
      6905      6901      6906      6908      6905      6901      6906      6914
      6906      6908      6911      6913      6906      6908      6911      6917
      6906      6914      6917      6911      6906      6914      6917      6919
      6908      6906      6914      6916      6908      6906      6914      6917
      6908      6911      6917      6914      6908      6911      6917      6919
      6910      6908      6906      6914      6910      6908      6911      6913
      6910      6908      6911      6917      6911      6908      6906      6914
      6911      6917      6914      6916      6913      6911      6917      6914
      6913      6911      6917      6919      6916      6914      6917      6919
      6921      6926      6928      6930      6921      6926      6928      6931
      6921      6926      6934      6936      6921      6926      6934      6937
      6923      6921      6926      6928      6923      6921      6926      6934
      6924      6921      6926      6928      6924      6921      6926      6934
      6925      6921      6926      6928      6925      6921      6926      6934
      6926      6928      6931      6933      6926      6928      6931      6937
      6926      6934      6937      6931      6926      6934      6937      6939
      6928      6926      6934      6936      6928      6926      6934      6937
      6928      6931      6937      6934      6928      6931      6937      6939
      6930      6928      6926      6934      6930      6928      6931      6933
      6930      6928      6931      6937      6931      6928      6926      6934
      6931      6937      6934      6936      6933      6931      6937      6934
      6933      6931      6937      6939      6936      6934      6937      6939
      6941      6946      6948      6950      6941      6946      6948      6951
      6941      6946      6954      6956      6941      6946      6954      6957
      6943      6941      6946      6948      6943      6941      6946      6954
      6944      6941      6946      6948      6944      6941      6946      6954
      6945      6941      6946      6948      6945      6941      6946      6954
      6946      6948      6951      6953      6946      6948      6951      6957
      6946      6954      6957      6951      6946      6954      6957      6959
      6948      6946      6954      6956      6948      6946      6954      6957
      6948      6951      6957      6954      6948      6951      6957      6959
      6950      6948      6946      6954      6950      6948      6951      6953
      6950      6948      6951      6957      6951      6948      6946      6954
      6951      6957      6954      6956      6953      6951      6957      6954
      6953      6951      6957      6959      6956      6954      6957      6959
      6961      6966      6968      6970      6961      6966      6968      6971
      6961      6966      6974      6976      6961      6966      6974      6977
      6963      6961      6966      6968      6963      6961      6966      6974
      6964      6961      6966      6968      6964      6961      6966      6974
      6965      6961      6966      6968      6965      6961      6966      6974
      6966      6968      6971      6973      6966      6968      6971      6977
      6966      6974      6977      6971      6966      6974      6977      6979
      6968      6966      6974      6976      6968      6966      6974      6977
      6968      6971      6977      6974      6968      6971      6977      6979
      6970      6968      6966      6974      6970      6968      6971      6973
      6970      6968      6971      6977      6971      6968      6966      6974
      6971      6977      6974      6976      6973      6971      6977      6974
      6973      6971      6977      6979      6976      6974      6977      6979
      6981      6986      6988      6990      6981      6986      6988      6991
      6981      6986      6994      6996      6981      6986      6994      6997
      6983      6981      6986      6988      6983      6981      6986      6994
      6984      6981      6986      6988      6984      6981      6986      6994
      6985      6981      6986      6988      6985      6981      6986      6994
      6986      6988      6991      6993      6986      6988      6991      6997
      6986      6994      6997      6991      6986      6994      6997      6999
      6988      6986      6994      6996      6988      6986      6994      6997
      6988      6991      6997      6994      6988      6991      6997      6999
      6990      6988      6986      6994      6990      6988      6991      6993
      6990      6988      6991      6997      6991      6988      6986      6994
      6991      6997      6994      6996      6993      6991      6997      6994
      6993      6991      6997      6999      6996      6994      6997      6999
      7001      7006      7008      7010      7001      7006      7008      7011
      7001      7006      7014      7016      7001      7006      7014      7017
      7003      7001      7006      7008      7003      7001      7006      7014
      7004      7001      7006      7008      7004      7001      7006      7014
      7005      7001      7006      7008      7005      7001      7006      7014
      7006      7008      7011      7013      7006      7008      7011      7017
      7006      7014      7017      7011      7006      7014      7017      7019
      7008      7006      7014      7016      7008      7006      7014      7017
      7008      7011      7017      7014      7008      7011      7017      7019
      7010      7008      7006      7014      7010      7008      7011      7013
      7010      7008      7011      7017      7011      7008      7006      7014
      7011      7017      7014      7016      7013      7011      7017      7014
      7013      7011      7017      7019      7016      7014      7017      7019
      7021      7026      7028      7030      7021      7026      7028      7031
      7021      7026      7034      7036      7021      7026      7034      7037
      7023      7021      7026      7028      7023      7021      7026      7034
      7024      7021      7026      7028      7024      7021      7026      7034
      7025      7021      7026      7028      7025      7021      7026      7034
      7026      7028      7031      7033      7026      7028      7031      7037
      7026      7034      7037      7031      7026      7034      7037      7039
      7028      7026      7034      7036      7028      7026      7034      7037
      7028      7031      7037      7034      7028      7031      7037      7039
      7030      7028      7026      7034      7030      7028      7031      7033
      7030      7028      7031      7037      7031      7028      7026      7034
      7031      7037      7034      7036      7033      7031      7037      7034
      7033      7031      7037      7039      7036      7034      7037      7039
      7041      7046      7048      7050      7041      7046      7048      7051
      7041      7046      7054      7056      7041      7046      7054      7057
      7043      7041      7046      7048      7043      7041      7046      7054
      7044      7041      7046      7048      7044      7041      7046      7054
      7045      7041      7046      7048      7045      7041      7046      7054
      7046      7048      7051      7053      7046      7048      7051      7057
      7046      7054      7057      7051      7046      7054      7057      7059
      7048      7046      7054      7056      7048      7046      7054      7057
      7048      7051      7057      7054      7048      7051      7057      7059
      7050      7048      7046      7054      7050      7048      7051      7053
      7050      7048      7051      7057      7051      7048      7046      7054
      7051      7057      7054      7056      7053      7051      7057      7054
      7053      7051      7057      7059      7056      7054      7057      7059
      7061      7066      7068      7070      7061      7066      7068      7071
      7061      7066      7074      7076      7061      7066      7074      7077
      7063      7061      7066      7068      7063      7061      7066      7074
      7064      7061      7066      7068      7064      7061      7066      7074
      7065      7061      7066      7068      7065      7061      7066      7074
      7066      7068      7071      7073      7066      7068      7071      7077
      7066      7074      7077      7071      7066      7074      7077      7079
      7068      7066      7074      7076      7068      7066      7074      7077
      7068      7071      7077      7074      7068      7071      7077      7079
      7070      7068      7066      7074      7070      7068      7071      7073
      7070      7068      7071      7077      7071      7068      7066      7074
      7071      7077      7074      7076      7073      7071      7077      7074
      7073      7071      7077      7079      7076      7074      7077      7079
      7081      7086      7088      7090      7081      7086      7088      7091
      7081      7086      7094      7096      7081      7086      7094      7097
      7083      7081      7086      7088      7083      7081      7086      7094
      7084      7081      7086      7088      7084      7081      7086      7094
      7085      7081      7086      7088      7085      7081      7086      7094
      7086      7088      7091      7093      7086      7088      7091      7097
      7086      7094      7097      7091      7086      7094      7097      7099
      7088      7086      7094      7096      7088      7086      7094      7097
      7088      7091      7097      7094      7088      7091      7097      7099
      7090      7088      7086      7094      7090      7088      7091      7093
      7090      7088      7091      7097      7091      7088      7086      7094
      7091      7097      7094      7096      7093      7091      7097      7094
      7093      7091      7097      7099      7096      7094      7097      7099
      7101      7106      7108      7110      7101      7106      7108      7111
      7101      7106      7114      7116      7101      7106      7114      7117
      7103      7101      7106      7108      7103      7101      7106      7114
      7104      7101      7106      7108      7104      7101      7106      7114
      7105      7101      7106      7108      7105      7101      7106      7114
      7106      7108      7111      7113      7106      7108      7111      7117
      7106      7114      7117      7111      7106      7114      7117      7119
      7108      7106      7114      7116      7108      7106      7114      7117
      7108      7111      7117      7114      7108      7111      7117      7119
      7110      7108      7106      7114      7110      7108      7111      7113
      7110      7108      7111      7117      7111      7108      7106      7114
      7111      7117      7114      7116      7113      7111      7117      7114
      7113      7111      7117      7119      7116      7114      7117      7119
      7121      7126      7128      7130      7121      7126      7128      7131
      7121      7126      7134      7136      7121      7126      7134      7137
      7123      7121      7126      7128      7123      7121      7126      7134
      7124      7121      7126      7128      7124      7121      7126      7134
      7125      7121      7126      7128      7125      7121      7126      7134
      7126      7128      7131      7133      7126      7128      7131      7137
      7126      7134      7137      7131      7126      7134      7137      7139
      7128      7126      7134      7136      7128      7126      7134      7137
      7128      7131      7137      7134      7128      7131      7137      7139
      7130      7128      7126      7134      7130      7128      7131      7133
      7130      7128      7131      7137      7131      7128      7126      7134
      7131      7137      7134      7136      7133      7131      7137      7134
      7133      7131      7137      7139      7136      7134      7137      7139
      7141      7146      7148      7150      7141      7146      7148      7151
      7141      7146      7154      7156      7141      7146      7154      7157
      7143      7141      7146      7148      7143      7141      7146      7154
      7144      7141      7146      7148      7144      7141      7146      7154
      7145      7141      7146      7148      7145      7141      7146      7154
      7146      7148      7151      7153      7146      7148      7151      7157
      7146      7154      7157      7151      7146      7154      7157      7159
      7148      7146      7154      7156      7148      7146      7154      7157
      7148      7151      7157      7154      7148      7151      7157      7159
      7150      7148      7146      7154      7150      7148      7151      7153
      7150      7148      7151      7157      7151      7148      7146      7154
      7151      7157      7154      7156      7153      7151      7157      7154
      7153      7151      7157      7159      7156      7154      7157      7159
      7161      7166      7168      7170      7161      7166      7168      7171
      7161      7166      7174      7176      7161      7166      7174      7177
      7163      7161      7166      7168      7163      7161      7166      7174
      7164      7161      7166      7168      7164      7161      7166      7174
      7165      7161      7166      7168      7165      7161      7166      7174
      7166      7168      7171      7173      7166      7168      7171      7177
      7166      7174      7177      7171      7166      7174      7177      7179
      7168      7166      7174      7176      7168      7166      7174      7177
      7168      7171      7177      7174      7168      7171      7177      7179
      7170      7168      7166      7174      7170      7168      7171      7173
      7170      7168      7171      7177      7171      7168      7166      7174
      7171      7177      7174      7176      7173      7171      7177      7174
      7173      7171      7177      7179      7176      7174      7177      7179
      7181      7186      7188      7190      7181      7186      7188      7191
      7181      7186      7194      7196      7181      7186      7194      7197
      7183      7181      7186      7188      7183      7181      7186      7194
      7184      7181      7186      7188      7184      7181      7186      7194
      7185      7181      7186      7188      7185      7181      7186      7194
      7186      7188      7191      7193      7186      7188      7191      7197
      7186      7194      7197      7191      7186      7194      7197      7199
      7188      7186      7194      7196      7188      7186      7194      7197
      7188      7191      7197      7194      7188      7191      7197      7199
      7190      7188      7186      7194      7190      7188      7191      7193
      7190      7188      7191      7197      7191      7188      7186      7194
      7191      7197      7194      7196      7193      7191      7197      7194
      7193      7191      7197      7199      7196      7194      7197      7199
      7201      7206      7208      7210      7201      7206      7208      7211
      7201      7206      7214      7216      7201      7206      7214      7217
      7203      7201      7206      7208      7203      7201      7206      7214
      7204      7201      7206      7208      7204      7201      7206      7214
      7205      7201      7206      7208      7205      7201      7206      7214
      7206      7208      7211      7213      7206      7208      7211      7217
      7206      7214      7217      7211      7206      7214      7217      7219
      7208      7206      7214      7216      7208      7206      7214      7217
      7208      7211      7217      7214      7208      7211      7217      7219
      7210      7208      7206      7214      7210      7208      7211      7213
      7210      7208      7211      7217      7211      7208      7206      7214
      7211      7217      7214      7216      7213      7211      7217      7214
      7213      7211      7217      7219      7216      7214      7217      7219
      7221      7226      7228      7230      7221      7226      7228      7231
      7221      7226      7234      7236      7221      7226      7234      7237
      7223      7221      7226      7228      7223      7221      7226      7234
      7224      7221      7226      7228      7224      7221      7226      7234
      7225      7221      7226      7228      7225      7221      7226      7234
      7226      7228      7231      7233      7226      7228      7231      7237
      7226      7234      7237      7231      7226      7234      7237      7239
      7228      7226      7234      7236      7228      7226      7234      7237
      7228      7231      7237      7234      7228      7231      7237      7239
      7230      7228      7226      7234      7230      7228      7231      7233
      7230      7228      7231      7237      7231      7228      7226      7234
      7231      7237      7234      7236      7233      7231      7237      7234
      7233      7231      7237      7239      7236      7234      7237      7239
      7241      7246      7248      7250      7241      7246      7248      7251
      7241      7246      7254      7256      7241      7246      7254      7257
      7243      7241      7246      7248      7243      7241      7246      7254
      7244      7241      7246      7248      7244      7241      7246      7254
      7245      7241      7246      7248      7245      7241      7246      7254
      7246      7248      7251      7253      7246      7248      7251      7257
      7246      7254      7257      7251      7246      7254      7257      7259
      7248      7246      7254      7256      7248      7246      7254      7257
      7248      7251      7257      7254      7248      7251      7257      7259
      7250      7248      7246      7254      7250      7248      7251      7253
      7250      7248      7251      7257      7251      7248      7246      7254
      7251      7257      7254      7256      7253      7251      7257      7254
      7253      7251      7257      7259      7256      7254      7257      7259
      7261      7266      7268      7270      7261      7266      7268      7271
      7261      7266      7274      7276      7261      7266      7274      7277
      7263      7261      7266      7268      7263      7261      7266      7274
      7264      7261      7266      7268      7264      7261      7266      7274
      7265      7261      7266      7268      7265      7261      7266      7274
      7266      7268      7271      7273      7266      7268      7271      7277
      7266      7274      7277      7271      7266      7274      7277      7279
      7268      7266      7274      7276      7268      7266      7274      7277
      7268      7271      7277      7274      7268      7271      7277      7279
      7270      7268      7266      7274      7270      7268      7271      7273
      7270      7268      7271      7277      7271      7268      7266      7274
      7271      7277      7274      7276      7273      7271      7277      7274
      7273      7271      7277      7279      7276      7274      7277      7279
      7281      7286      7288      7290      7281      7286      7288      7291
      7281      7286      7294      7296      7281      7286      7294      7297
      7283      7281      7286      7288      7283      7281      7286      7294
      7284      7281      7286      7288      7284      7281      7286      7294
      7285      7281      7286      7288      7285      7281      7286      7294
      7286      7288      7291      7293      7286      7288      7291      7297
      7286      7294      7297      7291      7286      7294      7297      7299
      7288      7286      7294      7296      7288      7286      7294      7297
      7288      7291      7297      7294      7288      7291      7297      7299
      7290      7288      7286      7294      7290      7288      7291      7293
      7290      7288      7291      7297      7291      7288      7286      7294
      7291      7297      7294      7296      7293      7291      7297      7294
      7293      7291      7297      7299      7296      7294      7297      7299
      7301      7306      7308      7310      7301      7306      7308      7311
      7301      7306      7314      7316      7301      7306      7314      7317
      7303      7301      7306      7308      7303      7301      7306      7314
      7304      7301      7306      7308      7304      7301      7306      7314
      7305      7301      7306      7308      7305      7301      7306      7314
      7306      7308      7311      7313      7306      7308      7311      7317
      7306      7314      7317      7311      7306      7314      7317      7319
      7308      7306      7314      7316      7308      7306      7314      7317
      7308      7311      7317      7314      7308      7311      7317      7319
      7310      7308      7306      7314      7310      7308      7311      7313
      7310      7308      7311      7317      7311      7308      7306      7314
      7311      7317      7314      7316      7313      7311      7317      7314
      7313      7311      7317      7319      7316      7314      7317      7319
      7321      7326      7328      7330      7321      7326      7328      7331
      7321      7326      7334      7336      7321      7326      7334      7337
      7323      7321      7326      7328      7323      7321      7326      7334
      7324      7321      7326      7328      7324      7321      7326      7334
      7325      7321      7326      7328      7325      7321      7326      7334
      7326      7328      7331      7333      7326      7328      7331      7337
      7326      7334      7337      7331      7326      7334      7337      7339
      7328      7326      7334      7336      7328      7326      7334      7337
      7328      7331      7337      7334      7328      7331      7337      7339
      7330      7328      7326      7334      7330      7328      7331      7333
      7330      7328      7331      7337      7331      7328      7326      7334
      7331      7337      7334      7336      7333      7331      7337      7334
      7333      7331      7337      7339      7336      7334      7337      7339
      7341      7346      7348      7350      7341      7346      7348      7351
      7341      7346      7354      7356      7341      7346      7354      7357
      7343      7341      7346      7348      7343      7341      7346      7354
      7344      7341      7346      7348      7344      7341      7346      7354
      7345      7341      7346      7348      7345      7341      7346      7354
      7346      7348      7351      7353      7346      7348      7351      7357
      7346      7354      7357      7351      7346      7354      7357      7359
      7348      7346      7354      7356      7348      7346      7354      7357
      7348      7351      7357      7354      7348      7351      7357      7359
      7350      7348      7346      7354      7350      7348      7351      7353
      7350      7348      7351      7357      7351      7348      7346      7354
      7351      7357      7354      7356      7353      7351      7357      7354
      7353      7351      7357      7359      7356      7354      7357      7359
      7361      7366      7368      7370      7361      7366      7368      7371
      7361      7366      7374      7376      7361      7366      7374      7377
      7363      7361      7366      7368      7363      7361      7366      7374
      7364      7361      7366      7368      7364      7361      7366      7374
      7365      7361      7366      7368      7365      7361      7366      7374
      7366      7368      7371      7373      7366      7368      7371      7377
      7366      7374      7377      7371      7366      7374      7377      7379
      7368      7366      7374      7376      7368      7366      7374      7377
      7368      7371      7377      7374      7368      7371      7377      7379
      7370      7368      7366      7374      7370      7368      7371      7373
      7370      7368      7371      7377      7371      7368      7366      7374
      7371      7377      7374      7376      7373      7371      7377      7374
      7373      7371      7377      7379      7376      7374      7377      7379
      7381      7386      7388      7390      7381      7386      7388      7391
      7381      7386      7394      7396      7381      7386      7394      7397
      7383      7381      7386      7388      7383      7381      7386      7394
      7384      7381      7386      7388      7384      7381      7386      7394
      7385      7381      7386      7388      7385      7381      7386      7394
      7386      7388      7391      7393      7386      7388      7391      7397
      7386      7394      7397      7391      7386      7394      7397      7399
      7388      7386      7394      7396      7388      7386      7394      7397
      7388      7391      7397      7394      7388      7391      7397      7399
      7390      7388      7386      7394      7390      7388      7391      7393
      7390      7388      7391      7397      7391      7388      7386      7394
      7391      7397      7394      7396      7393      7391      7397      7394
      7393      7391      7397      7399      7396      7394      7397      7399
      7401      7406      7408      7410      7401      7406      7408      7411
      7401      7406      7414      7416      7401      7406      7414      7417
      7403      7401      7406      7408      7403      7401      7406      7414
      7404      7401      7406      7408      7404      7401      7406      7414
      7405      7401      7406      7408      7405      7401      7406      7414
      7406      7408      7411      7413      7406      7408      7411      7417
      7406      7414      7417      7411      7406      7414      7417      7419
      7408      7406      7414      7416      7408      7406      7414      7417
      7408      7411      7417      7414      7408      7411      7417      7419
      7410      7408      7406      7414      7410      7408      7411      7413
      7410      7408      7411      7417      7411      7408      7406      7414
      7411      7417      7414      7416      7413      7411      7417      7414
      7413      7411      7417      7419      7416      7414      7417      7419
      7421      7426      7428      7430      7421      7426      7428      7431
      7421      7426      7434      7436      7421      7426      7434      7437
      7423      7421      7426      7428      7423      7421      7426      7434
      7424      7421      7426      7428      7424      7421      7426      7434
      7425      7421      7426      7428      7425      7421      7426      7434
      7426      7428      7431      7433      7426      7428      7431      7437
      7426      7434      7437      7431      7426      7434      7437      7439
      7428      7426      7434      7436      7428      7426      7434      7437
      7428      7431      7437      7434      7428      7431      7437      7439
      7430      7428      7426      7434      7430      7428      7431      7433
      7430      7428      7431      7437      7431      7428      7426      7434
      7431      7437      7434      7436      7433      7431      7437      7434
      7433      7431      7437      7439      7436      7434      7437      7439
      7441      7446      7448      7450      7441      7446      7448      7451
      7441      7446      7454      7456      7441      7446      7454      7457
      7443      7441      7446      7448      7443      7441      7446      7454
      7444      7441      7446      7448      7444      7441      7446      7454
      7445      7441      7446      7448      7445      7441      7446      7454
      7446      7448      7451      7453      7446      7448      7451      7457
      7446      7454      7457      7451      7446      7454      7457      7459
      7448      7446      7454      7456      7448      7446      7454      7457
      7448      7451      7457      7454      7448      7451      7457      7459
      7450      7448      7446      7454      7450      7448      7451      7453
      7450      7448      7451      7457      7451      7448      7446      7454
      7451      7457      7454      7456      7453      7451      7457      7454
      7453      7451      7457      7459      7456      7454      7457      7459
      7461      7466      7468      7470      7461      7466      7468      7471
      7461      7466      7474      7476      7461      7466      7474      7477
      7463      7461      7466      7468      7463      7461      7466      7474
      7464      7461      7466      7468      7464      7461      7466      7474
      7465      7461      7466      7468      7465      7461      7466      7474
      7466      7468      7471      7473      7466      7468      7471      7477
      7466      7474      7477      7471      7466      7474      7477      7479
      7468      7466      7474      7476      7468      7466      7474      7477
      7468      7471      7477      7474      7468      7471      7477      7479
      7470      7468      7466      7474      7470      7468      7471      7473
      7470      7468      7471      7477      7471      7468      7466      7474
      7471      7477      7474      7476      7473      7471      7477      7474
      7473      7471      7477      7479      7476      7474      7477      7479
      7481      7486      7488      7490      7481      7486      7488      7491
      7481      7486      7494      7496      7481      7486      7494      7497
      7483      7481      7486      7488      7483      7481      7486      7494
      7484      7481      7486      7488      7484      7481      7486      7494
      7485      7481      7486      7488      7485      7481      7486      7494
      7486      7488      7491      7493      7486      7488      7491      7497
      7486      7494      7497      7491      7486      7494      7497      7499
      7488      7486      7494      7496      7488      7486      7494      7497
      7488      7491      7497      7494      7488      7491      7497      7499
      7490      7488      7486      7494      7490      7488      7491      7493
      7490      7488      7491      7497      7491      7488      7486      7494
      7491      7497      7494      7496      7493      7491      7497      7494
      7493      7491      7497      7499      7496      7494      7497      7499
      7501      7506      7508      7510      7501      7506      7508      7511
      7501      7506      7514      7516      7501      7506      7514      7517
      7503      7501      7506      7508      7503      7501      7506      7514
      7504      7501      7506      7508      7504      7501      7506      7514
      7505      7501      7506      7508      7505      7501      7506      7514
      7506      7508      7511      7513      7506      7508      7511      7517
      7506      7514      7517      7511      7506      7514      7517      7519
      7508      7506      7514      7516      7508      7506      7514      7517
      7508      7511      7517      7514      7508      7511      7517      7519
      7510      7508      7506      7514      7510      7508      7511      7513
      7510      7508      7511      7517      7511      7508      7506      7514
      7511      7517      7514      7516      7513      7511      7517      7514
      7513      7511      7517      7519      7516      7514      7517      7519
      7521      7526      7528      7530      7521      7526      7528      7531
      7521      7526      7534      7536      7521      7526      7534      7537
      7523      7521      7526      7528      7523      7521      7526      7534
      7524      7521      7526      7528      7524      7521      7526      7534
      7525      7521      7526      7528      7525      7521      7526      7534
      7526      7528      7531      7533      7526      7528      7531      7537
      7526      7534      7537      7531      7526      7534      7537      7539
      7528      7526      7534      7536      7528      7526      7534      7537
      7528      7531      7537      7534      7528      7531      7537      7539
      7530      7528      7526      7534      7530      7528      7531      7533
      7530      7528      7531      7537      7531      7528      7526      7534
      7531      7537      7534      7536      7533      7531      7537      7534
      7533      7531      7537      7539      7536      7534      7537      7539
      7541      7546      7548      7550      7541      7546      7548      7551
      7541      7546      7554      7556      7541      7546      7554      7557
      7543      7541      7546      7548      7543      7541      7546      7554
      7544      7541      7546      7548      7544      7541      7546      7554
      7545      7541      7546      7548      7545      7541      7546      7554
      7546      7548      7551      7553      7546      7548      7551      7557
      7546      7554      7557      7551      7546      7554      7557      7559
      7548      7546      7554      7556      7548      7546      7554      7557
      7548      7551      7557      7554      7548      7551      7557      7559
      7550      7548      7546      7554      7550      7548      7551      7553
      7550      7548      7551      7557      7551      7548      7546      7554
      7551      7557      7554      7556      7553      7551      7557      7554
      7553      7551      7557      7559      7556      7554      7557      7559
      7561      7566      7568      7570      7561      7566      7568      7571
      7561      7566      7574      7576      7561      7566      7574      7577
      7563      7561      7566      7568      7563      7561      7566      7574
      7564      7561      7566      7568      7564      7561      7566      7574
      7565      7561      7566      7568      7565      7561      7566      7574
      7566      7568      7571      7573      7566      7568      7571      7577
      7566      7574      7577      7571      7566      7574      7577      7579
      7568      7566      7574      7576      7568      7566      7574      7577
      7568      7571      7577      7574      7568      7571      7577      7579
      7570      7568      7566      7574      7570      7568      7571      7573
      7570      7568      7571      7577      7571      7568      7566      7574
      7571      7577      7574      7576      7573      7571      7577      7574
      7573      7571      7577      7579      7576      7574      7577      7579
      7581      7586      7588      7590      7581      7586      7588      7591
      7581      7586      7594      7596      7581      7586      7594      7597
      7583      7581      7586      7588      7583      7581      7586      7594
      7584      7581      7586      7588      7584      7581      7586      7594
      7585      7581      7586      7588      7585      7581      7586      7594
      7586      7588      7591      7593      7586      7588      7591      7597
      7586      7594      7597      7591      7586      7594      7597      7599
      7588      7586      7594      7596      7588      7586      7594      7597
      7588      7591      7597      7594      7588      7591      7597      7599
      7590      7588      7586      7594      7590      7588      7591      7593
      7590      7588      7591      7597      7591      7588      7586      7594
      7591      7597      7594      7596      7593      7591      7597      7594
      7593      7591      7597      7599      7596      7594      7597      7599
      7601      7606      7608      7610      7601      7606      7608      7611
      7601      7606      7614      7616      7601      7606      7614      7617
      7603      7601      7606      7608      7603      7601      7606      7614
      7604      7601      7606      7608      7604      7601      7606      7614
      7605      7601      7606      7608      7605      7601      7606      7614
      7606      7608      7611      7613      7606      7608      7611      7617
      7606      7614      7617      7611      7606      7614      7617      7619
      7608      7606      7614      7616      7608      7606      7614      7617
      7608      7611      7617      7614      7608      7611      7617      7619
      7610      7608      7606      7614      7610      7608      7611      7613
      7610      7608      7611      7617      7611      7608      7606      7614
      7611      7617      7614      7616      7613      7611      7617      7614
      7613      7611      7617      7619      7616      7614      7617      7619
      7621      7626      7628      7630      7621      7626      7628      7631
      7621      7626      7634      7636      7621      7626      7634      7637
      7623      7621      7626      7628      7623      7621      7626      7634
      7624      7621      7626      7628      7624      7621      7626      7634
      7625      7621      7626      7628      7625      7621      7626      7634
      7626      7628      7631      7633      7626      7628      7631      7637
      7626      7634      7637      7631      7626      7634      7637      7639
      7628      7626      7634      7636      7628      7626      7634      7637
      7628      7631      7637      7634      7628      7631      7637      7639
      7630      7628      7626      7634      7630      7628      7631      7633
      7630      7628      7631      7637      7631      7628      7626      7634
      7631      7637      7634      7636      7633      7631      7637      7634
      7633      7631      7637      7639      7636      7634      7637      7639
      7641      7646      7648      7650      7641      7646      7648      7651
      7641      7646      7654      7656      7641      7646      7654      7657
      7643      7641      7646      7648      7643      7641      7646      7654
      7644      7641      7646      7648      7644      7641      7646      7654
      7645      7641      7646      7648      7645      7641      7646      7654
      7646      7648      7651      7653      7646      7648      7651      7657
      7646      7654      7657      7651      7646      7654      7657      7659
      7648      7646      7654      7656      7648      7646      7654      7657
      7648      7651      7657      7654      7648      7651      7657      7659
      7650      7648      7646      7654      7650      7648      7651      7653
      7650      7648      7651      7657      7651      7648      7646      7654
      7651      7657      7654      7656      7653      7651      7657      7654
      7653      7651      7657      7659      7656      7654      7657      7659
      7661      7666      7668      7670      7661      7666      7668      7671
      7661      7666      7674      7676      7661      7666      7674      7677
      7663      7661      7666      7668      7663      7661      7666      7674
      7664      7661      7666      7668      7664      7661      7666      7674
      7665      7661      7666      7668      7665      7661      7666      7674
      7666      7668      7671      7673      7666      7668      7671      7677
      7666      7674      7677      7671      7666      7674      7677      7679
      7668      7666      7674      7676      7668      7666      7674      7677
      7668      7671      7677      7674      7668      7671      7677      7679
      7670      7668      7666      7674      7670      7668      7671      7673
      7670      7668      7671      7677      7671      7668      7666      7674
      7671      7677      7674      7676      7673      7671      7677      7674
      7673      7671      7677      7679      7676      7674      7677      7679
      7681      7686      7688      7690      7681      7686      7688      7691
      7681      7686      7694      7696      7681      7686      7694      7697
      7683      7681      7686      7688      7683      7681      7686      7694
      7684      7681      7686      7688      7684      7681      7686      7694
      7685      7681      7686      7688      7685      7681      7686      7694
      7686      7688      7691      7693      7686      7688      7691      7697
      7686      7694      7697      7691      7686      7694      7697      7699
      7688      7686      7694      7696      7688      7686      7694      7697
      7688      7691      7697      7694      7688      7691      7697      7699
      7690      7688      7686      7694      7690      7688      7691      7693
      7690      7688      7691      7697      7691      7688      7686      7694
      7691      7697      7694      7696      7693      7691      7697      7694
      7693      7691      7697      7699      7696      7694      7697      7699
      7701      7706      7708      7710      7701      7706      7708      7711
      7701      7706      7714      7716      7701      7706      7714      7717
      7703      7701      7706      7708      7703      7701      7706      7714
      7704      7701      7706      7708      7704      7701      7706      7714
      7705      7701      7706      7708      7705      7701      7706      7714
      7706      7708      7711      7713      7706      7708      7711      7717
      7706      7714      7717      7711      7706      7714      7717      7719
      7708      7706      7714      7716      7708      7706      7714      7717
      7708      7711      7717      7714      7708      7711      7717      7719
      7710      7708      7706      7714      7710      7708      7711      7713
      7710      7708      7711      7717      7711      7708      7706      7714
      7711      7717      7714      7716      7713      7711      7717      7714
      7713      7711      7717      7719      7716      7714      7717      7719
      7721      7726      7728      7730      7721      7726      7728      7731
      7721      7726      7734      7736      7721      7726      7734      7737
      7723      7721      7726      7728      7723      7721      7726      7734
      7724      7721      7726      7728      7724      7721      7726      7734
      7725      7721      7726      7728      7725      7721      7726      7734
      7726      7728      7731      7733      7726      7728      7731      7737
      7726      7734      7737      7731      7726      7734      7737      7739
      7728      7726      7734      7736      7728      7726      7734      7737
      7728      7731      7737      7734      7728      7731      7737      7739
      7730      7728      7726      7734      7730      7728      7731      7733
      7730      7728      7731      7737      7731      7728      7726      7734
      7731      7737      7734      7736      7733      7731      7737      7734
      7733      7731      7737      7739      7736      7734      7737      7739
      7741      7746      7748      7750      7741      7746      7748      7751
      7741      7746      7754      7756      7741      7746      7754      7757
      7743      7741      7746      7748      7743      7741      7746      7754
      7744      7741      7746      7748      7744      7741      7746      7754
      7745      7741      7746      7748      7745      7741      7746      7754
      7746      7748      7751      7753      7746      7748      7751      7757
      7746      7754      7757      7751      7746      7754      7757      7759
      7748      7746      7754      7756      7748      7746      7754      7757
      7748      7751      7757      7754      7748      7751      7757      7759
      7750      7748      7746      7754      7750      7748      7751      7753
      7750      7748      7751      7757      7751      7748      7746      7754
      7751      7757      7754      7756      7753      7751      7757      7754
      7753      7751      7757      7759      7756      7754      7757      7759
      7761      7766      7768      7770      7761      7766      7768      7771
      7761      7766      7774      7776      7761      7766      7774      7777
      7763      7761      7766      7768      7763      7761      7766      7774
      7764      7761      7766      7768      7764      7761      7766      7774
      7765      7761      7766      7768      7765      7761      7766      7774
      7766      7768      7771      7773      7766      7768      7771      7777
      7766      7774      7777      7771      7766      7774      7777      7779
      7768      7766      7774      7776      7768      7766      7774      7777
      7768      7771      7777      7774      7768      7771      7777      7779
      7770      7768      7766      7774      7770      7768      7771      7773
      7770      7768      7771      7777      7771      7768      7766      7774
      7771      7777      7774      7776      7773      7771      7777      7774
      7773      7771      7777      7779      7776      7774      7777      7779
      7781      7786      7788      7790      7781      7786      7788      7791
      7781      7786      7794      7796      7781      7786      7794      7797
      7783      7781      7786      7788      7783      7781      7786      7794
      7784      7781      7786      7788      7784      7781      7786      7794
      7785      7781      7786      7788      7785      7781      7786      7794
      7786      7788      7791      7793      7786      7788      7791      7797
      7786      7794      7797      7791      7786      7794      7797      7799
      7788      7786      7794      7796      7788      7786      7794      7797
      7788      7791      7797      7794      7788      7791      7797      7799
      7790      7788      7786      7794      7790      7788      7791      7793
      7790      7788      7791      7797      7791      7788      7786      7794
      7791      7797      7794      7796      7793      7791      7797      7794
      7793      7791      7797      7799      7796      7794      7797      7799
      7801      7806      7808      7810      7801      7806      7808      7811
      7801      7806      7814      7816      7801      7806      7814      7817
      7803      7801      7806      7808      7803      7801      7806      7814
      7804      7801      7806      7808      7804      7801      7806      7814
      7805      7801      7806      7808      7805      7801      7806      7814
      7806      7808      7811      7813      7806      7808      7811      7817
      7806      7814      7817      7811      7806      7814      7817      7819
      7808      7806      7814      7816      7808      7806      7814      7817
      7808      7811      7817      7814      7808      7811      7817      7819
      7810      7808      7806      7814      7810      7808      7811      7813
      7810      7808      7811      7817      7811      7808      7806      7814
      7811      7817      7814      7816      7813      7811      7817      7814
      7813      7811      7817      7819      7816      7814      7817      7819
      7821      7826      7828      7830      7821      7826      7828      7831
      7821      7826      7834      7836      7821      7826      7834      7837
      7823      7821      7826      7828      7823      7821      7826      7834
      7824      7821      7826      7828      7824      7821      7826      7834
      7825      7821      7826      7828      7825      7821      7826      7834
      7826      7828      7831      7833      7826      7828      7831      7837
      7826      7834      7837      7831      7826      7834      7837      7839
      7828      7826      7834      7836      7828      7826      7834      7837
      7828      7831      7837      7834      7828      7831      7837      7839
      7830      7828      7826      7834      7830      7828      7831      7833
      7830      7828      7831      7837      7831      7828      7826      7834
      7831      7837      7834      7836      7833      7831      7837      7834
      7833      7831      7837      7839      7836      7834      7837      7839
      7841      7846      7848      7850      7841      7846      7848      7851
      7841      7846      7854      7856      7841      7846      7854      7857
      7843      7841      7846      7848      7843      7841      7846      7854
      7844      7841      7846      7848      7844      7841      7846      7854
      7845      7841      7846      7848      7845      7841      7846      7854
      7846      7848      7851      7853      7846      7848      7851      7857
      7846      7854      7857      7851      7846      7854      7857      7859
      7848      7846      7854      7856      7848      7846      7854      7857
      7848      7851      7857      7854      7848      7851      7857      7859
      7850      7848      7846      7854      7850      7848      7851      7853
      7850      7848      7851      7857      7851      7848      7846      7854
      7851      7857      7854      7856      7853      7851      7857      7854
      7853      7851      7857      7859      7856      7854      7857      7859
      7861      7866      7868      7870      7861      7866      7868      7871
      7861      7866      7874      7876      7861      7866      7874      7877
      7863      7861      7866      7868      7863      7861      7866      7874
      7864      7861      7866      7868      7864      7861      7866      7874
      7865      7861      7866      7868      7865      7861      7866      7874
      7866      7868      7871      7873      7866      7868      7871      7877
      7866      7874      7877      7871      7866      7874      7877      7879
      7868      7866      7874      7876      7868      7866      7874      7877
      7868      7871      7877      7874      7868      7871      7877      7879
      7870      7868      7866      7874      7870      7868      7871      7873
      7870      7868      7871      7877      7871      7868      7866      7874
      7871      7877      7874      7876      7873      7871      7877      7874
      7873      7871      7877      7879      7876      7874      7877      7879
      7881      7886      7888      7890      7881      7886      7888      7891
      7881      7886      7894      7896      7881      7886      7894      7897
      7883      7881      7886      7888      7883      7881      7886      7894
      7884      7881      7886      7888      7884      7881      7886      7894
      7885      7881      7886      7888      7885      7881      7886      7894
      7886      7888      7891      7893      7886      7888      7891      7897
      7886      7894      7897      7891      7886      7894      7897      7899
      7888      7886      7894      7896      7888      7886      7894      7897
      7888      7891      7897      7894      7888      7891      7897      7899
      7890      7888      7886      7894      7890      7888      7891      7893
      7890      7888      7891      7897      7891      7888      7886      7894
      7891      7897      7894      7896      7893      7891      7897      7894
      7893      7891      7897      7899      7896      7894      7897      7899
      7901      7906      7908      7910      7901      7906      7908      7911
      7901      7906      7914      7916      7901      7906      7914      7917
      7903      7901      7906      7908      7903      7901      7906      7914
      7904      7901      7906      7908      7904      7901      7906      7914
      7905      7901      7906      7908      7905      7901      7906      7914
      7906      7908      7911      7913      7906      7908      7911      7917
      7906      7914      7917      7911      7906      7914      7917      7919
      7908      7906      7914      7916      7908      7906      7914      7917
      7908      7911      7917      7914      7908      7911      7917      7919
      7910      7908      7906      7914      7910      7908      7911      7913
      7910      7908      7911      7917      7911      7908      7906      7914
      7911      7917      7914      7916      7913      7911      7917      7914
      7913      7911      7917      7919      7916      7914      7917      7919
      7921      7926      7928      7930      7921      7926      7928      7931
      7921      7926      7934      7936      7921      7926      7934      7937
      7923      7921      7926      7928      7923      7921      7926      7934
      7924      7921      7926      7928      7924      7921      7926      7934
      7925      7921      7926      7928      7925      7921      7926      7934
      7926      7928      7931      7933      7926      7928      7931      7937
      7926      7934      7937      7931      7926      7934      7937      7939
      7928      7926      7934      7936      7928      7926      7934      7937
      7928      7931      7937      7934      7928      7931      7937      7939
      7930      7928      7926      7934      7930      7928      7931      7933
      7930      7928      7931      7937      7931      7928      7926      7934
      7931      7937      7934      7936      7933      7931      7937      7934
      7933      7931      7937      7939      7936      7934      7937      7939
      7941      7946      7948      7950      7941      7946      7948      7951
      7941      7946      7954      7956      7941      7946      7954      7957
      7943      7941      7946      7948      7943      7941      7946      7954
      7944      7941      7946      7948      7944      7941      7946      7954
      7945      7941      7946      7948      7945      7941      7946      7954
      7946      7948      7951      7953      7946      7948      7951      7957
      7946      7954      7957      7951      7946      7954      7957      7959
      7948      7946      7954      7956      7948      7946      7954      7957
      7948      7951      7957      7954      7948      7951      7957      7959
      7950      7948      7946      7954      7950      7948      7951      7953
      7950      7948      7951      7957      7951      7948      7946      7954
      7951      7957      7954      7956      7953      7951      7957      7954
      7953      7951      7957      7959      7956      7954      7957      7959
      7961      7966      7968      7970      7961      7966      7968      7971
      7961      7966      7974      7976      7961      7966      7974      7977
      7963      7961      7966      7968      7963      7961      7966      7974
      7964      7961      7966      7968      7964      7961      7966      7974
      7965      7961      7966      7968      7965      7961      7966      7974
      7966      7968      7971      7973      7966      7968      7971      7977
      7966      7974      7977      7971      7966      7974      7977      7979
      7968      7966      7974      7976      7968      7966      7974      7977
      7968      7971      7977      7974      7968      7971      7977      7979
      7970      7968      7966      7974      7970      7968      7971      7973
      7970      7968      7971      7977      7971      7968      7966      7974
      7971      7977      7974      7976      7973      7971      7977      7974
      7973      7971      7977      7979      7976      7974      7977      7979
      7981      7986      7988      7990      7981      7986      7988      7991
      7981      7986      7994      7996      7981      7986      7994      7997
      7983      7981      7986      7988      7983      7981      7986      7994
      7984      7981      7986      7988      7984      7981      7986      7994
      7985      7981      7986      7988      7985      7981      7986      7994
      7986      7988      7991      7993      7986      7988      7991      7997
      7986      7994      7997      7991      7986      7994      7997      7999
      7988      7986      7994      7996      7988      7986      7994      7997
      7988      7991      7997      7994      7988      7991      7997      7999
      7990      7988      7986      7994      7990      7988      7991      7993
      7990      7988      7991      7997      7991      7988      7986      7994
      7991      7997      7994      7996      7993      7991      7997      7994
      7993      7991      7997      7999      7996      7994      7997      7999
      8001      8006      8008      8010      8001      8006      8008      8011
      8001      8006      8014      8016      8001      8006      8014      8017
      8003      8001      8006      8008      8003      8001      8006      8014
      8004      8001      8006      8008      8004      8001      8006      8014
      8005      8001      8006      8008      8005      8001      8006      8014
      8006      8008      8011      8013      8006      8008      8011      8017
      8006      8014      8017      8011      8006      8014      8017      8019
      8008      8006      8014      8016      8008      8006      8014      8017
      8008      8011      8017      8014      8008      8011      8017      8019
      8010      8008      8006      8014      8010      8008      8011      8013
      8010      8008      8011      8017      8011      8008      8006      8014
      8011      8017      8014      8016      8013      8011      8017      8014
      8013      8011      8017      8019      8016      8014      8017      8019
      8021      8026      8028      8030      8021      8026      8028      8031
      8021      8026      8034      8036      8021      8026      8034      8037
      8023      8021      8026      8028      8023      8021      8026      8034
      8024      8021      8026      8028      8024      8021      8026      8034
      8025      8021      8026      8028      8025      8021      8026      8034
      8026      8028      8031      8033      8026      8028      8031      8037
      8026      8034      8037      8031      8026      8034      8037      8039
      8028      8026      8034      8036      8028      8026      8034      8037
      8028      8031      8037      8034      8028      8031      8037      8039
      8030      8028      8026      8034      8030      8028      8031      8033
      8030      8028      8031      8037      8031      8028      8026      8034
      8031      8037      8034      8036      8033      8031      8037      8034
      8033      8031      8037      8039      8036      8034      8037      8039
      8041      8046      8048      8050      8041      8046      8048      8051
      8041      8046      8054      8056      8041      8046      8054      8057
      8043      8041      8046      8048      8043      8041      8046      8054
      8044      8041      8046      8048      8044      8041      8046      8054
      8045      8041      8046      8048      8045      8041      8046      8054
      8046      8048      8051      8053      8046      8048      8051      8057
      8046      8054      8057      8051      8046      8054      8057      8059
      8048      8046      8054      8056      8048      8046      8054      8057
      8048      8051      8057      8054      8048      8051      8057      8059
      8050      8048      8046      8054      8050      8048      8051      8053
      8050      8048      8051      8057      8051      8048      8046      8054
      8051      8057      8054      8056      8053      8051      8057      8054
      8053      8051      8057      8059      8056      8054      8057      8059
      8061      8066      8068      8070      8061      8066      8068      8071
      8061      8066      8074      8076      8061      8066      8074      8077
      8063      8061      8066      8068      8063      8061      8066      8074
      8064      8061      8066      8068      8064      8061      8066      8074
      8065      8061      8066      8068      8065      8061      8066      8074
      8066      8068      8071      8073      8066      8068      8071      8077
      8066      8074      8077      8071      8066      8074      8077      8079
      8068      8066      8074      8076      8068      8066      8074      8077
      8068      8071      8077      8074      8068      8071      8077      8079
      8070      8068      8066      8074      8070      8068      8071      8073
      8070      8068      8071      8077      8071      8068      8066      8074
      8071      8077      8074      8076      8073      8071      8077      8074
      8073      8071      8077      8079      8076      8074      8077      8079
      8081      8086      8088      8090      8081      8086      8088      8091
      8081      8086      8094      8096      8081      8086      8094      8097
      8083      8081      8086      8088      8083      8081      8086      8094
      8084      8081      8086      8088      8084      8081      8086      8094
      8085      8081      8086      8088      8085      8081      8086      8094
      8086      8088      8091      8093      8086      8088      8091      8097
      8086      8094      8097      8091      8086      8094      8097      8099
      8088      8086      8094      8096      8088      8086      8094      8097
      8088      8091      8097      8094      8088      8091      8097      8099
      8090      8088      8086      8094      8090      8088      8091      8093
      8090      8088      8091      8097      8091      8088      8086      8094
      8091      8097      8094      8096      8093      8091      8097      8094
      8093      8091      8097      8099      8096      8094      8097      8099
      8101      8106      8108      8110      8101      8106      8108      8111
      8101      8106      8114      8116      8101      8106      8114      8117
      8103      8101      8106      8108      8103      8101      8106      8114
      8104      8101      8106      8108      8104      8101      8106      8114
      8105      8101      8106      8108      8105      8101      8106      8114
      8106      8108      8111      8113      8106      8108      8111      8117
      8106      8114      8117      8111      8106      8114      8117      8119
      8108      8106      8114      8116      8108      8106      8114      8117
      8108      8111      8117      8114      8108      8111      8117      8119
      8110      8108      8106      8114      8110      8108      8111      8113
      8110      8108      8111      8117      8111      8108      8106      8114
      8111      8117      8114      8116      8113      8111      8117      8114
      8113      8111      8117      8119      8116      8114      8117      8119
      8121      8126      8128      8130      8121      8126      8128      8131
      8121      8126      8134      8136      8121      8126      8134      8137
      8123      8121      8126      8128      8123      8121      8126      8134
      8124      8121      8126      8128      8124      8121      8126      8134
      8125      8121      8126      8128      8125      8121      8126      8134
      8126      8128      8131      8133      8126      8128      8131      8137
      8126      8134      8137      8131      8126      8134      8137      8139
      8128      8126      8134      8136      8128      8126      8134      8137
      8128      8131      8137      8134      8128      8131      8137      8139
      8130      8128      8126      8134      8130      8128      8131      8133
      8130      8128      8131      8137      8131      8128      8126      8134
      8131      8137      8134      8136      8133      8131      8137      8134
      8133      8131      8137      8139      8136      8134      8137      8139
      8141      8146      8148      8150      8141      8146      8148      8151
      8141      8146      8154      8156      8141      8146      8154      8157
      8143      8141      8146      8148      8143      8141      8146      8154
      8144      8141      8146      8148      8144      8141      8146      8154
      8145      8141      8146      8148      8145      8141      8146      8154
      8146      8148      8151      8153      8146      8148      8151      8157
      8146      8154      8157      8151      8146      8154      8157      8159
      8148      8146      8154      8156      8148      8146      8154      8157
      8148      8151      8157      8154      8148      8151      8157      8159
      8150      8148      8146      8154      8150      8148      8151      8153
      8150      8148      8151      8157      8151      8148      8146      8154
      8151      8157      8154      8156      8153      8151      8157      8154
      8153      8151      8157      8159      8156      8154      8157      8159
      8161      8166      8168      8170      8161      8166      8168      8171
      8161      8166      8174      8176      8161      8166      8174      8177
      8163      8161      8166      8168      8163      8161      8166      8174
      8164      8161      8166      8168      8164      8161      8166      8174
      8165      8161      8166      8168      8165      8161      8166      8174
      8166      8168      8171      8173      8166      8168      8171      8177
      8166      8174      8177      8171      8166      8174      8177      8179
      8168      8166      8174      8176      8168      8166      8174      8177
      8168      8171      8177      8174      8168      8171      8177      8179
      8170      8168      8166      8174      8170      8168      8171      8173
      8170      8168      8171      8177      8171      8168      8166      8174
      8171      8177      8174      8176      8173      8171      8177      8174
      8173      8171      8177      8179      8176      8174      8177      8179
      8181      8186      8188      8190      8181      8186      8188      8191
      8181      8186      8194      8196      8181      8186      8194      8197
      8183      8181      8186      8188      8183      8181      8186      8194
      8184      8181      8186      8188      8184      8181      8186      8194
      8185      8181      8186      8188      8185      8181      8186      8194
      8186      8188      8191      8193      8186      8188      8191      8197
      8186      8194      8197      8191      8186      8194      8197      8199
      8188      8186      8194      8196      8188      8186      8194      8197
      8188      8191      8197      8194      8188      8191      8197      8199
      8190      8188      8186      8194      8190      8188      8191      8193
      8190      8188      8191      8197      8191      8188      8186      8194
      8191      8197      8194      8196      8193      8191      8197      8194
      8193      8191      8197      8199      8196      8194      8197      8199
      8201      8206      8208      8210      8201      8206      8208      8211
      8201      8206      8214      8216      8201      8206      8214      8217
      8203      8201      8206      8208      8203      8201      8206      8214
      8204      8201      8206      8208      8204      8201      8206      8214
      8205      8201      8206      8208      8205      8201      8206      8214
      8206      8208      8211      8213      8206      8208      8211      8217
      8206      8214      8217      8211      8206      8214      8217      8219
      8208      8206      8214      8216      8208      8206      8214      8217
      8208      8211      8217      8214      8208      8211      8217      8219
      8210      8208      8206      8214      8210      8208      8211      8213
      8210      8208      8211      8217      8211      8208      8206      8214
      8211      8217      8214      8216      8213      8211      8217      8214
      8213      8211      8217      8219      8216      8214      8217      8219
      8221      8226      8228      8230      8221      8226      8228      8231
      8221      8226      8234      8236      8221      8226      8234      8237
      8223      8221      8226      8228      8223      8221      8226      8234
      8224      8221      8226      8228      8224      8221      8226      8234
      8225      8221      8226      8228      8225      8221      8226      8234
      8226      8228      8231      8233      8226      8228      8231      8237
      8226      8234      8237      8231      8226      8234      8237      8239
      8228      8226      8234      8236      8228      8226      8234      8237
      8228      8231      8237      8234      8228      8231      8237      8239
      8230      8228      8226      8234      8230      8228      8231      8233
      8230      8228      8231      8237      8231      8228      8226      8234
      8231      8237      8234      8236      8233      8231      8237      8234
      8233      8231      8237      8239      8236      8234      8237      8239
      8241      8246      8248      8250      8241      8246      8248      8251
      8241      8246      8254      8256      8241      8246      8254      8257
      8243      8241      8246      8248      8243      8241      8246      8254
      8244      8241      8246      8248      8244      8241      8246      8254
      8245      8241      8246      8248      8245      8241      8246      8254
      8246      8248      8251      8253      8246      8248      8251      8257
      8246      8254      8257      8251      8246      8254      8257      8259
      8248      8246      8254      8256      8248      8246      8254      8257
      8248      8251      8257      8254      8248      8251      8257      8259
      8250      8248      8246      8254      8250      8248      8251      8253
      8250      8248      8251      8257      8251      8248      8246      8254
      8251      8257      8254      8256      8253      8251      8257      8254
      8253      8251      8257      8259      8256      8254      8257      8259
      8261      8266      8268      8270      8261      8266      8268      8271
      8261      8266      8274      8276      8261      8266      8274      8277
      8263      8261      8266      8268      8263      8261      8266      8274
      8264      8261      8266      8268      8264      8261      8266      8274
      8265      8261      8266      8268      8265      8261      8266      8274
      8266      8268      8271      8273      8266      8268      8271      8277
      8266      8274      8277      8271      8266      8274      8277      8279
      8268      8266      8274      8276      8268      8266      8274      8277
      8268      8271      8277      8274      8268      8271      8277      8279
      8270      8268      8266      8274      8270      8268      8271      8273
      8270      8268      8271      8277      8271      8268      8266      8274
      8271      8277      8274      8276      8273      8271      8277      8274
      8273      8271      8277      8279      8276      8274      8277      8279
      8281      8286      8288      8290      8281      8286      8288      8291
      8281      8286      8294      8296      8281      8286      8294      8297
      8283      8281      8286      8288      8283      8281      8286      8294
      8284      8281      8286      8288      8284      8281      8286      8294
      8285      8281      8286      8288      8285      8281      8286      8294
      8286      8288      8291      8293      8286      8288      8291      8297
      8286      8294      8297      8291      8286      8294      8297      8299
      8288      8286      8294      8296      8288      8286      8294      8297
      8288      8291      8297      8294      8288      8291      8297      8299
      8290      8288      8286      8294      8290      8288      8291      8293
      8290      8288      8291      8297      8291      8288      8286      8294
      8291      8297      8294      8296      8293      8291      8297      8294
      8293      8291      8297      8299      8296      8294      8297      8299
      8301      8306      8308      8310      8301      8306      8308      8311
      8301      8306      8314      8316      8301      8306      8314      8317
      8303      8301      8306      8308      8303      8301      8306      8314
      8304      8301      8306      8308      8304      8301      8306      8314
      8305      8301      8306      8308      8305      8301      8306      8314
      8306      8308      8311      8313      8306      8308      8311      8317
      8306      8314      8317      8311      8306      8314      8317      8319
      8308      8306      8314      8316      8308      8306      8314      8317
      8308      8311      8317      8314      8308      8311      8317      8319
      8310      8308      8306      8314      8310      8308      8311      8313
      8310      8308      8311      8317      8311      8308      8306      8314
      8311      8317      8314      8316      8313      8311      8317      8314
      8313      8311      8317      8319      8316      8314      8317      8319
      8321      8326      8328      8330      8321      8326      8328      8331
      8321      8326      8334      8336      8321      8326      8334      8337
      8323      8321      8326      8328      8323      8321      8326      8334
      8324      8321      8326      8328      8324      8321      8326      8334
      8325      8321      8326      8328      8325      8321      8326      8334
      8326      8328      8331      8333      8326      8328      8331      8337
      8326      8334      8337      8331      8326      8334      8337      8339
      8328      8326      8334      8336      8328      8326      8334      8337
      8328      8331      8337      8334      8328      8331      8337      8339
      8330      8328      8326      8334      8330      8328      8331      8333
      8330      8328      8331      8337      8331      8328      8326      8334
      8331      8337      8334      8336      8333      8331      8337      8334
      8333      8331      8337      8339      8336      8334      8337      8339
      8341      8346      8348      8350      8341      8346      8348      8351
      8341      8346      8354      8356      8341      8346      8354      8357
      8343      8341      8346      8348      8343      8341      8346      8354
      8344      8341      8346      8348      8344      8341      8346      8354
      8345      8341      8346      8348      8345      8341      8346      8354
      8346      8348      8351      8353      8346      8348      8351      8357
      8346      8354      8357      8351      8346      8354      8357      8359
      8348      8346      8354      8356      8348      8346      8354      8357
      8348      8351      8357      8354      8348      8351      8357      8359
      8350      8348      8346      8354      8350      8348      8351      8353
      8350      8348      8351      8357      8351      8348      8346      8354
      8351      8357      8354      8356      8353      8351      8357      8354
      8353      8351      8357      8359      8356      8354      8357      8359
      8361      8366      8368      8370      8361      8366      8368      8371
      8361      8366      8374      8376      8361      8366      8374      8377
      8363      8361      8366      8368      8363      8361      8366      8374
      8364      8361      8366      8368      8364      8361      8366      8374
      8365      8361      8366      8368      8365      8361      8366      8374
      8366      8368      8371      8373      8366      8368      8371      8377
      8366      8374      8377      8371      8366      8374      8377      8379
      8368      8366      8374      8376      8368      8366      8374      8377
      8368      8371      8377      8374      8368      8371      8377      8379
      8370      8368      8366      8374      8370      8368      8371      8373
      8370      8368      8371      8377      8371      8368      8366      8374
      8371      8377      8374      8376      8373      8371      8377      8374
      8373      8371      8377      8379      8376      8374      8377      8379
      8381      8386      8388      8390      8381      8386      8388      8391
      8381      8386      8394      8396      8381      8386      8394      8397
      8383      8381      8386      8388      8383      8381      8386      8394
      8384      8381      8386      8388      8384      8381      8386      8394
      8385      8381      8386      8388      8385      8381      8386      8394
      8386      8388      8391      8393      8386      8388      8391      8397
      8386      8394      8397      8391      8386      8394      8397      8399
      8388      8386      8394      8396      8388      8386      8394      8397
      8388      8391      8397      8394      8388      8391      8397      8399
      8390      8388      8386      8394      8390      8388      8391      8393
      8390      8388      8391      8397      8391      8388      8386      8394
      8391      8397      8394      8396      8393      8391      8397      8394
      8393      8391      8397      8399      8396      8394      8397      8399
      8401      8406      8408      8410      8401      8406      8408      8411
      8401      8406      8414      8416      8401      8406      8414      8417
      8403      8401      8406      8408      8403      8401      8406      8414
      8404      8401      8406      8408      8404      8401      8406      8414
      8405      8401      8406      8408      8405      8401      8406      8414
      8406      8408      8411      8413      8406      8408      8411      8417
      8406      8414      8417      8411      8406      8414      8417      8419
      8408      8406      8414      8416      8408      8406      8414      8417
      8408      8411      8417      8414      8408      8411      8417      8419
      8410      8408      8406      8414      8410      8408      8411      8413
      8410      8408      8411      8417      8411      8408      8406      8414
      8411      8417      8414      8416      8413      8411      8417      8414
      8413      8411      8417      8419      8416      8414      8417      8419
      8421      8426      8428      8430      8421      8426      8428      8431
      8421      8426      8434      8436      8421      8426      8434      8437
      8423      8421      8426      8428      8423      8421      8426      8434
      8424      8421      8426      8428      8424      8421      8426      8434
      8425      8421      8426      8428      8425      8421      8426      8434
      8426      8428      8431      8433      8426      8428      8431      8437
      8426      8434      8437      8431      8426      8434      8437      8439
      8428      8426      8434      8436      8428      8426      8434      8437
      8428      8431      8437      8434      8428      8431      8437      8439
      8430      8428      8426      8434      8430      8428      8431      8433
      8430      8428      8431      8437      8431      8428      8426      8434
      8431      8437      8434      8436      8433      8431      8437      8434
      8433      8431      8437      8439      8436      8434      8437      8439
      8441      8446      8448      8450      8441      8446      8448      8451
      8441      8446      8454      8456      8441      8446      8454      8457
      8443      8441      8446      8448      8443      8441      8446      8454
      8444      8441      8446      8448      8444      8441      8446      8454
      8445      8441      8446      8448      8445      8441      8446      8454
      8446      8448      8451      8453      8446      8448      8451      8457
      8446      8454      8457      8451      8446      8454      8457      8459
      8448      8446      8454      8456      8448      8446      8454      8457
      8448      8451      8457      8454      8448      8451      8457      8459
      8450      8448      8446      8454      8450      8448      8451      8453
      8450      8448      8451      8457      8451      8448      8446      8454
      8451      8457      8454      8456      8453      8451      8457      8454
      8453      8451      8457      8459      8456      8454      8457      8459
      8461      8466      8468      8470      8461      8466      8468      8471
      8461      8466      8474      8476      8461      8466      8474      8477
      8463      8461      8466      8468      8463      8461      8466      8474
      8464      8461      8466      8468      8464      8461      8466      8474
      8465      8461      8466      8468      8465      8461      8466      8474
      8466      8468      8471      8473      8466      8468      8471      8477
      8466      8474      8477      8471      8466      8474      8477      8479
      8468      8466      8474      8476      8468      8466      8474      8477
      8468      8471      8477      8474      8468      8471      8477      8479
      8470      8468      8466      8474      8470      8468      8471      8473
      8470      8468      8471      8477      8471      8468      8466      8474
      8471      8477      8474      8476      8473      8471      8477      8474
      8473      8471      8477      8479      8476      8474      8477      8479
      8481      8486      8488      8490      8481      8486      8488      8491
      8481      8486      8494      8496      8481      8486      8494      8497
      8483      8481      8486      8488      8483      8481      8486      8494
      8484      8481      8486      8488      8484      8481      8486      8494
      8485      8481      8486      8488      8485      8481      8486      8494
      8486      8488      8491      8493      8486      8488      8491      8497
      8486      8494      8497      8491      8486      8494      8497      8499
      8488      8486      8494      8496      8488      8486      8494      8497
      8488      8491      8497      8494      8488      8491      8497      8499
      8490      8488      8486      8494      8490      8488      8491      8493
      8490      8488      8491      8497      8491      8488      8486      8494
      8491      8497      8494      8496      8493      8491      8497      8494
      8493      8491      8497      8499      8496      8494      8497      8499
      8501      8506      8508      8510      8501      8506      8508      8511
      8501      8506      8514      8516      8501      8506      8514      8517
      8503      8501      8506      8508      8503      8501      8506      8514
      8504      8501      8506      8508      8504      8501      8506      8514
      8505      8501      8506      8508      8505      8501      8506      8514
      8506      8508      8511      8513      8506      8508      8511      8517
      8506      8514      8517      8511      8506      8514      8517      8519
      8508      8506      8514      8516      8508      8506      8514      8517
      8508      8511      8517      8514      8508      8511      8517      8519
      8510      8508      8506      8514      8510      8508      8511      8513
      8510      8508      8511      8517      8511      8508      8506      8514
      8511      8517      8514      8516      8513      8511      8517      8514
      8513      8511      8517      8519      8516      8514      8517      8519
      8521      8526      8528      8530      8521      8526      8528      8531
      8521      8526      8534      8536      8521      8526      8534      8537
      8523      8521      8526      8528      8523      8521      8526      8534
      8524      8521      8526      8528      8524      8521      8526      8534
      8525      8521      8526      8528      8525      8521      8526      8534
      8526      8528      8531      8533      8526      8528      8531      8537
      8526      8534      8537      8531      8526      8534      8537      8539
      8528      8526      8534      8536      8528      8526      8534      8537
      8528      8531      8537      8534      8528      8531      8537      8539
      8530      8528      8526      8534      8530      8528      8531      8533
      8530      8528      8531      8537      8531      8528      8526      8534
      8531      8537      8534      8536      8533      8531      8537      8534
      8533      8531      8537      8539      8536      8534      8537      8539
      8541      8546      8548      8550      8541      8546      8548      8551
      8541      8546      8554      8556      8541      8546      8554      8557
      8543      8541      8546      8548      8543      8541      8546      8554
      8544      8541      8546      8548      8544      8541      8546      8554
      8545      8541      8546      8548      8545      8541      8546      8554
      8546      8548      8551      8553      8546      8548      8551      8557
      8546      8554      8557      8551      8546      8554      8557      8559
      8548      8546      8554      8556      8548      8546      8554      8557
      8548      8551      8557      8554      8548      8551      8557      8559
      8550      8548      8546      8554      8550      8548      8551      8553
      8550      8548      8551      8557      8551      8548      8546      8554
      8551      8557      8554      8556      8553      8551      8557      8554
      8553      8551      8557      8559      8556      8554      8557      8559
      8561      8566      8568      8570      8561      8566      8568      8571
      8561      8566      8574      8576      8561      8566      8574      8577
      8563      8561      8566      8568      8563      8561      8566      8574
      8564      8561      8566      8568      8564      8561      8566      8574
      8565      8561      8566      8568      8565      8561      8566      8574
      8566      8568      8571      8573      8566      8568      8571      8577
      8566      8574      8577      8571      8566      8574      8577      8579
      8568      8566      8574      8576      8568      8566      8574      8577
      8568      8571      8577      8574      8568      8571      8577      8579
      8570      8568      8566      8574      8570      8568      8571      8573
      8570      8568      8571      8577      8571      8568      8566      8574
      8571      8577      8574      8576      8573      8571      8577      8574
      8573      8571      8577      8579      8576      8574      8577      8579
      8581      8586      8588      8590      8581      8586      8588      8591
      8581      8586      8594      8596      8581      8586      8594      8597
      8583      8581      8586      8588      8583      8581      8586      8594
      8584      8581      8586      8588      8584      8581      8586      8594
      8585      8581      8586      8588      8585      8581      8586      8594
      8586      8588      8591      8593      8586      8588      8591      8597
      8586      8594      8597      8591      8586      8594      8597      8599
      8588      8586      8594      8596      8588      8586      8594      8597
      8588      8591      8597      8594      8588      8591      8597      8599
      8590      8588      8586      8594      8590      8588      8591      8593
      8590      8588      8591      8597      8591      8588      8586      8594
      8591      8597      8594      8596      8593      8591      8597      8594
      8593      8591      8597      8599      8596      8594      8597      8599
      8601      8606      8608      8610      8601      8606      8608      8611
      8601      8606      8614      8616      8601      8606      8614      8617
      8603      8601      8606      8608      8603      8601      8606      8614
      8604      8601      8606      8608      8604      8601      8606      8614
      8605      8601      8606      8608      8605      8601      8606      8614
      8606      8608      8611      8613      8606      8608      8611      8617
      8606      8614      8617      8611      8606      8614      8617      8619
      8608      8606      8614      8616      8608      8606      8614      8617
      8608      8611      8617      8614      8608      8611      8617      8619
      8610      8608      8606      8614      8610      8608      8611      8613
      8610      8608      8611      8617      8611      8608      8606      8614
      8611      8617      8614      8616      8613      8611      8617      8614
      8613      8611      8617      8619      8616      8614      8617      8619
      8621      8626      8628      8630      8621      8626      8628      8631
      8621      8626      8634      8636      8621      8626      8634      8637
      8623      8621      8626      8628      8623      8621      8626      8634
      8624      8621      8626      8628      8624      8621      8626      8634
      8625      8621      8626      8628      8625      8621      8626      8634
      8626      8628      8631      8633      8626      8628      8631      8637
      8626      8634      8637      8631      8626      8634      8637      8639
      8628      8626      8634      8636      8628      8626      8634      8637
      8628      8631      8637      8634      8628      8631      8637      8639
      8630      8628      8626      8634      8630      8628      8631      8633
      8630      8628      8631      8637      8631      8628      8626      8634
      8631      8637      8634      8636      8633      8631      8637      8634
      8633      8631      8637      8639      8636      8634      8637      8639
      8641      8646      8648      8650      8641      8646      8648      8651
      8641      8646      8654      8656      8641      8646      8654      8657
      8643      8641      8646      8648      8643      8641      8646      8654
      8644      8641      8646      8648      8644      8641      8646      8654
      8645      8641      8646      8648      8645      8641      8646      8654
      8646      8648      8651      8653      8646      8648      8651      8657
      8646      8654      8657      8651      8646      8654      8657      8659
      8648      8646      8654      8656      8648      8646      8654      8657
      8648      8651      8657      8654      8648      8651      8657      8659
      8650      8648      8646      8654      8650      8648      8651      8653
      8650      8648      8651      8657      8651      8648      8646      8654
      8651      8657      8654      8656      8653      8651      8657      8654
      8653      8651      8657      8659      8656      8654      8657      8659
      8661      8666      8668      8670      8661      8666      8668      8671
      8661      8666      8674      8676      8661      8666      8674      8677
      8663      8661      8666      8668      8663      8661      8666      8674
      8664      8661      8666      8668      8664      8661      8666      8674
      8665      8661      8666      8668      8665      8661      8666      8674
      8666      8668      8671      8673      8666      8668      8671      8677
      8666      8674      8677      8671      8666      8674      8677      8679
      8668      8666      8674      8676      8668      8666      8674      8677
      8668      8671      8677      8674      8668      8671      8677      8679
      8670      8668      8666      8674      8670      8668      8671      8673
      8670      8668      8671      8677      8671      8668      8666      8674
      8671      8677      8674      8676      8673      8671      8677      8674
      8673      8671      8677      8679      8676      8674      8677      8679
      8681      8686      8688      8690      8681      8686      8688      8691
      8681      8686      8694      8696      8681      8686      8694      8697
      8683      8681      8686      8688      8683      8681      8686      8694
      8684      8681      8686      8688      8684      8681      8686      8694
      8685      8681      8686      8688      8685      8681      8686      8694
      8686      8688      8691      8693      8686      8688      8691      8697
      8686      8694      8697      8691      8686      8694      8697      8699
      8688      8686      8694      8696      8688      8686      8694      8697
      8688      8691      8697      8694      8688      8691      8697      8699
      8690      8688      8686      8694      8690      8688      8691      8693
      8690      8688      8691      8697      8691      8688      8686      8694
      8691      8697      8694      8696      8693      8691      8697      8694
      8693      8691      8697      8699      8696      8694      8697      8699
      8701      8706      8708      8710      8701      8706      8708      8711
      8701      8706      8714      8716      8701      8706      8714      8717
      8703      8701      8706      8708      8703      8701      8706      8714
      8704      8701      8706      8708      8704      8701      8706      8714
      8705      8701      8706      8708      8705      8701      8706      8714
      8706      8708      8711      8713      8706      8708      8711      8717
      8706      8714      8717      8711      8706      8714      8717      8719
      8708      8706      8714      8716      8708      8706      8714      8717
      8708      8711      8717      8714      8708      8711      8717      8719
      8710      8708      8706      8714      8710      8708      8711      8713
      8710      8708      8711      8717      8711      8708      8706      8714
      8711      8717      8714      8716      8713      8711      8717      8714
      8713      8711      8717      8719      8716      8714      8717      8719
      8721      8726      8728      8730      8721      8726      8728      8731
      8721      8726      8734      8736      8721      8726      8734      8737
      8723      8721      8726      8728      8723      8721      8726      8734
      8724      8721      8726      8728      8724      8721      8726      8734
      8725      8721      8726      8728      8725      8721      8726      8734
      8726      8728      8731      8733      8726      8728      8731      8737
      8726      8734      8737      8731      8726      8734      8737      8739
      8728      8726      8734      8736      8728      8726      8734      8737
      8728      8731      8737      8734      8728      8731      8737      8739
      8730      8728      8726      8734      8730      8728      8731      8733
      8730      8728      8731      8737      8731      8728      8726      8734
      8731      8737      8734      8736      8733      8731      8737      8734
      8733      8731      8737      8739      8736      8734      8737      8739
      8741      8746      8748      8750      8741      8746      8748      8751
      8741      8746      8754      8756      8741      8746      8754      8757
      8743      8741      8746      8748      8743      8741      8746      8754
      8744      8741      8746      8748      8744      8741      8746      8754
      8745      8741      8746      8748      8745      8741      8746      8754
      8746      8748      8751      8753      8746      8748      8751      8757
      8746      8754      8757      8751      8746      8754      8757      8759
      8748      8746      8754      8756      8748      8746      8754      8757
      8748      8751      8757      8754      8748      8751      8757      8759
      8750      8748      8746      8754      8750      8748      8751      8753
      8750      8748      8751      8757      8751      8748      8746      8754
      8751      8757      8754      8756      8753      8751      8757      8754
      8753      8751      8757      8759      8756      8754      8757      8759
      8761      8766      8768      8770      8761      8766      8768      8771
      8761      8766      8774      8776      8761      8766      8774      8777
      8763      8761      8766      8768      8763      8761      8766      8774
      8764      8761      8766      8768      8764      8761      8766      8774
      8765      8761      8766      8768      8765      8761      8766      8774
      8766      8768      8771      8773      8766      8768      8771      8777
      8766      8774      8777      8771      8766      8774      8777      8779
      8768      8766      8774      8776      8768      8766      8774      8777
      8768      8771      8777      8774      8768      8771      8777      8779
      8770      8768      8766      8774      8770      8768      8771      8773
      8770      8768      8771      8777      8771      8768      8766      8774
      8771      8777      8774      8776      8773      8771      8777      8774
      8773      8771      8777      8779      8776      8774      8777      8779
      8781      8786      8788      8790      8781      8786      8788      8791
      8781      8786      8794      8796      8781      8786      8794      8797
      8783      8781      8786      8788      8783      8781      8786      8794
      8784      8781      8786      8788      8784      8781      8786      8794
      8785      8781      8786      8788      8785      8781      8786      8794
      8786      8788      8791      8793      8786      8788      8791      8797
      8786      8794      8797      8791      8786      8794      8797      8799
      8788      8786      8794      8796      8788      8786      8794      8797
      8788      8791      8797      8794      8788      8791      8797      8799
      8790      8788      8786      8794      8790      8788      8791      8793
      8790      8788      8791      8797      8791      8788      8786      8794
      8791      8797      8794      8796      8793      8791      8797      8794
      8793      8791      8797      8799      8796      8794      8797      8799
      8801      8806      8808      8810      8801      8806      8808      8811
      8801      8806      8814      8816      8801      8806      8814      8817
      8803      8801      8806      8808      8803      8801      8806      8814
      8804      8801      8806      8808      8804      8801      8806      8814
      8805      8801      8806      8808      8805      8801      8806      8814
      8806      8808      8811      8813      8806      8808      8811      8817
      8806      8814      8817      8811      8806      8814      8817      8819
      8808      8806      8814      8816      8808      8806      8814      8817
      8808      8811      8817      8814      8808      8811      8817      8819
      8810      8808      8806      8814      8810      8808      8811      8813
      8810      8808      8811      8817      8811      8808      8806      8814
      8811      8817      8814      8816      8813      8811      8817      8814
      8813      8811      8817      8819      8816      8814      8817      8819
      8821      8826      8828      8830      8821      8826      8828      8831
      8821      8826      8834      8836      8821      8826      8834      8837
      8823      8821      8826      8828      8823      8821      8826      8834
      8824      8821      8826      8828      8824      8821      8826      8834
      8825      8821      8826      8828      8825      8821      8826      8834
      8826      8828      8831      8833      8826      8828      8831      8837
      8826      8834      8837      8831      8826      8834      8837      8839
      8828      8826      8834      8836      8828      8826      8834      8837
      8828      8831      8837      8834      8828      8831      8837      8839
      8830      8828      8826      8834      8830      8828      8831      8833
      8830      8828      8831      8837      8831      8828      8826      8834
      8831      8837      8834      8836      8833      8831      8837      8834
      8833      8831      8837      8839      8836      8834      8837      8839
      8841      8846      8848      8850      8841      8846      8848      8851
      8841      8846      8854      8856      8841      8846      8854      8857
      8843      8841      8846      8848      8843      8841      8846      8854
      8844      8841      8846      8848      8844      8841      8846      8854
      8845      8841      8846      8848      8845      8841      8846      8854
      8846      8848      8851      8853      8846      8848      8851      8857
      8846      8854      8857      8851      8846      8854      8857      8859
      8848      8846      8854      8856      8848      8846      8854      8857
      8848      8851      8857      8854      8848      8851      8857      8859
      8850      8848      8846      8854      8850      8848      8851      8853
      8850      8848      8851      8857      8851      8848      8846      8854
      8851      8857      8854      8856      8853      8851      8857      8854
      8853      8851      8857      8859      8856      8854      8857      8859
      8861      8866      8868      8870      8861      8866      8868      8871
      8861      8866      8874      8876      8861      8866      8874      8877
      8863      8861      8866      8868      8863      8861      8866      8874
      8864      8861      8866      8868      8864      8861      8866      8874
      8865      8861      8866      8868      8865      8861      8866      8874
      8866      8868      8871      8873      8866      8868      8871      8877
      8866      8874      8877      8871      8866      8874      8877      8879
      8868      8866      8874      8876      8868      8866      8874      8877
      8868      8871      8877      8874      8868      8871      8877      8879
      8870      8868      8866      8874      8870      8868      8871      8873
      8870      8868      8871      8877      8871      8868      8866      8874
      8871      8877      8874      8876      8873      8871      8877      8874
      8873      8871      8877      8879      8876      8874      8877      8879
      8881      8886      8888      8890      8881      8886      8888      8891
      8881      8886      8894      8896      8881      8886      8894      8897
      8883      8881      8886      8888      8883      8881      8886      8894
      8884      8881      8886      8888      8884      8881      8886      8894
      8885      8881      8886      8888      8885      8881      8886      8894
      8886      8888      8891      8893      8886      8888      8891      8897
      8886      8894      8897      8891      8886      8894      8897      8899
      8888      8886      8894      8896      8888      8886      8894      8897
      8888      8891      8897      8894      8888      8891      8897      8899
      8890      8888      8886      8894      8890      8888      8891      8893
      8890      8888      8891      8897      8891      8888      8886      8894
      8891      8897      8894      8896      8893      8891      8897      8894
      8893      8891      8897      8899      8896      8894      8897      8899
      8901      8906      8908      8910      8901      8906      8908      8911
      8901      8906      8914      8916      8901      8906      8914      8917
      8903      8901      8906      8908      8903      8901      8906      8914
      8904      8901      8906      8908      8904      8901      8906      8914
      8905      8901      8906      8908      8905      8901      8906      8914
      8906      8908      8911      8913      8906      8908      8911      8917
      8906      8914      8917      8911      8906      8914      8917      8919
      8908      8906      8914      8916      8908      8906      8914      8917
      8908      8911      8917      8914      8908      8911      8917      8919
      8910      8908      8906      8914      8910      8908      8911      8913
      8910      8908      8911      8917      8911      8908      8906      8914
      8911      8917      8914      8916      8913      8911      8917      8914
      8913      8911      8917      8919      8916      8914      8917      8919
      8921      8926      8928      8930      8921      8926      8928      8931
      8921      8926      8934      8936      8921      8926      8934      8937
      8923      8921      8926      8928      8923      8921      8926      8934
      8924      8921      8926      8928      8924      8921      8926      8934
      8925      8921      8926      8928      8925      8921      8926      8934
      8926      8928      8931      8933      8926      8928      8931      8937
      8926      8934      8937      8931      8926      8934      8937      8939
      8928      8926      8934      8936      8928      8926      8934      8937
      8928      8931      8937      8934      8928      8931      8937      8939
      8930      8928      8926      8934      8930      8928      8931      8933
      8930      8928      8931      8937      8931      8928      8926      8934
      8931      8937      8934      8936      8933      8931      8937      8934
      8933      8931      8937      8939      8936      8934      8937      8939
      8941      8946      8948      8950      8941      8946      8948      8951
      8941      8946      8954      8956      8941      8946      8954      8957
      8943      8941      8946      8948      8943      8941      8946      8954
      8944      8941      8946      8948      8944      8941      8946      8954
      8945      8941      8946      8948      8945      8941      8946      8954
      8946      8948      8951      8953      8946      8948      8951      8957
      8946      8954      8957      8951      8946      8954      8957      8959
      8948      8946      8954      8956      8948      8946      8954      8957
      8948      8951      8957      8954      8948      8951      8957      8959
      8950      8948      8946      8954      8950      8948      8951      8953
      8950      8948      8951      8957      8951      8948      8946      8954
      8951      8957      8954      8956      8953      8951      8957      8954
      8953      8951      8957      8959      8956      8954      8957      8959
      8961      8966      8968      8970      8961      8966      8968      8971
      8961      8966      8974      8976      8961      8966      8974      8977
      8963      8961      8966      8968      8963      8961      8966      8974
      8964      8961      8966      8968      8964      8961      8966      8974
      8965      8961      8966      8968      8965      8961      8966      8974
      8966      8968      8971      8973      8966      8968      8971      8977
      8966      8974      8977      8971      8966      8974      8977      8979
      8968      8966      8974      8976      8968      8966      8974      8977
      8968      8971      8977      8974      8968      8971      8977      8979
      8970      8968      8966      8974      8970      8968      8971      8973
      8970      8968      8971      8977      8971      8968      8966      8974
      8971      8977      8974      8976      8973      8971      8977      8974
      8973      8971      8977      8979      8976      8974      8977      8979
      8981      8986      8988      8990      8981      8986      8988      8991
      8981      8986      8994      8996      8981      8986      8994      8997
      8983      8981      8986      8988      8983      8981      8986      8994
      8984      8981      8986      8988      8984      8981      8986      8994
      8985      8981      8986      8988      8985      8981      8986      8994
      8986      8988      8991      8993      8986      8988      8991      8997
      8986      8994      8997      8991      8986      8994      8997      8999
      8988      8986      8994      8996      8988      8986      8994      8997
      8988      8991      8997      8994      8988      8991      8997      8999
      8990      8988      8986      8994      8990      8988      8991      8993
      8990      8988      8991      8997      8991      8988      8986      8994
      8991      8997      8994      8996      8993      8991      8997      8994
      8993      8991      8997      8999      8996      8994      8997      8999
      9001      9006      9008      9010      9001      9006      9008      9011
      9001      9006      9014      9016      9001      9006      9014      9017
      9003      9001      9006      9008      9003      9001      9006      9014
      9004      9001      9006      9008      9004      9001      9006      9014
      9005      9001      9006      9008      9005      9001      9006      9014
      9006      9008      9011      9013      9006      9008      9011      9017
      9006      9014      9017      9011      9006      9014      9017      9019
      9008      9006      9014      9016      9008      9006      9014      9017
      9008      9011      9017      9014      9008      9011      9017      9019
      9010      9008      9006      9014      9010      9008      9011      9013
      9010      9008      9011      9017      9011      9008      9006      9014
      9011      9017      9014      9016      9013      9011      9017      9014
      9013      9011      9017      9019      9016      9014      9017      9019
      9021      9026      9028      9030      9021      9026      9028      9031
      9021      9026      9034      9036      9021      9026      9034      9037
      9023      9021      9026      9028      9023      9021      9026      9034
      9024      9021      9026      9028      9024      9021      9026      9034
      9025      9021      9026      9028      9025      9021      9026      9034
      9026      9028      9031      9033      9026      9028      9031      9037
      9026      9034      9037      9031      9026      9034      9037      9039
      9028      9026      9034      9036      9028      9026      9034      9037
      9028      9031      9037      9034      9028      9031      9037      9039
      9030      9028      9026      9034      9030      9028      9031      9033
      9030      9028      9031      9037      9031      9028      9026      9034
      9031      9037      9034      9036      9033      9031      9037      9034
      9033      9031      9037      9039      9036      9034      9037      9039
      9041      9046      9048      9050      9041      9046      9048      9051
      9041      9046      9054      9056      9041      9046      9054      9057
      9043      9041      9046      9048      9043      9041      9046      9054
      9044      9041      9046      9048      9044      9041      9046      9054
      9045      9041      9046      9048      9045      9041      9046      9054
      9046      9048      9051      9053      9046      9048      9051      9057
      9046      9054      9057      9051      9046      9054      9057      9059
      9048      9046      9054      9056      9048      9046      9054      9057
      9048      9051      9057      9054      9048      9051      9057      9059
      9050      9048      9046      9054      9050      9048      9051      9053
      9050      9048      9051      9057      9051      9048      9046      9054
      9051      9057      9054      9056      9053      9051      9057      9054
      9053      9051      9057      9059      9056      9054      9057      9059
      9061      9066      9068      9070      9061      9066      9068      9071
      9061      9066      9074      9076      9061      9066      9074      9077
      9063      9061      9066      9068      9063      9061      9066      9074
      9064      9061      9066      9068      9064      9061      9066      9074
      9065      9061      9066      9068      9065      9061      9066      9074
      9066      9068      9071      9073      9066      9068      9071      9077
      9066      9074      9077      9071      9066      9074      9077      9079
      9068      9066      9074      9076      9068      9066      9074      9077
      9068      9071      9077      9074      9068      9071      9077      9079
      9070      9068      9066      9074      9070      9068      9071      9073
      9070      9068      9071      9077      9071      9068      9066      9074
      9071      9077      9074      9076      9073      9071      9077      9074
      9073      9071      9077      9079      9076      9074      9077      9079
      9081      9086      9088      9090      9081      9086      9088      9091
      9081      9086      9094      9096      9081      9086      9094      9097
      9083      9081      9086      9088      9083      9081      9086      9094
      9084      9081      9086      9088      9084      9081      9086      9094
      9085      9081      9086      9088      9085      9081      9086      9094
      9086      9088      9091      9093      9086      9088      9091      9097
      9086      9094      9097      9091      9086      9094      9097      9099
      9088      9086      9094      9096      9088      9086      9094      9097
      9088      9091      9097      9094      9088      9091      9097      9099
      9090      9088      9086      9094      9090      9088      9091      9093
      9090      9088      9091      9097      9091      9088      9086      9094
      9091      9097      9094      9096      9093      9091      9097      9094
      9093      9091      9097      9099      9096      9094      9097      9099
      9101      9106      9108      9110      9101      9106      9108      9111
      9101      9106      9114      9116      9101      9106      9114      9117
      9103      9101      9106      9108      9103      9101      9106      9114
      9104      9101      9106      9108      9104      9101      9106      9114
      9105      9101      9106      9108      9105      9101      9106      9114
      9106      9108      9111      9113      9106      9108      9111      9117
      9106      9114      9117      9111      9106      9114      9117      9119
      9108      9106      9114      9116      9108      9106      9114      9117
      9108      9111      9117      9114      9108      9111      9117      9119
      9110      9108      9106      9114      9110      9108      9111      9113
      9110      9108      9111      9117      9111      9108      9106      9114
      9111      9117      9114      9116      9113      9111      9117      9114
      9113      9111      9117      9119      9116      9114      9117      9119
      9121      9126      9128      9130      9121      9126      9128      9131
      9121      9126      9134      9136      9121      9126      9134      9137
      9123      9121      9126      9128      9123      9121      9126      9134
      9124      9121      9126      9128      9124      9121      9126      9134
      9125      9121      9126      9128      9125      9121      9126      9134
      9126      9128      9131      9133      9126      9128      9131      9137
      9126      9134      9137      9131      9126      9134      9137      9139
      9128      9126      9134      9136      9128      9126      9134      9137
      9128      9131      9137      9134      9128      9131      9137      9139
      9130      9128      9126      9134      9130      9128      9131      9133
      9130      9128      9131      9137      9131      9128      9126      9134
      9131      9137      9134      9136      9133      9131      9137      9134
      9133      9131      9137      9139      9136      9134      9137      9139
      9141      9146      9148      9150      9141      9146      9148      9151
      9141      9146      9154      9156      9141      9146      9154      9157
      9143      9141      9146      9148      9143      9141      9146      9154
      9144      9141      9146      9148      9144      9141      9146      9154
      9145      9141      9146      9148      9145      9141      9146      9154
      9146      9148      9151      9153      9146      9148      9151      9157
      9146      9154      9157      9151      9146      9154      9157      9159
      9148      9146      9154      9156      9148      9146      9154      9157
      9148      9151      9157      9154      9148      9151      9157      9159
      9150      9148      9146      9154      9150      9148      9151      9153
      9150      9148      9151      9157      9151      9148      9146      9154
      9151      9157      9154      9156      9153      9151      9157      9154
      9153      9151      9157      9159      9156      9154      9157      9159
      9161      9166      9168      9170      9161      9166      9168      9171
      9161      9166      9174      9176      9161      9166      9174      9177
      9163      9161      9166      9168      9163      9161      9166      9174
      9164      9161      9166      9168      9164      9161      9166      9174
      9165      9161      9166      9168      9165      9161      9166      9174
      9166      9168      9171      9173      9166      9168      9171      9177
      9166      9174      9177      9171      9166      9174      9177      9179
      9168      9166      9174      9176      9168      9166      9174      9177
      9168      9171      9177      9174      9168      9171      9177      9179
      9170      9168      9166      9174      9170      9168      9171      9173
      9170      9168      9171      9177      9171      9168      9166      9174
      9171      9177      9174      9176      9173      9171      9177      9174
      9173      9171      9177      9179      9176      9174      9177      9179
      9181      9186      9188      9190      9181      9186      9188      9191
      9181      9186      9194      9196      9181      9186      9194      9197
      9183      9181      9186      9188      9183      9181      9186      9194
      9184      9181      9186      9188      9184      9181      9186      9194
      9185      9181      9186      9188      9185      9181      9186      9194
      9186      9188      9191      9193      9186      9188      9191      9197
      9186      9194      9197      9191      9186      9194      9197      9199
      9188      9186      9194      9196      9188      9186      9194      9197
      9188      9191      9197      9194      9188      9191      9197      9199
      9190      9188      9186      9194      9190      9188      9191      9193
      9190      9188      9191      9197      9191      9188      9186      9194
      9191      9197      9194      9196      9193      9191      9197      9194
      9193      9191      9197      9199      9196      9194      9197      9199
      9201      9206      9208      9210      9201      9206      9208      9211
      9201      9206      9214      9216      9201      9206      9214      9217
      9203      9201      9206      9208      9203      9201      9206      9214
      9204      9201      9206      9208      9204      9201      9206      9214
      9205      9201      9206      9208      9205      9201      9206      9214
      9206      9208      9211      9213      9206      9208      9211      9217
      9206      9214      9217      9211      9206      9214      9217      9219
      9208      9206      9214      9216      9208      9206      9214      9217
      9208      9211      9217      9214      9208      9211      9217      9219
      9210      9208      9206      9214      9210      9208      9211      9213
      9210      9208      9211      9217      9211      9208      9206      9214
      9211      9217      9214      9216      9213      9211      9217      9214
      9213      9211      9217      9219      9216      9214      9217      9219
      9221      9226      9228      9230      9221      9226      9228      9231
      9221      9226      9234      9236      9221      9226      9234      9237
      9223      9221      9226      9228      9223      9221      9226      9234
      9224      9221      9226      9228      9224      9221      9226      9234
      9225      9221      9226      9228      9225      9221      9226      9234
      9226      9228      9231      9233      9226      9228      9231      9237
      9226      9234      9237      9231      9226      9234      9237      9239
      9228      9226      9234      9236      9228      9226      9234      9237
      9228      9231      9237      9234      9228      9231      9237      9239
      9230      9228      9226      9234      9230      9228      9231      9233
      9230      9228      9231      9237      9231      9228      9226      9234
      9231      9237      9234      9236      9233      9231      9237      9234
      9233      9231      9237      9239      9236      9234      9237      9239
      9241      9246      9248      9250      9241      9246      9248      9251
      9241      9246      9254      9256      9241      9246      9254      9257
      9243      9241      9246      9248      9243      9241      9246      9254
      9244      9241      9246      9248      9244      9241      9246      9254
      9245      9241      9246      9248      9245      9241      9246      9254
      9246      9248      9251      9253      9246      9248      9251      9257
      9246      9254      9257      9251      9246      9254      9257      9259
      9248      9246      9254      9256      9248      9246      9254      9257
      9248      9251      9257      9254      9248      9251      9257      9259
      9250      9248      9246      9254      9250      9248      9251      9253
      9250      9248      9251      9257      9251      9248      9246      9254
      9251      9257      9254      9256      9253      9251      9257      9254
      9253      9251      9257      9259      9256      9254      9257      9259
      9261      9266      9268      9270      9261      9266      9268      9271
      9261      9266      9274      9276      9261      9266      9274      9277
      9263      9261      9266      9268      9263      9261      9266      9274
      9264      9261      9266      9268      9264      9261      9266      9274
      9265      9261      9266      9268      9265      9261      9266      9274
      9266      9268      9271      9273      9266      9268      9271      9277
      9266      9274      9277      9271      9266      9274      9277      9279
      9268      9266      9274      9276      9268      9266      9274      9277
      9268      9271      9277      9274      9268      9271      9277      9279
      9270      9268      9266      9274      9270      9268      9271      9273
      9270      9268      9271      9277      9271      9268      9266      9274
      9271      9277      9274      9276      9273      9271      9277      9274
      9273      9271      9277      9279      9276      9274      9277      9279
      9281      9286      9288      9290      9281      9286      9288      9291
      9281      9286      9294      9296      9281      9286      9294      9297
      9283      9281      9286      9288      9283      9281      9286      9294
      9284      9281      9286      9288      9284      9281      9286      9294
      9285      9281      9286      9288      9285      9281      9286      9294
      9286      9288      9291      9293      9286      9288      9291      9297
      9286      9294      9297      9291      9286      9294      9297      9299
      9288      9286      9294      9296      9288      9286      9294      9297
      9288      9291      9297      9294      9288      9291      9297      9299
      9290      9288      9286      9294      9290      9288      9291      9293
      9290      9288      9291      9297      9291      9288      9286      9294
      9291      9297      9294      9296      9293      9291      9297      9294
      9293      9291      9297      9299      9296      9294      9297      9299
      9301      9306      9308      9310      9301      9306      9308      9311
      9301      9306      9314      9316      9301      9306      9314      9317
      9303      9301      9306      9308      9303      9301      9306      9314
      9304      9301      9306      9308      9304      9301      9306      9314
      9305      9301      9306      9308      9305      9301      9306      9314
      9306      9308      9311      9313      9306      9308      9311      9317
      9306      9314      9317      9311      9306      9314      9317      9319
      9308      9306      9314      9316      9308      9306      9314      9317
      9308      9311      9317      9314      9308      9311      9317      9319
      9310      9308      9306      9314      9310      9308      9311      9313
      9310      9308      9311      9317      9311      9308      9306      9314
      9311      9317      9314      9316      9313      9311      9317      9314
      9313      9311      9317      9319      9316      9314      9317      9319
      9321      9326      9328      9330      9321      9326      9328      9331
      9321      9326      9334      9336      9321      9326      9334      9337
      9323      9321      9326      9328      9323      9321      9326      9334
      9324      9321      9326      9328      9324      9321      9326      9334
      9325      9321      9326      9328      9325      9321      9326      9334
      9326      9328      9331      9333      9326      9328      9331      9337
      9326      9334      9337      9331      9326      9334      9337      9339
      9328      9326      9334      9336      9328      9326      9334      9337
      9328      9331      9337      9334      9328      9331      9337      9339
      9330      9328      9326      9334      9330      9328      9331      9333
      9330      9328      9331      9337      9331      9328      9326      9334
      9331      9337      9334      9336      9333      9331      9337      9334
      9333      9331      9337      9339      9336      9334      9337      9339
      9341      9346      9348      9350      9341      9346      9348      9351
      9341      9346      9354      9356      9341      9346      9354      9357
      9343      9341      9346      9348      9343      9341      9346      9354
      9344      9341      9346      9348      9344      9341      9346      9354
      9345      9341      9346      9348      9345      9341      9346      9354
      9346      9348      9351      9353      9346      9348      9351      9357
      9346      9354      9357      9351      9346      9354      9357      9359
      9348      9346      9354      9356      9348      9346      9354      9357
      9348      9351      9357      9354      9348      9351      9357      9359
      9350      9348      9346      9354      9350      9348      9351      9353
      9350      9348      9351      9357      9351      9348      9346      9354
      9351      9357      9354      9356      9353      9351      9357      9354
      9353      9351      9357      9359      9356      9354      9357      9359
      9361      9366      9368      9370      9361      9366      9368      9371
      9361      9366      9374      9376      9361      9366      9374      9377
      9363      9361      9366      9368      9363      9361      9366      9374
      9364      9361      9366      9368      9364      9361      9366      9374
      9365      9361      9366      9368      9365      9361      9366      9374
      9366      9368      9371      9373      9366      9368      9371      9377
      9366      9374      9377      9371      9366      9374      9377      9379
      9368      9366      9374      9376      9368      9366      9374      9377
      9368      9371      9377      9374      9368      9371      9377      9379
      9370      9368      9366      9374      9370      9368      9371      9373
      9370      9368      9371      9377      9371      9368      9366      9374
      9371      9377      9374      9376      9373      9371      9377      9374
      9373      9371      9377      9379      9376      9374      9377      9379
      9381      9386      9388      9390      9381      9386      9388      9391
      9381      9386      9394      9396      9381      9386      9394      9397
      9383      9381      9386      9388      9383      9381      9386      9394
      9384      9381      9386      9388      9384      9381      9386      9394
      9385      9381      9386      9388      9385      9381      9386      9394
      9386      9388      9391      9393      9386      9388      9391      9397
      9386      9394      9397      9391      9386      9394      9397      9399
      9388      9386      9394      9396      9388      9386      9394      9397
      9388      9391      9397      9394      9388      9391      9397      9399
      9390      9388      9386      9394      9390      9388      9391      9393
      9390      9388      9391      9397      9391      9388      9386      9394
      9391      9397      9394      9396      9393      9391      9397      9394
      9393      9391      9397      9399      9396      9394      9397      9399
      9401      9406      9408      9410      9401      9406      9408      9411
      9401      9406      9414      9416      9401      9406      9414      9417
      9403      9401      9406      9408      9403      9401      9406      9414
      9404      9401      9406      9408      9404      9401      9406      9414
      9405      9401      9406      9408      9405      9401      9406      9414
      9406      9408      9411      9413      9406      9408      9411      9417
      9406      9414      9417      9411      9406      9414      9417      9419
      9408      9406      9414      9416      9408      9406      9414      9417
      9408      9411      9417      9414      9408      9411      9417      9419
      9410      9408      9406      9414      9410      9408      9411      9413
      9410      9408      9411      9417      9411      9408      9406      9414
      9411      9417      9414      9416      9413      9411      9417      9414
      9413      9411      9417      9419      9416      9414      9417      9419
      9421      9426      9428      9430      9421      9426      9428      9431
      9421      9426      9434      9436      9421      9426      9434      9437
      9423      9421      9426      9428      9423      9421      9426      9434
      9424      9421      9426      9428      9424      9421      9426      9434
      9425      9421      9426      9428      9425      9421      9426      9434
      9426      9428      9431      9433      9426      9428      9431      9437
      9426      9434      9437      9431      9426      9434      9437      9439
      9428      9426      9434      9436      9428      9426      9434      9437
      9428      9431      9437      9434      9428      9431      9437      9439
      9430      9428      9426      9434      9430      9428      9431      9433
      9430      9428      9431      9437      9431      9428      9426      9434
      9431      9437      9434      9436      9433      9431      9437      9434
      9433      9431      9437      9439      9436      9434      9437      9439
      9441      9446      9448      9450      9441      9446      9448      9451
      9441      9446      9454      9456      9441      9446      9454      9457
      9443      9441      9446      9448      9443      9441      9446      9454
      9444      9441      9446      9448      9444      9441      9446      9454
      9445      9441      9446      9448      9445      9441      9446      9454
      9446      9448      9451      9453      9446      9448      9451      9457
      9446      9454      9457      9451      9446      9454      9457      9459
      9448      9446      9454      9456      9448      9446      9454      9457
      9448      9451      9457      9454      9448      9451      9457      9459
      9450      9448      9446      9454      9450      9448      9451      9453
      9450      9448      9451      9457      9451      9448      9446      9454
      9451      9457      9454      9456      9453      9451      9457      9454
      9453      9451      9457      9459      9456      9454      9457      9459
      9461      9466      9468      9470      9461      9466      9468      9471
      9461      9466      9474      9476      9461      9466      9474      9477
      9463      9461      9466      9468      9463      9461      9466      9474
      9464      9461      9466      9468      9464      9461      9466      9474
      9465      9461      9466      9468      9465      9461      9466      9474
      9466      9468      9471      9473      9466      9468      9471      9477
      9466      9474      9477      9471      9466      9474      9477      9479
      9468      9466      9474      9476      9468      9466      9474      9477
      9468      9471      9477      9474      9468      9471      9477      9479
      9470      9468      9466      9474      9470      9468      9471      9473
      9470      9468      9471      9477      9471      9468      9466      9474
      9471      9477      9474      9476      9473      9471      9477      9474
      9473      9471      9477      9479      9476      9474      9477      9479
      9481      9486      9488      9490      9481      9486      9488      9491
      9481      9486      9494      9496      9481      9486      9494      9497
      9483      9481      9486      9488      9483      9481      9486      9494
      9484      9481      9486      9488      9484      9481      9486      9494
      9485      9481      9486      9488      9485      9481      9486      9494
      9486      9488      9491      9493      9486      9488      9491      9497
      9486      9494      9497      9491      9486      9494      9497      9499
      9488      9486      9494      9496      9488      9486      9494      9497
      9488      9491      9497      9494      9488      9491      9497      9499
      9490      9488      9486      9494      9490      9488      9491      9493
      9490      9488      9491      9497      9491      9488      9486      9494
      9491      9497      9494      9496      9493      9491      9497      9494
      9493      9491      9497      9499      9496      9494      9497      9499
      9501      9506      9508      9510      9501      9506      9508      9511
      9501      9506      9514      9516      9501      9506      9514      9517
      9503      9501      9506      9508      9503      9501      9506      9514
      9504      9501      9506      9508      9504      9501      9506      9514
      9505      9501      9506      9508      9505      9501      9506      9514
      9506      9508      9511      9513      9506      9508      9511      9517
      9506      9514      9517      9511      9506      9514      9517      9519
      9508      9506      9514      9516      9508      9506      9514      9517
      9508      9511      9517      9514      9508      9511      9517      9519
      9510      9508      9506      9514      9510      9508      9511      9513
      9510      9508      9511      9517      9511      9508      9506      9514
      9511      9517      9514      9516      9513      9511      9517      9514
      9513      9511      9517      9519      9516      9514      9517      9519
      9521      9526      9528      9530      9521      9526      9528      9531
      9521      9526      9534      9536      9521      9526      9534      9537
      9523      9521      9526      9528      9523      9521      9526      9534
      9524      9521      9526      9528      9524      9521      9526      9534
      9525      9521      9526      9528      9525      9521      9526      9534
      9526      9528      9531      9533      9526      9528      9531      9537
      9526      9534      9537      9531      9526      9534      9537      9539
      9528      9526      9534      9536      9528      9526      9534      9537
      9528      9531      9537      9534      9528      9531      9537      9539
      9530      9528      9526      9534      9530      9528      9531      9533
      9530      9528      9531      9537      9531      9528      9526      9534
      9531      9537      9534      9536      9533      9531      9537      9534
      9533      9531      9537      9539      9536      9534      9537      9539
      9541      9546      9548      9550      9541      9546      9548      9551
      9541      9546      9554      9556      9541      9546      9554      9557
      9543      9541      9546      9548      9543      9541      9546      9554
      9544      9541      9546      9548      9544      9541      9546      9554
      9545      9541      9546      9548      9545      9541      9546      9554
      9546      9548      9551      9553      9546      9548      9551      9557
      9546      9554      9557      9551      9546      9554      9557      9559
      9548      9546      9554      9556      9548      9546      9554      9557
      9548      9551      9557      9554      9548      9551      9557      9559
      9550      9548      9546      9554      9550      9548      9551      9553
      9550      9548      9551      9557      9551      9548      9546      9554
      9551      9557      9554      9556      9553      9551      9557      9554
      9553      9551      9557      9559      9556      9554      9557      9559
      9561      9566      9568      9570      9561      9566      9568      9571
      9561      9566      9574      9576      9561      9566      9574      9577
      9563      9561      9566      9568      9563      9561      9566      9574
      9564      9561      9566      9568      9564      9561      9566      9574
      9565      9561      9566      9568      9565      9561      9566      9574
      9566      9568      9571      9573      9566      9568      9571      9577
      9566      9574      9577      9571      9566      9574      9577      9579
      9568      9566      9574      9576      9568      9566      9574      9577
      9568      9571      9577      9574      9568      9571      9577      9579
      9570      9568      9566      9574      9570      9568      9571      9573
      9570      9568      9571      9577      9571      9568      9566      9574
      9571      9577      9574      9576      9573      9571      9577      9574
      9573      9571      9577      9579      9576      9574      9577      9579
      9581      9586      9588      9590      9581      9586      9588      9591
      9581      9586      9594      9596      9581      9586      9594      9597
      9583      9581      9586      9588      9583      9581      9586      9594
      9584      9581      9586      9588      9584      9581      9586      9594
      9585      9581      9586      9588      9585      9581      9586      9594
      9586      9588      9591      9593      9586      9588      9591      9597
      9586      9594      9597      9591      9586      9594      9597      9599
      9588      9586      9594      9596      9588      9586      9594      9597
      9588      9591      9597      9594      9588      9591      9597      9599
      9590      9588      9586      9594      9590      9588      9591      9593
      9590      9588      9591      9597      9591      9588      9586      9594
      9591      9597      9594      9596      9593      9591      9597      9594
      9593      9591      9597      9599      9596      9594      9597      9599
      9601      9606      9608      9610      9601      9606      9608      9611
      9601      9606      9614      9616      9601      9606      9614      9617
      9603      9601      9606      9608      9603      9601      9606      9614
      9604      9601      9606      9608      9604      9601      9606      9614
      9605      9601      9606      9608      9605      9601      9606      9614
      9606      9608      9611      9613      9606      9608      9611      9617
      9606      9614      9617      9611      9606      9614      9617      9619
      9608      9606      9614      9616      9608      9606      9614      9617
      9608      9611      9617      9614      9608      9611      9617      9619
      9610      9608      9606      9614      9610      9608      9611      9613
      9610      9608      9611      9617      9611      9608      9606      9614
      9611      9617      9614      9616      9613      9611      9617      9614
      9613      9611      9617      9619      9616      9614      9617      9619
      9621      9626      9628      9630      9621      9626      9628      9631
      9621      9626      9634      9636      9621      9626      9634      9637
      9623      9621      9626      9628      9623      9621      9626      9634
      9624      9621      9626      9628      9624      9621      9626      9634
      9625      9621      9626      9628      9625      9621      9626      9634
      9626      9628      9631      9633      9626      9628      9631      9637
      9626      9634      9637      9631      9626      9634      9637      9639
      9628      9626      9634      9636      9628      9626      9634      9637
      9628      9631      9637      9634      9628      9631      9637      9639
      9630      9628      9626      9634      9630      9628      9631      9633
      9630      9628      9631      9637      9631      9628      9626      9634
      9631      9637      9634      9636      9633      9631      9637      9634
      9633      9631      9637      9639      9636      9634      9637      9639
      9641      9646      9648      9650      9641      9646      9648      9651
      9641      9646      9654      9656      9641      9646      9654      9657
      9643      9641      9646      9648      9643      9641      9646      9654
      9644      9641      9646      9648      9644      9641      9646      9654
      9645      9641      9646      9648      9645      9641      9646      9654
      9646      9648      9651      9653      9646      9648      9651      9657
      9646      9654      9657      9651      9646      9654      9657      9659
      9648      9646      9654      9656      9648      9646      9654      9657
      9648      9651      9657      9654      9648      9651      9657      9659
      9650      9648      9646      9654      9650      9648      9651      9653
      9650      9648      9651      9657      9651      9648      9646      9654
      9651      9657      9654      9656      9653      9651      9657      9654
      9653      9651      9657      9659      9656      9654      9657      9659
      9661      9666      9668      9670      9661      9666      9668      9671
      9661      9666      9674      9676      9661      9666      9674      9677
      9663      9661      9666      9668      9663      9661      9666      9674
      9664      9661      9666      9668      9664      9661      9666      9674
      9665      9661      9666      9668      9665      9661      9666      9674
      9666      9668      9671      9673      9666      9668      9671      9677
      9666      9674      9677      9671      9666      9674      9677      9679
      9668      9666      9674      9676      9668      9666      9674      9677
      9668      9671      9677      9674      9668      9671      9677      9679
      9670      9668      9666      9674      9670      9668      9671      9673
      9670      9668      9671      9677      9671      9668      9666      9674
      9671      9677      9674      9676      9673      9671      9677      9674
      9673      9671      9677      9679      9676      9674      9677      9679
      9681      9686      9688      9690      9681      9686      9688      9691
      9681      9686      9694      9696      9681      9686      9694      9697
      9683      9681      9686      9688      9683      9681      9686      9694
      9684      9681      9686      9688      9684      9681      9686      9694
      9685      9681      9686      9688      9685      9681      9686      9694
      9686      9688      9691      9693      9686      9688      9691      9697
      9686      9694      9697      9691      9686      9694      9697      9699
      9688      9686      9694      9696      9688      9686      9694      9697
      9688      9691      9697      9694      9688      9691      9697      9699
      9690      9688      9686      9694      9690      9688      9691      9693
      9690      9688      9691      9697      9691      9688      9686      9694
      9691      9697      9694      9696      9693      9691      9697      9694
      9693      9691      9697      9699      9696      9694      9697      9699
      9701      9706      9708      9710      9701      9706      9708      9711
      9701      9706      9714      9716      9701      9706      9714      9717
      9703      9701      9706      9708      9703      9701      9706      9714
      9704      9701      9706      9708      9704      9701      9706      9714
      9705      9701      9706      9708      9705      9701      9706      9714
      9706      9708      9711      9713      9706      9708      9711      9717
      9706      9714      9717      9711      9706      9714      9717      9719
      9708      9706      9714      9716      9708      9706      9714      9717
      9708      9711      9717      9714      9708      9711      9717      9719
      9710      9708      9706      9714      9710      9708      9711      9713
      9710      9708      9711      9717      9711      9708      9706      9714
      9711      9717      9714      9716      9713      9711      9717      9714
      9713      9711      9717      9719      9716      9714      9717      9719
      9721      9726      9728      9730      9721      9726      9728      9731
      9721      9726      9734      9736      9721      9726      9734      9737
      9723      9721      9726      9728      9723      9721      9726      9734
      9724      9721      9726      9728      9724      9721      9726      9734
      9725      9721      9726      9728      9725      9721      9726      9734
      9726      9728      9731      9733      9726      9728      9731      9737
      9726      9734      9737      9731      9726      9734      9737      9739
      9728      9726      9734      9736      9728      9726      9734      9737
      9728      9731      9737      9734      9728      9731      9737      9739
      9730      9728      9726      9734      9730      9728      9731      9733
      9730      9728      9731      9737      9731      9728      9726      9734
      9731      9737      9734      9736      9733      9731      9737      9734
      9733      9731      9737      9739      9736      9734      9737      9739
      9741      9746      9748      9750      9741      9746      9748      9751
      9741      9746      9754      9756      9741      9746      9754      9757
      9743      9741      9746      9748      9743      9741      9746      9754
      9744      9741      9746      9748      9744      9741      9746      9754
      9745      9741      9746      9748      9745      9741      9746      9754
      9746      9748      9751      9753      9746      9748      9751      9757
      9746      9754      9757      9751      9746      9754      9757      9759
      9748      9746      9754      9756      9748      9746      9754      9757
      9748      9751      9757      9754      9748      9751      9757      9759
      9750      9748      9746      9754      9750      9748      9751      9753
      9750      9748      9751      9757      9751      9748      9746      9754
      9751      9757      9754      9756      9753      9751      9757      9754
      9753      9751      9757      9759      9756      9754      9757      9759
      9761      9766      9768      9770      9761      9766      9768      9771
      9761      9766      9774      9776      9761      9766      9774      9777
      9763      9761      9766      9768      9763      9761      9766      9774
      9764      9761      9766      9768      9764      9761      9766      9774
      9765      9761      9766      9768      9765      9761      9766      9774
      9766      9768      9771      9773      9766      9768      9771      9777
      9766      9774      9777      9771      9766      9774      9777      9779
      9768      9766      9774      9776      9768      9766      9774      9777
      9768      9771      9777      9774      9768      9771      9777      9779
      9770      9768      9766      9774      9770      9768      9771      9773
      9770      9768      9771      9777      9771      9768      9766      9774
      9771      9777      9774      9776      9773      9771      9777      9774
      9773      9771      9777      9779      9776      9774      9777      9779
      9781      9786      9788      9790      9781      9786      9788      9791
      9781      9786      9794      9796      9781      9786      9794      9797
      9783      9781      9786      9788      9783      9781      9786      9794
      9784      9781      9786      9788      9784      9781      9786      9794
      9785      9781      9786      9788      9785      9781      9786      9794
      9786      9788      9791      9793      9786      9788      9791      9797
      9786      9794      9797      9791      9786      9794      9797      9799
      9788      9786      9794      9796      9788      9786      9794      9797
      9788      9791      9797      9794      9788      9791      9797      9799
      9790      9788      9786      9794      9790      9788      9791      9793
      9790      9788      9791      9797      9791      9788      9786      9794
      9791      9797      9794      9796      9793      9791      9797      9794
      9793      9791      9797      9799      9796      9794      9797      9799
      9801      9806      9808      9810      9801      9806      9808      9811
      9801      9806      9814      9816      9801      9806      9814      9817
      9803      9801      9806      9808      9803      9801      9806      9814
      9804      9801      9806      9808      9804      9801      9806      9814
      9805      9801      9806      9808      9805      9801      9806      9814
      9806      9808      9811      9813      9806      9808      9811      9817
      9806      9814      9817      9811      9806      9814      9817      9819
      9808      9806      9814      9816      9808      9806      9814      9817
      9808      9811      9817      9814      9808      9811      9817      9819
      9810      9808      9806      9814      9810      9808      9811      9813
      9810      9808      9811      9817      9811      9808      9806      9814
      9811      9817      9814      9816      9813      9811      9817      9814
      9813      9811      9817      9819      9816      9814      9817      9819
      9821      9826      9828      9830      9821      9826      9828      9831
      9821      9826      9834      9836      9821      9826      9834      9837
      9823      9821      9826      9828      9823      9821      9826      9834
      9824      9821      9826      9828      9824      9821      9826      9834
      9825      9821      9826      9828      9825      9821      9826      9834
      9826      9828      9831      9833      9826      9828      9831      9837
      9826      9834      9837      9831      9826      9834      9837      9839
      9828      9826      9834      9836      9828      9826      9834      9837
      9828      9831      9837      9834      9828      9831      9837      9839
      9830      9828      9826      9834      9830      9828      9831      9833
      9830      9828      9831      9837      9831      9828      9826      9834
      9831      9837      9834      9836      9833      9831      9837      9834
      9833      9831      9837      9839      9836      9834      9837      9839
      9841      9846      9848      9850      9841      9846      9848      9851
      9841      9846      9854      9856      9841      9846      9854      9857
      9843      9841      9846      9848      9843      9841      9846      9854
      9844      9841      9846      9848      9844      9841      9846      9854
      9845      9841      9846      9848      9845      9841      9846      9854
      9846      9848      9851      9853      9846      9848      9851      9857
      9846      9854      9857      9851      9846      9854      9857      9859
      9848      9846      9854      9856      9848      9846      9854      9857
      9848      9851      9857      9854      9848      9851      9857      9859
      9850      9848      9846      9854      9850      9848      9851      9853
      9850      9848      9851      9857      9851      9848      9846      9854
      9851      9857      9854      9856      9853      9851      9857      9854
      9853      9851      9857      9859      9856      9854      9857      9859
      9861      9866      9868      9870      9861      9866      9868      9871
      9861      9866      9874      9876      9861      9866      9874      9877
      9863      9861      9866      9868      9863      9861      9866      9874
      9864      9861      9866      9868      9864      9861      9866      9874
      9865      9861      9866      9868      9865      9861      9866      9874
      9866      9868      9871      9873      9866      9868      9871      9877
      9866      9874      9877      9871      9866      9874      9877      9879
      9868      9866      9874      9876      9868      9866      9874      9877
      9868      9871      9877      9874      9868      9871      9877      9879
      9870      9868      9866      9874      9870      9868      9871      9873
      9870      9868      9871      9877      9871      9868      9866      9874
      9871      9877      9874      9876      9873      9871      9877      9874
      9873      9871      9877      9879      9876      9874      9877      9879
      9881      9886      9888      9890      9881      9886      9888      9891
      9881      9886      9894      9896      9881      9886      9894      9897
      9883      9881      9886      9888      9883      9881      9886      9894
      9884      9881      9886      9888      9884      9881      9886      9894
      9885      9881      9886      9888      9885      9881      9886      9894
      9886      9888      9891      9893      9886      9888      9891      9897
      9886      9894      9897      9891      9886      9894      9897      9899
      9888      9886      9894      9896      9888      9886      9894      9897
      9888      9891      9897      9894      9888      9891      9897      9899
      9890      9888      9886      9894      9890      9888      9891      9893
      9890      9888      9891      9897      9891      9888      9886      9894
      9891      9897      9894      9896      9893      9891      9897      9894
      9893      9891      9897      9899      9896      9894      9897      9899
      9901      9906      9908      9910      9901      9906      9908      9911
      9901      9906      9914      9916      9901      9906      9914      9917
      9903      9901      9906      9908      9903      9901      9906      9914
      9904      9901      9906      9908      9904      9901      9906      9914
      9905      9901      9906      9908      9905      9901      9906      9914
      9906      9908      9911      9913      9906      9908      9911      9917
      9906      9914      9917      9911      9906      9914      9917      9919
      9908      9906      9914      9916      9908      9906      9914      9917
      9908      9911      9917      9914      9908      9911      9917      9919
      9910      9908      9906      9914      9910      9908      9911      9913
      9910      9908      9911      9917      9911      9908      9906      9914
      9911      9917      9914      9916      9913      9911      9917      9914
      9913      9911      9917      9919      9916      9914      9917      9919
      9921      9926      9928      9930      9921      9926      9928      9931
      9921      9926      9934      9936      9921      9926      9934      9937
      9923      9921      9926      9928      9923      9921      9926      9934
      9924      9921      9926      9928      9924      9921      9926      9934
      9925      9921      9926      9928      9925      9921      9926      9934
      9926      9928      9931      9933      9926      9928      9931      9937
      9926      9934      9937      9931      9926      9934      9937      9939
      9928      9926      9934      9936      9928      9926      9934      9937
      9928      9931      9937      9934      9928      9931      9937      9939
      9930      9928      9926      9934      9930      9928      9931      9933
      9930      9928      9931      9937      9931      9928      9926      9934
      9931      9937      9934      9936      9933      9931      9937      9934
      9933      9931      9937      9939      9936      9934      9937      9939
      9941      9946      9948      9950      9941      9946      9948      9951
      9941      9946      9954      9956      9941      9946      9954      9957
      9943      9941      9946      9948      9943      9941      9946      9954
      9944      9941      9946      9948      9944      9941      9946      9954
      9945      9941      9946      9948      9945      9941      9946      9954
      9946      9948      9951      9953      9946      9948      9951      9957
      9946      9954      9957      9951      9946      9954      9957      9959
      9948      9946      9954      9956      9948      9946      9954      9957
      9948      9951      9957      9954      9948      9951      9957      9959
      9950      9948      9946      9954      9950      9948      9951      9953
      9950      9948      9951      9957      9951      9948      9946      9954
      9951      9957      9954      9956      9953      9951      9957      9954
      9953      9951      9957      9959      9956      9954      9957      9959
      9961      9966      9968      9970      9961      9966      9968      9971
      9961      9966      9974      9976      9961      9966      9974      9977
      9963      9961      9966      9968      9963      9961      9966      9974
      9964      9961      9966      9968      9964      9961      9966      9974
      9965      9961      9966      9968      9965      9961      9966      9974
      9966      9968      9971      9973      9966      9968      9971      9977
      9966      9974      9977      9971      9966      9974      9977      9979
      9968      9966      9974      9976      9968      9966      9974      9977
      9968      9971      9977      9974      9968      9971      9977      9979
      9970      9968      9966      9974      9970      9968      9971      9973
      9970      9968      9971      9977      9971      9968      9966      9974
      9971      9977      9974      9976      9973      9971      9977      9974
      9973      9971      9977      9979      9976      9974      9977      9979
      9981      9986      9988      9990      9981      9986      9988      9991
      9981      9986      9994      9996      9981      9986      9994      9997
      9983      9981      9986      9988      9983      9981      9986      9994
      9984      9981      9986      9988      9984      9981      9986      9994
      9985      9981      9986      9988      9985      9981      9986      9994
      9986      9988      9991      9993      9986      9988      9991      9997
      9986      9994      9997      9991      9986      9994      9997      9999
      9988      9986      9994      9996      9988      9986      9994      9997
      9988      9991      9997      9994      9988      9991      9997      9999
      9990      9988      9986      9994      9990      9988      9991      9993
      9990      9988      9991      9997      9991      9988      9986      9994
      9991      9997      9994      9996      9993      9991      9997      9994
      9993      9991      9997      9999      9996      9994      9997      9999
     10001     10006     10008     10010     10001     10006     10008     10011
     10001     10006     10014     10016     10001     10006     10014     10017
     10003     10001     10006     10008     10003     10001     10006     10014
     10004     10001     10006     10008     10004     10001     10006     10014
     10005     10001     10006     10008     10005     10001     10006     10014
     10006     10008     10011     10013     10006     10008     10011     10017
     10006     10014     10017     10011     10006     10014     10017     10019
     10008     10006     10014     10016     10008     10006     10014     10017
     10008     10011     10017     10014     10008     10011     10017     10019
     10010     10008     10006     10014     10010     10008     10011     10013
     10010     10008     10011     10017     10011     10008     10006     10014
     10011     10017     10014     10016     10013     10011     10017     10014
     10013     10011     10017     10019     10016     10014     10017     10019
     10021     10026     10028     10030     10021     10026     10028     10031
     10021     10026     10034     10036     10021     10026     10034     10037
     10023     10021     10026     10028     10023     10021     10026     10034
     10024     10021     10026     10028     10024     10021     10026     10034
     10025     10021     10026     10028     10025     10021     10026     10034
     10026     10028     10031     10033     10026     10028     10031     10037
     10026     10034     10037     10031     10026     10034     10037     10039
     10028     10026     10034     10036     10028     10026     10034     10037
     10028     10031     10037     10034     10028     10031     10037     10039
     10030     10028     10026     10034     10030     10028     10031     10033
     10030     10028     10031     10037     10031     10028     10026     10034
     10031     10037     10034     10036     10033     10031     10037     10034
     10033     10031     10037     10039     10036     10034     10037     10039
     10041     10046     10048     10050     10041     10046     10048     10051
     10041     10046     10054     10056     10041     10046     10054     10057
     10043     10041     10046     10048     10043     10041     10046     10054
     10044     10041     10046     10048     10044     10041     10046     10054
     10045     10041     10046     10048     10045     10041     10046     10054
     10046     10048     10051     10053     10046     10048     10051     10057
     10046     10054     10057     10051     10046     10054     10057     10059
     10048     10046     10054     10056     10048     10046     10054     10057
     10048     10051     10057     10054     10048     10051     10057     10059
     10050     10048     10046     10054     10050     10048     10051     10053
     10050     10048     10051     10057     10051     10048     10046     10054
     10051     10057     10054     10056     10053     10051     10057     10054
     10053     10051     10057     10059     10056     10054     10057     10059
     10061     10066     10068     10070     10061     10066     10068     10071
     10061     10066     10074     10076     10061     10066     10074     10077
     10063     10061     10066     10068     10063     10061     10066     10074
     10064     10061     10066     10068     10064     10061     10066     10074
     10065     10061     10066     10068     10065     10061     10066     10074
     10066     10068     10071     10073     10066     10068     10071     10077
     10066     10074     10077     10071     10066     10074     10077     10079
     10068     10066     10074     10076     10068     10066     10074     10077
     10068     10071     10077     10074     10068     10071     10077     10079
     10070     10068     10066     10074     10070     10068     10071     10073
     10070     10068     10071     10077     10071     10068     10066     10074
     10071     10077     10074     10076     10073     10071     10077     10074
     10073     10071     10077     10079     10076     10074     10077     10079
     10081     10086     10088     10090     10081     10086     10088     10091
     10081     10086     10094     10096     10081     10086     10094     10097
     10083     10081     10086     10088     10083     10081     10086     10094
     10084     10081     10086     10088     10084     10081     10086     10094
     10085     10081     10086     10088     10085     10081     10086     10094
     10086     10088     10091     10093     10086     10088     10091     10097
     10086     10094     10097     10091     10086     10094     10097     10099
     10088     10086     10094     10096     10088     10086     10094     10097
     10088     10091     10097     10094     10088     10091     10097     10099
     10090     10088     10086     10094     10090     10088     10091     10093
     10090     10088     10091     10097     10091     10088     10086     10094
     10091     10097     10094     10096     10093     10091     10097     10094
     10093     10091     10097     10099     10096     10094     10097     10099
     10101     10106     10108     10110     10101     10106     10108     10111
     10101     10106     10114     10116     10101     10106     10114     10117
     10103     10101     10106     10108     10103     10101     10106     10114
     10104     10101     10106     10108     10104     10101     10106     10114
     10105     10101     10106     10108     10105     10101     10106     10114
     10106     10108     10111     10113     10106     10108     10111     10117
     10106     10114     10117     10111     10106     10114     10117     10119
     10108     10106     10114     10116     10108     10106     10114     10117
     10108     10111     10117     10114     10108     10111     10117     10119
     10110     10108     10106     10114     10110     10108     10111     10113
     10110     10108     10111     10117     10111     10108     10106     10114
     10111     10117     10114     10116     10113     10111     10117     10114
     10113     10111     10117     10119     10116     10114     10117     10119
     10121     10126     10128     10130     10121     10126     10128     10131
     10121     10126     10134     10136     10121     10126     10134     10137
     10123     10121     10126     10128     10123     10121     10126     10134
     10124     10121     10126     10128     10124     10121     10126     10134
     10125     10121     10126     10128     10125     10121     10126     10134
     10126     10128     10131     10133     10126     10128     10131     10137
     10126     10134     10137     10131     10126     10134     10137     10139
     10128     10126     10134     10136     10128     10126     10134     10137
     10128     10131     10137     10134     10128     10131     10137     10139
     10130     10128     10126     10134     10130     10128     10131     10133
     10130     10128     10131     10137     10131     10128     10126     10134
     10131     10137     10134     10136     10133     10131     10137     10134
     10133     10131     10137     10139     10136     10134     10137     10139
     10141     10146     10148     10150     10141     10146     10148     10151
     10141     10146     10154     10156     10141     10146     10154     10157
     10143     10141     10146     10148     10143     10141     10146     10154
     10144     10141     10146     10148     10144     10141     10146     10154
     10145     10141     10146     10148     10145     10141     10146     10154
     10146     10148     10151     10153     10146     10148     10151     10157
     10146     10154     10157     10151     10146     10154     10157     10159
     10148     10146     10154     10156     10148     10146     10154     10157
     10148     10151     10157     10154     10148     10151     10157     10159
     10150     10148     10146     10154     10150     10148     10151     10153
     10150     10148     10151     10157     10151     10148     10146     10154
     10151     10157     10154     10156     10153     10151     10157     10154
     10153     10151     10157     10159     10156     10154     10157     10159
     10161     10166     10168     10170     10161     10166     10168     10171
     10161     10166     10174     10176     10161     10166     10174     10177
     10163     10161     10166     10168     10163     10161     10166     10174
     10164     10161     10166     10168     10164     10161     10166     10174
     10165     10161     10166     10168     10165     10161     10166     10174
     10166     10168     10171     10173     10166     10168     10171     10177
     10166     10174     10177     10171     10166     10174     10177     10179
     10168     10166     10174     10176     10168     10166     10174     10177
     10168     10171     10177     10174     10168     10171     10177     10179
     10170     10168     10166     10174     10170     10168     10171     10173
     10170     10168     10171     10177     10171     10168     10166     10174
     10171     10177     10174     10176     10173     10171     10177     10174
     10173     10171     10177     10179     10176     10174     10177     10179
     10181     10186     10188     10190     10181     10186     10188     10191
     10181     10186     10194     10196     10181     10186     10194     10197
     10183     10181     10186     10188     10183     10181     10186     10194
     10184     10181     10186     10188     10184     10181     10186     10194
     10185     10181     10186     10188     10185     10181     10186     10194
     10186     10188     10191     10193     10186     10188     10191     10197
     10186     10194     10197     10191     10186     10194     10197     10199
     10188     10186     10194     10196     10188     10186     10194     10197
     10188     10191     10197     10194     10188     10191     10197     10199
     10190     10188     10186     10194     10190     10188     10191     10193
     10190     10188     10191     10197     10191     10188     10186     10194
     10191     10197     10194     10196     10193     10191     10197     10194
     10193     10191     10197     10199     10196     10194     10197     10199
     10201     10206     10208     10210     10201     10206     10208     10211
     10201     10206     10214     10216     10201     10206     10214     10217
     10203     10201     10206     10208     10203     10201     10206     10214
     10204     10201     10206     10208     10204     10201     10206     10214
     10205     10201     10206     10208     10205     10201     10206     10214
     10206     10208     10211     10213     10206     10208     10211     10217
     10206     10214     10217     10211     10206     10214     10217     10219
     10208     10206     10214     10216     10208     10206     10214     10217
     10208     10211     10217     10214     10208     10211     10217     10219
     10210     10208     10206     10214     10210     10208     10211     10213
     10210     10208     10211     10217     10211     10208     10206     10214
     10211     10217     10214     10216     10213     10211     10217     10214
     10213     10211     10217     10219     10216     10214     10217     10219
     10221     10226     10228     10230     10221     10226     10228     10231
     10221     10226     10234     10236     10221     10226     10234     10237
     10223     10221     10226     10228     10223     10221     10226     10234
     10224     10221     10226     10228     10224     10221     10226     10234
     10225     10221     10226     10228     10225     10221     10226     10234
     10226     10228     10231     10233     10226     10228     10231     10237
     10226     10234     10237     10231     10226     10234     10237     10239
     10228     10226     10234     10236     10228     10226     10234     10237
     10228     10231     10237     10234     10228     10231     10237     10239
     10230     10228     10226     10234     10230     10228     10231     10233
     10230     10228     10231     10237     10231     10228     10226     10234
     10231     10237     10234     10236     10233     10231     10237     10234
     10233     10231     10237     10239     10236     10234     10237     10239
     10241     10246     10248     10250     10241     10246     10248     10251
     10241     10246     10254     10256     10241     10246     10254     10257
     10243     10241     10246     10248     10243     10241     10246     10254
     10244     10241     10246     10248     10244     10241     10246     10254
     10245     10241     10246     10248     10245     10241     10246     10254
     10246     10248     10251     10253     10246     10248     10251     10257
     10246     10254     10257     10251     10246     10254     10257     10259
     10248     10246     10254     10256     10248     10246     10254     10257
     10248     10251     10257     10254     10248     10251     10257     10259
     10250     10248     10246     10254     10250     10248     10251     10253
     10250     10248     10251     10257     10251     10248     10246     10254
     10251     10257     10254     10256     10253     10251     10257     10254
     10253     10251     10257     10259     10256     10254     10257     10259
     10261     10266     10268     10270     10261     10266     10268     10271
     10261     10266     10274     10276     10261     10266     10274     10277
     10263     10261     10266     10268     10263     10261     10266     10274
     10264     10261     10266     10268     10264     10261     10266     10274
     10265     10261     10266     10268     10265     10261     10266     10274
     10266     10268     10271     10273     10266     10268     10271     10277
     10266     10274     10277     10271     10266     10274     10277     10279
     10268     10266     10274     10276     10268     10266     10274     10277
     10268     10271     10277     10274     10268     10271     10277     10279
     10270     10268     10266     10274     10270     10268     10271     10273
     10270     10268     10271     10277     10271     10268     10266     10274
     10271     10277     10274     10276     10273     10271     10277     10274
     10273     10271     10277     10279     10276     10274     10277     10279
     10281     10286     10288     10290     10281     10286     10288     10291
     10281     10286     10294     10296     10281     10286     10294     10297
     10283     10281     10286     10288     10283     10281     10286     10294
     10284     10281     10286     10288     10284     10281     10286     10294
     10285     10281     10286     10288     10285     10281     10286     10294
     10286     10288     10291     10293     10286     10288     10291     10297
     10286     10294     10297     10291     10286     10294     10297     10299
     10288     10286     10294     10296     10288     10286     10294     10297
     10288     10291     10297     10294     10288     10291     10297     10299
     10290     10288     10286     10294     10290     10288     10291     10293
     10290     10288     10291     10297     10291     10288     10286     10294
     10291     10297     10294     10296     10293     10291     10297     10294
     10293     10291     10297     10299     10296     10294     10297     10299
     10301     10306     10308     10310     10301     10306     10308     10311
     10301     10306     10314     10316     10301     10306     10314     10317
     10303     10301     10306     10308     10303     10301     10306     10314
     10304     10301     10306     10308     10304     10301     10306     10314
     10305     10301     10306     10308     10305     10301     10306     10314
     10306     10308     10311     10313     10306     10308     10311     10317
     10306     10314     10317     10311     10306     10314     10317     10319
     10308     10306     10314     10316     10308     10306     10314     10317
     10308     10311     10317     10314     10308     10311     10317     10319
     10310     10308     10306     10314     10310     10308     10311     10313
     10310     10308     10311     10317     10311     10308     10306     10314
     10311     10317     10314     10316     10313     10311     10317     10314
     10313     10311     10317     10319     10316     10314     10317     10319
     10321     10326     10328     10330     10321     10326     10328     10331
     10321     10326     10334     10336     10321     10326     10334     10337
     10323     10321     10326     10328     10323     10321     10326     10334
     10324     10321     10326     10328     10324     10321     10326     10334
     10325     10321     10326     10328     10325     10321     10326     10334
     10326     10328     10331     10333     10326     10328     10331     10337
     10326     10334     10337     10331     10326     10334     10337     10339
     10328     10326     10334     10336     10328     10326     10334     10337
     10328     10331     10337     10334     10328     10331     10337     10339
     10330     10328     10326     10334     10330     10328     10331     10333
     10330     10328     10331     10337     10331     10328     10326     10334
     10331     10337     10334     10336     10333     10331     10337     10334
     10333     10331     10337     10339     10336     10334     10337     10339
     10341     10346     10348     10350     10341     10346     10348     10351
     10341     10346     10354     10356     10341     10346     10354     10357
     10343     10341     10346     10348     10343     10341     10346     10354
     10344     10341     10346     10348     10344     10341     10346     10354
     10345     10341     10346     10348     10345     10341     10346     10354
     10346     10348     10351     10353     10346     10348     10351     10357
     10346     10354     10357     10351     10346     10354     10357     10359
     10348     10346     10354     10356     10348     10346     10354     10357
     10348     10351     10357     10354     10348     10351     10357     10359
     10350     10348     10346     10354     10350     10348     10351     10353
     10350     10348     10351     10357     10351     10348     10346     10354
     10351     10357     10354     10356     10353     10351     10357     10354
     10353     10351     10357     10359     10356     10354     10357     10359
     10361     10366     10368     10370     10361     10366     10368     10371
     10361     10366     10374     10376     10361     10366     10374     10377
     10363     10361     10366     10368     10363     10361     10366     10374
     10364     10361     10366     10368     10364     10361     10366     10374
     10365     10361     10366     10368     10365     10361     10366     10374
     10366     10368     10371     10373     10366     10368     10371     10377
     10366     10374     10377     10371     10366     10374     10377     10379
     10368     10366     10374     10376     10368     10366     10374     10377
     10368     10371     10377     10374     10368     10371     10377     10379
     10370     10368     10366     10374     10370     10368     10371     10373
     10370     10368     10371     10377     10371     10368     10366     10374
     10371     10377     10374     10376     10373     10371     10377     10374
     10373     10371     10377     10379     10376     10374     10377     10379
     10381     10386     10388     10390     10381     10386     10388     10391
     10381     10386     10394     10396     10381     10386     10394     10397
     10383     10381     10386     10388     10383     10381     10386     10394
     10384     10381     10386     10388     10384     10381     10386     10394
     10385     10381     10386     10388     10385     10381     10386     10394
     10386     10388     10391     10393     10386     10388     10391     10397
     10386     10394     10397     10391     10386     10394     10397     10399
     10388     10386     10394     10396     10388     10386     10394     10397
     10388     10391     10397     10394     10388     10391     10397     10399
     10390     10388     10386     10394     10390     10388     10391     10393
     10390     10388     10391     10397     10391     10388     10386     10394
     10391     10397     10394     10396     10393     10391     10397     10394
     10393     10391     10397     10399     10396     10394     10397     10399
     10401     10406     10408     10410     10401     10406     10408     10411
     10401     10406     10414     10416     10401     10406     10414     10417
     10403     10401     10406     10408     10403     10401     10406     10414
     10404     10401     10406     10408     10404     10401     10406     10414
     10405     10401     10406     10408     10405     10401     10406     10414
     10406     10408     10411     10413     10406     10408     10411     10417
     10406     10414     10417     10411     10406     10414     10417     10419
     10408     10406     10414     10416     10408     10406     10414     10417
     10408     10411     10417     10414     10408     10411     10417     10419
     10410     10408     10406     10414     10410     10408     10411     10413
     10410     10408     10411     10417     10411     10408     10406     10414
     10411     10417     10414     10416     10413     10411     10417     10414
     10413     10411     10417     10419     10416     10414     10417     10419
     10421     10426     10428     10430     10421     10426     10428     10431
     10421     10426     10434     10436     10421     10426     10434     10437
     10423     10421     10426     10428     10423     10421     10426     10434
     10424     10421     10426     10428     10424     10421     10426     10434
     10425     10421     10426     10428     10425     10421     10426     10434
     10426     10428     10431     10433     10426     10428     10431     10437
     10426     10434     10437     10431     10426     10434     10437     10439
     10428     10426     10434     10436     10428     10426     10434     10437
     10428     10431     10437     10434     10428     10431     10437     10439
     10430     10428     10426     10434     10430     10428     10431     10433
     10430     10428     10431     10437     10431     10428     10426     10434
     10431     10437     10434     10436     10433     10431     10437     10434
     10433     10431     10437     10439     10436     10434     10437     10439
     10441     10446     10448     10450     10441     10446     10448     10451
     10441     10446     10454     10456     10441     10446     10454     10457
     10443     10441     10446     10448     10443     10441     10446     10454
     10444     10441     10446     10448     10444     10441     10446     10454
     10445     10441     10446     10448     10445     10441     10446     10454
     10446     10448     10451     10453     10446     10448     10451     10457
     10446     10454     10457     10451     10446     10454     10457     10459
     10448     10446     10454     10456     10448     10446     10454     10457
     10448     10451     10457     10454     10448     10451     10457     10459
     10450     10448     10446     10454     10450     10448     10451     10453
     10450     10448     10451     10457     10451     10448     10446     10454
     10451     10457     10454     10456     10453     10451     10457     10454
     10453     10451     10457     10459     10456     10454     10457     10459
     10461     10466     10468     10470     10461     10466     10468     10471
     10461     10466     10474     10476     10461     10466     10474     10477
     10463     10461     10466     10468     10463     10461     10466     10474
     10464     10461     10466     10468     10464     10461     10466     10474
     10465     10461     10466     10468     10465     10461     10466     10474
     10466     10468     10471     10473     10466     10468     10471     10477
     10466     10474     10477     10471     10466     10474     10477     10479
     10468     10466     10474     10476     10468     10466     10474     10477
     10468     10471     10477     10474     10468     10471     10477     10479
     10470     10468     10466     10474     10470     10468     10471     10473
     10470     10468     10471     10477     10471     10468     10466     10474
     10471     10477     10474     10476     10473     10471     10477     10474
     10473     10471     10477     10479     10476     10474     10477     10479
     10481     10486     10488     10490     10481     10486     10488     10491
     10481     10486     10494     10496     10481     10486     10494     10497
     10483     10481     10486     10488     10483     10481     10486     10494
     10484     10481     10486     10488     10484     10481     10486     10494
     10485     10481     10486     10488     10485     10481     10486     10494
     10486     10488     10491     10493     10486     10488     10491     10497
     10486     10494     10497     10491     10486     10494     10497     10499
     10488     10486     10494     10496     10488     10486     10494     10497
     10488     10491     10497     10494     10488     10491     10497     10499
     10490     10488     10486     10494     10490     10488     10491     10493
     10490     10488     10491     10497     10491     10488     10486     10494
     10491     10497     10494     10496     10493     10491     10497     10494
     10493     10491     10497     10499     10496     10494     10497     10499
     10501     10506     10508     10510     10501     10506     10508     10511
     10501     10506     10514     10516     10501     10506     10514     10517
     10503     10501     10506     10508     10503     10501     10506     10514
     10504     10501     10506     10508     10504     10501     10506     10514
     10505     10501     10506     10508     10505     10501     10506     10514
     10506     10508     10511     10513     10506     10508     10511     10517
     10506     10514     10517     10511     10506     10514     10517     10519
     10508     10506     10514     10516     10508     10506     10514     10517
     10508     10511     10517     10514     10508     10511     10517     10519
     10510     10508     10506     10514     10510     10508     10511     10513
     10510     10508     10511     10517     10511     10508     10506     10514
     10511     10517     10514     10516     10513     10511     10517     10514
     10513     10511     10517     10519     10516     10514     10517     10519
     10521     10526     10528     10530     10521     10526     10528     10531
     10521     10526     10534     10536     10521     10526     10534     10537
     10523     10521     10526     10528     10523     10521     10526     10534
     10524     10521     10526     10528     10524     10521     10526     10534
     10525     10521     10526     10528     10525     10521     10526     10534
     10526     10528     10531     10533     10526     10528     10531     10537
     10526     10534     10537     10531     10526     10534     10537     10539
     10528     10526     10534     10536     10528     10526     10534     10537
     10528     10531     10537     10534     10528     10531     10537     10539
     10530     10528     10526     10534     10530     10528     10531     10533
     10530     10528     10531     10537     10531     10528     10526     10534
     10531     10537     10534     10536     10533     10531     10537     10534
     10533     10531     10537     10539     10536     10534     10537     10539
     10541     10546     10548     10550     10541     10546     10548     10551
     10541     10546     10554     10556     10541     10546     10554     10557
     10543     10541     10546     10548     10543     10541     10546     10554
     10544     10541     10546     10548     10544     10541     10546     10554
     10545     10541     10546     10548     10545     10541     10546     10554
     10546     10548     10551     10553     10546     10548     10551     10557
     10546     10554     10557     10551     10546     10554     10557     10559
     10548     10546     10554     10556     10548     10546     10554     10557
     10548     10551     10557     10554     10548     10551     10557     10559
     10550     10548     10546     10554     10550     10548     10551     10553
     10550     10548     10551     10557     10551     10548     10546     10554
     10551     10557     10554     10556     10553     10551     10557     10554
     10553     10551     10557     10559     10556     10554     10557     10559
     10561     10566     10568     10570     10561     10566     10568     10571
     10561     10566     10574     10576     10561     10566     10574     10577
     10563     10561     10566     10568     10563     10561     10566     10574
     10564     10561     10566     10568     10564     10561     10566     10574
     10565     10561     10566     10568     10565     10561     10566     10574
     10566     10568     10571     10573     10566     10568     10571     10577
     10566     10574     10577     10571     10566     10574     10577     10579
     10568     10566     10574     10576     10568     10566     10574     10577
     10568     10571     10577     10574     10568     10571     10577     10579
     10570     10568     10566     10574     10570     10568     10571     10573
     10570     10568     10571     10577     10571     10568     10566     10574
     10571     10577     10574     10576     10573     10571     10577     10574
     10573     10571     10577     10579     10576     10574     10577     10579
     10581     10586     10588     10590     10581     10586     10588     10591
     10581     10586     10594     10596     10581     10586     10594     10597
     10583     10581     10586     10588     10583     10581     10586     10594
     10584     10581     10586     10588     10584     10581     10586     10594
     10585     10581     10586     10588     10585     10581     10586     10594
     10586     10588     10591     10593     10586     10588     10591     10597
     10586     10594     10597     10591     10586     10594     10597     10599
     10588     10586     10594     10596     10588     10586     10594     10597
     10588     10591     10597     10594     10588     10591     10597     10599
     10590     10588     10586     10594     10590     10588     10591     10593
     10590     10588     10591     10597     10591     10588     10586     10594
     10591     10597     10594     10596     10593     10591     10597     10594
     10593     10591     10597     10599     10596     10594     10597     10599
     10601     10606     10608     10610     10601     10606     10608     10611
     10601     10606     10614     10616     10601     10606     10614     10617
     10603     10601     10606     10608     10603     10601     10606     10614
     10604     10601     10606     10608     10604     10601     10606     10614
     10605     10601     10606     10608     10605     10601     10606     10614
     10606     10608     10611     10613     10606     10608     10611     10617
     10606     10614     10617     10611     10606     10614     10617     10619
     10608     10606     10614     10616     10608     10606     10614     10617
     10608     10611     10617     10614     10608     10611     10617     10619
     10610     10608     10606     10614     10610     10608     10611     10613
     10610     10608     10611     10617     10611     10608     10606     10614
     10611     10617     10614     10616     10613     10611     10617     10614
     10613     10611     10617     10619     10616     10614     10617     10619
     10621     10626     10628     10630     10621     10626     10628     10631
     10621     10626     10634     10636     10621     10626     10634     10637
     10623     10621     10626     10628     10623     10621     10626     10634
     10624     10621     10626     10628     10624     10621     10626     10634
     10625     10621     10626     10628     10625     10621     10626     10634
     10626     10628     10631     10633     10626     10628     10631     10637
     10626     10634     10637     10631     10626     10634     10637     10639
     10628     10626     10634     10636     10628     10626     10634     10637
     10628     10631     10637     10634     10628     10631     10637     10639
     10630     10628     10626     10634     10630     10628     10631     10633
     10630     10628     10631     10637     10631     10628     10626     10634
     10631     10637     10634     10636     10633     10631     10637     10634
     10633     10631     10637     10639     10636     10634     10637     10639
     10641     10646     10648     10650     10641     10646     10648     10651
     10641     10646     10654     10656     10641     10646     10654     10657
     10643     10641     10646     10648     10643     10641     10646     10654
     10644     10641     10646     10648     10644     10641     10646     10654
     10645     10641     10646     10648     10645     10641     10646     10654
     10646     10648     10651     10653     10646     10648     10651     10657
     10646     10654     10657     10651     10646     10654     10657     10659
     10648     10646     10654     10656     10648     10646     10654     10657
     10648     10651     10657     10654     10648     10651     10657     10659
     10650     10648     10646     10654     10650     10648     10651     10653
     10650     10648     10651     10657     10651     10648     10646     10654
     10651     10657     10654     10656     10653     10651     10657     10654
     10653     10651     10657     10659     10656     10654     10657     10659
     10661     10666     10668     10670     10661     10666     10668     10671
     10661     10666     10674     10676     10661     10666     10674     10677
     10663     10661     10666     10668     10663     10661     10666     10674
     10664     10661     10666     10668     10664     10661     10666     10674
     10665     10661     10666     10668     10665     10661     10666     10674
     10666     10668     10671     10673     10666     10668     10671     10677
     10666     10674     10677     10671     10666     10674     10677     10679
     10668     10666     10674     10676     10668     10666     10674     10677
     10668     10671     10677     10674     10668     10671     10677     10679
     10670     10668     10666     10674     10670     10668     10671     10673
     10670     10668     10671     10677     10671     10668     10666     10674
     10671     10677     10674     10676     10673     10671     10677     10674
     10673     10671     10677     10679     10676     10674     10677     10679
     10681     10686     10688     10690     10681     10686     10688     10691
     10681     10686     10694     10696     10681     10686     10694     10697
     10683     10681     10686     10688     10683     10681     10686     10694
     10684     10681     10686     10688     10684     10681     10686     10694
     10685     10681     10686     10688     10685     10681     10686     10694
     10686     10688     10691     10693     10686     10688     10691     10697
     10686     10694     10697     10691     10686     10694     10697     10699
     10688     10686     10694     10696     10688     10686     10694     10697
     10688     10691     10697     10694     10688     10691     10697     10699
     10690     10688     10686     10694     10690     10688     10691     10693
     10690     10688     10691     10697     10691     10688     10686     10694
     10691     10697     10694     10696     10693     10691     10697     10694
     10693     10691     10697     10699     10696     10694     10697     10699
     10701     10706     10708     10710     10701     10706     10708     10711
     10701     10706     10714     10716     10701     10706     10714     10717
     10703     10701     10706     10708     10703     10701     10706     10714
     10704     10701     10706     10708     10704     10701     10706     10714
     10705     10701     10706     10708     10705     10701     10706     10714
     10706     10708     10711     10713     10706     10708     10711     10717
     10706     10714     10717     10711     10706     10714     10717     10719
     10708     10706     10714     10716     10708     10706     10714     10717
     10708     10711     10717     10714     10708     10711     10717     10719
     10710     10708     10706     10714     10710     10708     10711     10713
     10710     10708     10711     10717     10711     10708     10706     10714
     10711     10717     10714     10716     10713     10711     10717     10714
     10713     10711     10717     10719     10716     10714     10717     10719
     10721     10726     10728     10730     10721     10726     10728     10731
     10721     10726     10734     10736     10721     10726     10734     10737
     10723     10721     10726     10728     10723     10721     10726     10734
     10724     10721     10726     10728     10724     10721     10726     10734
     10725     10721     10726     10728     10725     10721     10726     10734
     10726     10728     10731     10733     10726     10728     10731     10737
     10726     10734     10737     10731     10726     10734     10737     10739
     10728     10726     10734     10736     10728     10726     10734     10737
     10728     10731     10737     10734     10728     10731     10737     10739
     10730     10728     10726     10734     10730     10728     10731     10733
     10730     10728     10731     10737     10731     10728     10726     10734
     10731     10737     10734     10736     10733     10731     10737     10734
     10733     10731     10737     10739     10736     10734     10737     10739
     10741     10746     10748     10750     10741     10746     10748     10751
     10741     10746     10754     10756     10741     10746     10754     10757
     10743     10741     10746     10748     10743     10741     10746     10754
     10744     10741     10746     10748     10744     10741     10746     10754
     10745     10741     10746     10748     10745     10741     10746     10754
     10746     10748     10751     10753     10746     10748     10751     10757
     10746     10754     10757     10751     10746     10754     10757     10759
     10748     10746     10754     10756     10748     10746     10754     10757
     10748     10751     10757     10754     10748     10751     10757     10759
     10750     10748     10746     10754     10750     10748     10751     10753
     10750     10748     10751     10757     10751     10748     10746     10754
     10751     10757     10754     10756     10753     10751     10757     10754
     10753     10751     10757     10759     10756     10754     10757     10759
     10761     10766     10768     10770     10761     10766     10768     10771
     10761     10766     10774     10776     10761     10766     10774     10777
     10763     10761     10766     10768     10763     10761     10766     10774
     10764     10761     10766     10768     10764     10761     10766     10774
     10765     10761     10766     10768     10765     10761     10766     10774
     10766     10768     10771     10773     10766     10768     10771     10777
     10766     10774     10777     10771     10766     10774     10777     10779
     10768     10766     10774     10776     10768     10766     10774     10777
     10768     10771     10777     10774     10768     10771     10777     10779
     10770     10768     10766     10774     10770     10768     10771     10773
     10770     10768     10771     10777     10771     10768     10766     10774
     10771     10777     10774     10776     10773     10771     10777     10774
     10773     10771     10777     10779     10776     10774     10777     10779
     10781     10786     10788     10790     10781     10786     10788     10791
     10781     10786     10794     10796     10781     10786     10794     10797
     10783     10781     10786     10788     10783     10781     10786     10794
     10784     10781     10786     10788     10784     10781     10786     10794
     10785     10781     10786     10788     10785     10781     10786     10794
     10786     10788     10791     10793     10786     10788     10791     10797
     10786     10794     10797     10791     10786     10794     10797     10799
     10788     10786     10794     10796     10788     10786     10794     10797
     10788     10791     10797     10794     10788     10791     10797     10799
     10790     10788     10786     10794     10790     10788     10791     10793
     10790     10788     10791     10797     10791     10788     10786     10794
     10791     10797     10794     10796     10793     10791     10797     10794
     10793     10791     10797     10799     10796     10794     10797     10799
     10801     10806     10808     10810     10801     10806     10808     10811
     10801     10806     10814     10816     10801     10806     10814     10817
     10803     10801     10806     10808     10803     10801     10806     10814
     10804     10801     10806     10808     10804     10801     10806     10814
     10805     10801     10806     10808     10805     10801     10806     10814
     10806     10808     10811     10813     10806     10808     10811     10817
     10806     10814     10817     10811     10806     10814     10817     10819
     10808     10806     10814     10816     10808     10806     10814     10817
     10808     10811     10817     10814     10808     10811     10817     10819
     10810     10808     10806     10814     10810     10808     10811     10813
     10810     10808     10811     10817     10811     10808     10806     10814
     10811     10817     10814     10816     10813     10811     10817     10814
     10813     10811     10817     10819     10816     10814     10817     10819
     10821     10826     10828     10830     10821     10826     10828     10831
     10821     10826     10834     10836     10821     10826     10834     10837
     10823     10821     10826     10828     10823     10821     10826     10834
     10824     10821     10826     10828     10824     10821     10826     10834
     10825     10821     10826     10828     10825     10821     10826     10834
     10826     10828     10831     10833     10826     10828     10831     10837
     10826     10834     10837     10831     10826     10834     10837     10839
     10828     10826     10834     10836     10828     10826     10834     10837
     10828     10831     10837     10834     10828     10831     10837     10839
     10830     10828     10826     10834     10830     10828     10831     10833
     10830     10828     10831     10837     10831     10828     10826     10834
     10831     10837     10834     10836     10833     10831     10837     10834
     10833     10831     10837     10839     10836     10834     10837     10839
     10841     10846     10848     10850     10841     10846     10848     10851
     10841     10846     10854     10856     10841     10846     10854     10857
     10843     10841     10846     10848     10843     10841     10846     10854
     10844     10841     10846     10848     10844     10841     10846     10854
     10845     10841     10846     10848     10845     10841     10846     10854
     10846     10848     10851     10853     10846     10848     10851     10857
     10846     10854     10857     10851     10846     10854     10857     10859
     10848     10846     10854     10856     10848     10846     10854     10857
     10848     10851     10857     10854     10848     10851     10857     10859
     10850     10848     10846     10854     10850     10848     10851     10853
     10850     10848     10851     10857     10851     10848     10846     10854
     10851     10857     10854     10856     10853     10851     10857     10854
     10853     10851     10857     10859     10856     10854     10857     10859
     10861     10866     10868     10870     10861     10866     10868     10871
     10861     10866     10874     10876     10861     10866     10874     10877
     10863     10861     10866     10868     10863     10861     10866     10874
     10864     10861     10866     10868     10864     10861     10866     10874
     10865     10861     10866     10868     10865     10861     10866     10874
     10866     10868     10871     10873     10866     10868     10871     10877
     10866     10874     10877     10871     10866     10874     10877     10879
     10868     10866     10874     10876     10868     10866     10874     10877
     10868     10871     10877     10874     10868     10871     10877     10879
     10870     10868     10866     10874     10870     10868     10871     10873
     10870     10868     10871     10877     10871     10868     10866     10874
     10871     10877     10874     10876     10873     10871     10877     10874
     10873     10871     10877     10879     10876     10874     10877     10879
     10881     10886     10888     10890     10881     10886     10888     10891
     10881     10886     10894     10896     10881     10886     10894     10897
     10883     10881     10886     10888     10883     10881     10886     10894
     10884     10881     10886     10888     10884     10881     10886     10894
     10885     10881     10886     10888     10885     10881     10886     10894
     10886     10888     10891     10893     10886     10888     10891     10897
     10886     10894     10897     10891     10886     10894     10897     10899
     10888     10886     10894     10896     10888     10886     10894     10897
     10888     10891     10897     10894     10888     10891     10897     10899
     10890     10888     10886     10894     10890     10888     10891     10893
     10890     10888     10891     10897     10891     10888     10886     10894
     10891     10897     10894     10896     10893     10891     10897     10894
     10893     10891     10897     10899     10896     10894     10897     10899
     10901     10906     10908     10910     10901     10906     10908     10911
     10901     10906     10914     10916     10901     10906     10914     10917
     10903     10901     10906     10908     10903     10901     10906     10914
     10904     10901     10906     10908     10904     10901     10906     10914
     10905     10901     10906     10908     10905     10901     10906     10914
     10906     10908     10911     10913     10906     10908     10911     10917
     10906     10914     10917     10911     10906     10914     10917     10919
     10908     10906     10914     10916     10908     10906     10914     10917
     10908     10911     10917     10914     10908     10911     10917     10919
     10910     10908     10906     10914     10910     10908     10911     10913
     10910     10908     10911     10917     10911     10908     10906     10914
     10911     10917     10914     10916     10913     10911     10917     10914
     10913     10911     10917     10919     10916     10914     10917     10919
     10921     10926     10928     10930     10921     10926     10928     10931
     10921     10926     10934     10936     10921     10926     10934     10937
     10923     10921     10926     10928     10923     10921     10926     10934
     10924     10921     10926     10928     10924     10921     10926     10934
     10925     10921     10926     10928     10925     10921     10926     10934
     10926     10928     10931     10933     10926     10928     10931     10937
     10926     10934     10937     10931     10926     10934     10937     10939
     10928     10926     10934     10936     10928     10926     10934     10937
     10928     10931     10937     10934     10928     10931     10937     10939
     10930     10928     10926     10934     10930     10928     10931     10933
     10930     10928     10931     10937     10931     10928     10926     10934
     10931     10937     10934     10936     10933     10931     10937     10934
     10933     10931     10937     10939     10936     10934     10937     10939
     10941     10946     10948     10950     10941     10946     10948     10951
     10941     10946     10954     10956     10941     10946     10954     10957
     10943     10941     10946     10948     10943     10941     10946     10954
     10944     10941     10946     10948     10944     10941     10946     10954
     10945     10941     10946     10948     10945     10941     10946     10954
     10946     10948     10951     10953     10946     10948     10951     10957
     10946     10954     10957     10951     10946     10954     10957     10959
     10948     10946     10954     10956     10948     10946     10954     10957
     10948     10951     10957     10954     10948     10951     10957     10959
     10950     10948     10946     10954     10950     10948     10951     10953
     10950     10948     10951     10957     10951     10948     10946     10954
     10951     10957     10954     10956     10953     10951     10957     10954
     10953     10951     10957     10959     10956     10954     10957     10959
     10961     10966     10968     10970     10961     10966     10968     10971
     10961     10966     10974     10976     10961     10966     10974     10977
     10963     10961     10966     10968     10963     10961     10966     10974
     10964     10961     10966     10968     10964     10961     10966     10974
     10965     10961     10966     10968     10965     10961     10966     10974
     10966     10968     10971     10973     10966     10968     10971     10977
     10966     10974     10977     10971     10966     10974     10977     10979
     10968     10966     10974     10976     10968     10966     10974     10977
     10968     10971     10977     10974     10968     10971     10977     10979
     10970     10968     10966     10974     10970     10968     10971     10973
     10970     10968     10971     10977     10971     10968     10966     10974
     10971     10977     10974     10976     10973     10971     10977     10974
     10973     10971     10977     10979     10976     10974     10977     10979
     10981     10986     10988     10990     10981     10986     10988     10991
     10981     10986     10994     10996     10981     10986     10994     10997
     10983     10981     10986     10988     10983     10981     10986     10994
     10984     10981     10986     10988     10984     10981     10986     10994
     10985     10981     10986     10988     10985     10981     10986     10994
     10986     10988     10991     10993     10986     10988     10991     10997
     10986     10994     10997     10991     10986     10994     10997     10999
     10988     10986     10994     10996     10988     10986     10994     10997
     10988     10991     10997     10994     10988     10991     10997     10999
     10990     10988     10986     10994     10990     10988     10991     10993
     10990     10988     10991     10997     10991     10988     10986     10994
     10991     10997     10994     10996     10993     10991     10997     10994
     10993     10991     10997     10999     10996     10994     10997     10999
     11001     11006     11008     11010     11001     11006     11008     11011
     11001     11006     11014     11016     11001     11006     11014     11017
     11003     11001     11006     11008     11003     11001     11006     11014
     11004     11001     11006     11008     11004     11001     11006     11014
     11005     11001     11006     11008     11005     11001     11006     11014
     11006     11008     11011     11013     11006     11008     11011     11017
     11006     11014     11017     11011     11006     11014     11017     11019
     11008     11006     11014     11016     11008     11006     11014     11017
     11008     11011     11017     11014     11008     11011     11017     11019
     11010     11008     11006     11014     11010     11008     11011     11013
     11010     11008     11011     11017     11011     11008     11006     11014
     11011     11017     11014     11016     11013     11011     11017     11014
     11013     11011     11017     11019     11016     11014     11017     11019
     11021     11026     11028     11030     11021     11026     11028     11031
     11021     11026     11034     11036     11021     11026     11034     11037
     11023     11021     11026     11028     11023     11021     11026     11034
     11024     11021     11026     11028     11024     11021     11026     11034
     11025     11021     11026     11028     11025     11021     11026     11034
     11026     11028     11031     11033     11026     11028     11031     11037
     11026     11034     11037     11031     11026     11034     11037     11039
     11028     11026     11034     11036     11028     11026     11034     11037
     11028     11031     11037     11034     11028     11031     11037     11039
     11030     11028     11026     11034     11030     11028     11031     11033
     11030     11028     11031     11037     11031     11028     11026     11034
     11031     11037     11034     11036     11033     11031     11037     11034
     11033     11031     11037     11039     11036     11034     11037     11039
     11041     11046     11048     11050     11041     11046     11048     11051
     11041     11046     11054     11056     11041     11046     11054     11057
     11043     11041     11046     11048     11043     11041     11046     11054
     11044     11041     11046     11048     11044     11041     11046     11054
     11045     11041     11046     11048     11045     11041     11046     11054
     11046     11048     11051     11053     11046     11048     11051     11057
     11046     11054     11057     11051     11046     11054     11057     11059
     11048     11046     11054     11056     11048     11046     11054     11057
     11048     11051     11057     11054     11048     11051     11057     11059
     11050     11048     11046     11054     11050     11048     11051     11053
     11050     11048     11051     11057     11051     11048     11046     11054
     11051     11057     11054     11056     11053     11051     11057     11054
     11053     11051     11057     11059     11056     11054     11057     11059
     11061     11066     11068     11070     11061     11066     11068     11071
     11061     11066     11074     11076     11061     11066     11074     11077
     11063     11061     11066     11068     11063     11061     11066     11074
     11064     11061     11066     11068     11064     11061     11066     11074
     11065     11061     11066     11068     11065     11061     11066     11074
     11066     11068     11071     11073     11066     11068     11071     11077
     11066     11074     11077     11071     11066     11074     11077     11079
     11068     11066     11074     11076     11068     11066     11074     11077
     11068     11071     11077     11074     11068     11071     11077     11079
     11070     11068     11066     11074     11070     11068     11071     11073
     11070     11068     11071     11077     11071     11068     11066     11074
     11071     11077     11074     11076     11073     11071     11077     11074
     11073     11071     11077     11079     11076     11074     11077     11079
     11081     11086     11088     11090     11081     11086     11088     11091
     11081     11086     11094     11096     11081     11086     11094     11097
     11083     11081     11086     11088     11083     11081     11086     11094
     11084     11081     11086     11088     11084     11081     11086     11094
     11085     11081     11086     11088     11085     11081     11086     11094
     11086     11088     11091     11093     11086     11088     11091     11097
     11086     11094     11097     11091     11086     11094     11097     11099
     11088     11086     11094     11096     11088     11086     11094     11097
     11088     11091     11097     11094     11088     11091     11097     11099
     11090     11088     11086     11094     11090     11088     11091     11093
     11090     11088     11091     11097     11091     11088     11086     11094
     11091     11097     11094     11096     11093     11091     11097     11094
     11093     11091     11097     11099     11096     11094     11097     11099
     11101     11106     11108     11110     11101     11106     11108     11111
     11101     11106     11114     11116     11101     11106     11114     11117
     11103     11101     11106     11108     11103     11101     11106     11114
     11104     11101     11106     11108     11104     11101     11106     11114
     11105     11101     11106     11108     11105     11101     11106     11114
     11106     11108     11111     11113     11106     11108     11111     11117
     11106     11114     11117     11111     11106     11114     11117     11119
     11108     11106     11114     11116     11108     11106     11114     11117
     11108     11111     11117     11114     11108     11111     11117     11119
     11110     11108     11106     11114     11110     11108     11111     11113
     11110     11108     11111     11117     11111     11108     11106     11114
     11111     11117     11114     11116     11113     11111     11117     11114
     11113     11111     11117     11119     11116     11114     11117     11119
     11121     11126     11128     11130     11121     11126     11128     11131
     11121     11126     11134     11136     11121     11126     11134     11137
     11123     11121     11126     11128     11123     11121     11126     11134
     11124     11121     11126     11128     11124     11121     11126     11134
     11125     11121     11126     11128     11125     11121     11126     11134
     11126     11128     11131     11133     11126     11128     11131     11137
     11126     11134     11137     11131     11126     11134     11137     11139
     11128     11126     11134     11136     11128     11126     11134     11137
     11128     11131     11137     11134     11128     11131     11137     11139
     11130     11128     11126     11134     11130     11128     11131     11133
     11130     11128     11131     11137     11131     11128     11126     11134
     11131     11137     11134     11136     11133     11131     11137     11134
     11133     11131     11137     11139     11136     11134     11137     11139
     11141     11146     11148     11150     11141     11146     11148     11151
     11141     11146     11154     11156     11141     11146     11154     11157
     11143     11141     11146     11148     11143     11141     11146     11154
     11144     11141     11146     11148     11144     11141     11146     11154
     11145     11141     11146     11148     11145     11141     11146     11154
     11146     11148     11151     11153     11146     11148     11151     11157
     11146     11154     11157     11151     11146     11154     11157     11159
     11148     11146     11154     11156     11148     11146     11154     11157
     11148     11151     11157     11154     11148     11151     11157     11159
     11150     11148     11146     11154     11150     11148     11151     11153
     11150     11148     11151     11157     11151     11148     11146     11154
     11151     11157     11154     11156     11153     11151     11157     11154
     11153     11151     11157     11159     11156     11154     11157     11159
     11161     11166     11168     11170     11161     11166     11168     11171
     11161     11166     11174     11176     11161     11166     11174     11177
     11163     11161     11166     11168     11163     11161     11166     11174
     11164     11161     11166     11168     11164     11161     11166     11174
     11165     11161     11166     11168     11165     11161     11166     11174
     11166     11168     11171     11173     11166     11168     11171     11177
     11166     11174     11177     11171     11166     11174     11177     11179
     11168     11166     11174     11176     11168     11166     11174     11177
     11168     11171     11177     11174     11168     11171     11177     11179
     11170     11168     11166     11174     11170     11168     11171     11173
     11170     11168     11171     11177     11171     11168     11166     11174
     11171     11177     11174     11176     11173     11171     11177     11174
     11173     11171     11177     11179     11176     11174     11177     11179
     11181     11186     11188     11190     11181     11186     11188     11191
     11181     11186     11194     11196     11181     11186     11194     11197
     11183     11181     11186     11188     11183     11181     11186     11194
     11184     11181     11186     11188     11184     11181     11186     11194
     11185     11181     11186     11188     11185     11181     11186     11194
     11186     11188     11191     11193     11186     11188     11191     11197
     11186     11194     11197     11191     11186     11194     11197     11199
     11188     11186     11194     11196     11188     11186     11194     11197
     11188     11191     11197     11194     11188     11191     11197     11199
     11190     11188     11186     11194     11190     11188     11191     11193
     11190     11188     11191     11197     11191     11188     11186     11194
     11191     11197     11194     11196     11193     11191     11197     11194
     11193     11191     11197     11199     11196     11194     11197     11199
     11201     11206     11208     11210     11201     11206     11208     11211
     11201     11206     11214     11216     11201     11206     11214     11217
     11203     11201     11206     11208     11203     11201     11206     11214
     11204     11201     11206     11208     11204     11201     11206     11214
     11205     11201     11206     11208     11205     11201     11206     11214
     11206     11208     11211     11213     11206     11208     11211     11217
     11206     11214     11217     11211     11206     11214     11217     11219
     11208     11206     11214     11216     11208     11206     11214     11217
     11208     11211     11217     11214     11208     11211     11217     11219
     11210     11208     11206     11214     11210     11208     11211     11213
     11210     11208     11211     11217     11211     11208     11206     11214
     11211     11217     11214     11216     11213     11211     11217     11214
     11213     11211     11217     11219     11216     11214     11217     11219
     11221     11226     11228     11230     11221     11226     11228     11231
     11221     11226     11234     11236     11221     11226     11234     11237
     11223     11221     11226     11228     11223     11221     11226     11234
     11224     11221     11226     11228     11224     11221     11226     11234
     11225     11221     11226     11228     11225     11221     11226     11234
     11226     11228     11231     11233     11226     11228     11231     11237
     11226     11234     11237     11231     11226     11234     11237     11239
     11228     11226     11234     11236     11228     11226     11234     11237
     11228     11231     11237     11234     11228     11231     11237     11239
     11230     11228     11226     11234     11230     11228     11231     11233
     11230     11228     11231     11237     11231     11228     11226     11234
     11231     11237     11234     11236     11233     11231     11237     11234
     11233     11231     11237     11239     11236     11234     11237     11239
     11241     11246     11248     11250     11241     11246     11248     11251
     11241     11246     11254     11256     11241     11246     11254     11257
     11243     11241     11246     11248     11243     11241     11246     11254
     11244     11241     11246     11248     11244     11241     11246     11254
     11245     11241     11246     11248     11245     11241     11246     11254
     11246     11248     11251     11253     11246     11248     11251     11257
     11246     11254     11257     11251     11246     11254     11257     11259
     11248     11246     11254     11256     11248     11246     11254     11257
     11248     11251     11257     11254     11248     11251     11257     11259
     11250     11248     11246     11254     11250     11248     11251     11253
     11250     11248     11251     11257     11251     11248     11246     11254
     11251     11257     11254     11256     11253     11251     11257     11254
     11253     11251     11257     11259     11256     11254     11257     11259
     11261     11266     11268     11270     11261     11266     11268     11271
     11261     11266     11274     11276     11261     11266     11274     11277
     11263     11261     11266     11268     11263     11261     11266     11274
     11264     11261     11266     11268     11264     11261     11266     11274
     11265     11261     11266     11268     11265     11261     11266     11274
     11266     11268     11271     11273     11266     11268     11271     11277
     11266     11274     11277     11271     11266     11274     11277     11279
     11268     11266     11274     11276     11268     11266     11274     11277
     11268     11271     11277     11274     11268     11271     11277     11279
     11270     11268     11266     11274     11270     11268     11271     11273
     11270     11268     11271     11277     11271     11268     11266     11274
     11271     11277     11274     11276     11273     11271     11277     11274
     11273     11271     11277     11279     11276     11274     11277     11279
     11281     11286     11288     11290     11281     11286     11288     11291
     11281     11286     11294     11296     11281     11286     11294     11297
     11283     11281     11286     11288     11283     11281     11286     11294
     11284     11281     11286     11288     11284     11281     11286     11294
     11285     11281     11286     11288     11285     11281     11286     11294
     11286     11288     11291     11293     11286     11288     11291     11297
     11286     11294     11297     11291     11286     11294     11297     11299
     11288     11286     11294     11296     11288     11286     11294     11297
     11288     11291     11297     11294     11288     11291     11297     11299
     11290     11288     11286     11294     11290     11288     11291     11293
     11290     11288     11291     11297     11291     11288     11286     11294
     11291     11297     11294     11296     11293     11291     11297     11294
     11293     11291     11297     11299     11296     11294     11297     11299
     11301     11306     11308     11310     11301     11306     11308     11311
     11301     11306     11314     11316     11301     11306     11314     11317
     11303     11301     11306     11308     11303     11301     11306     11314
     11304     11301     11306     11308     11304     11301     11306     11314
     11305     11301     11306     11308     11305     11301     11306     11314
     11306     11308     11311     11313     11306     11308     11311     11317
     11306     11314     11317     11311     11306     11314     11317     11319
     11308     11306     11314     11316     11308     11306     11314     11317
     11308     11311     11317     11314     11308     11311     11317     11319
     11310     11308     11306     11314     11310     11308     11311     11313
     11310     11308     11311     11317     11311     11308     11306     11314
     11311     11317     11314     11316     11313     11311     11317     11314
     11313     11311     11317     11319     11316     11314     11317     11319
     11321     11326     11328     11330     11321     11326     11328     11331
     11321     11326     11334     11336     11321     11326     11334     11337
     11323     11321     11326     11328     11323     11321     11326     11334
     11324     11321     11326     11328     11324     11321     11326     11334
     11325     11321     11326     11328     11325     11321     11326     11334
     11326     11328     11331     11333     11326     11328     11331     11337
     11326     11334     11337     11331     11326     11334     11337     11339
     11328     11326     11334     11336     11328     11326     11334     11337
     11328     11331     11337     11334     11328     11331     11337     11339
     11330     11328     11326     11334     11330     11328     11331     11333
     11330     11328     11331     11337     11331     11328     11326     11334
     11331     11337     11334     11336     11333     11331     11337     11334
     11333     11331     11337     11339     11336     11334     11337     11339
     11341     11346     11348     11350     11341     11346     11348     11351
     11341     11346     11354     11356     11341     11346     11354     11357
     11343     11341     11346     11348     11343     11341     11346     11354
     11344     11341     11346     11348     11344     11341     11346     11354
     11345     11341     11346     11348     11345     11341     11346     11354
     11346     11348     11351     11353     11346     11348     11351     11357
     11346     11354     11357     11351     11346     11354     11357     11359
     11348     11346     11354     11356     11348     11346     11354     11357
     11348     11351     11357     11354     11348     11351     11357     11359
     11350     11348     11346     11354     11350     11348     11351     11353
     11350     11348     11351     11357     11351     11348     11346     11354
     11351     11357     11354     11356     11353     11351     11357     11354
     11353     11351     11357     11359     11356     11354     11357     11359
     11361     11366     11368     11370     11361     11366     11368     11371
     11361     11366     11374     11376     11361     11366     11374     11377
     11363     11361     11366     11368     11363     11361     11366     11374
     11364     11361     11366     11368     11364     11361     11366     11374
     11365     11361     11366     11368     11365     11361     11366     11374
     11366     11368     11371     11373     11366     11368     11371     11377
     11366     11374     11377     11371     11366     11374     11377     11379
     11368     11366     11374     11376     11368     11366     11374     11377
     11368     11371     11377     11374     11368     11371     11377     11379
     11370     11368     11366     11374     11370     11368     11371     11373
     11370     11368     11371     11377     11371     11368     11366     11374
     11371     11377     11374     11376     11373     11371     11377     11374
     11373     11371     11377     11379     11376     11374     11377     11379
     11381     11386     11388     11390     11381     11386     11388     11391
     11381     11386     11394     11396     11381     11386     11394     11397
     11383     11381     11386     11388     11383     11381     11386     11394
     11384     11381     11386     11388     11384     11381     11386     11394
     11385     11381     11386     11388     11385     11381     11386     11394
     11386     11388     11391     11393     11386     11388     11391     11397
     11386     11394     11397     11391     11386     11394     11397     11399
     11388     11386     11394     11396     11388     11386     11394     11397
     11388     11391     11397     11394     11388     11391     11397     11399
     11390     11388     11386     11394     11390     11388     11391     11393
     11390     11388     11391     11397     11391     11388     11386     11394
     11391     11397     11394     11396     11393     11391     11397     11394
     11393     11391     11397     11399     11396     11394     11397     11399
     11401     11406     11408     11410     11401     11406     11408     11411
     11401     11406     11414     11416     11401     11406     11414     11417
     11403     11401     11406     11408     11403     11401     11406     11414
     11404     11401     11406     11408     11404     11401     11406     11414
     11405     11401     11406     11408     11405     11401     11406     11414
     11406     11408     11411     11413     11406     11408     11411     11417
     11406     11414     11417     11411     11406     11414     11417     11419
     11408     11406     11414     11416     11408     11406     11414     11417
     11408     11411     11417     11414     11408     11411     11417     11419
     11410     11408     11406     11414     11410     11408     11411     11413
     11410     11408     11411     11417     11411     11408     11406     11414
     11411     11417     11414     11416     11413     11411     11417     11414
     11413     11411     11417     11419     11416     11414     11417     11419
     11421     11426     11428     11430     11421     11426     11428     11431
     11421     11426     11434     11436     11421     11426     11434     11437
     11423     11421     11426     11428     11423     11421     11426     11434
     11424     11421     11426     11428     11424     11421     11426     11434
     11425     11421     11426     11428     11425     11421     11426     11434
     11426     11428     11431     11433     11426     11428     11431     11437
     11426     11434     11437     11431     11426     11434     11437     11439
     11428     11426     11434     11436     11428     11426     11434     11437
     11428     11431     11437     11434     11428     11431     11437     11439
     11430     11428     11426     11434     11430     11428     11431     11433
     11430     11428     11431     11437     11431     11428     11426     11434
     11431     11437     11434     11436     11433     11431     11437     11434
     11433     11431     11437     11439     11436     11434     11437     11439
     11441     11446     11448     11450     11441     11446     11448     11451
     11441     11446     11454     11456     11441     11446     11454     11457
     11443     11441     11446     11448     11443     11441     11446     11454
     11444     11441     11446     11448     11444     11441     11446     11454
     11445     11441     11446     11448     11445     11441     11446     11454
     11446     11448     11451     11453     11446     11448     11451     11457
     11446     11454     11457     11451     11446     11454     11457     11459
     11448     11446     11454     11456     11448     11446     11454     11457
     11448     11451     11457     11454     11448     11451     11457     11459
     11450     11448     11446     11454     11450     11448     11451     11453
     11450     11448     11451     11457     11451     11448     11446     11454
     11451     11457     11454     11456     11453     11451     11457     11454
     11453     11451     11457     11459     11456     11454     11457     11459
     11461     11466     11468     11470     11461     11466     11468     11471
     11461     11466     11474     11476     11461     11466     11474     11477
     11463     11461     11466     11468     11463     11461     11466     11474
     11464     11461     11466     11468     11464     11461     11466     11474
     11465     11461     11466     11468     11465     11461     11466     11474
     11466     11468     11471     11473     11466     11468     11471     11477
     11466     11474     11477     11471     11466     11474     11477     11479
     11468     11466     11474     11476     11468     11466     11474     11477
     11468     11471     11477     11474     11468     11471     11477     11479
     11470     11468     11466     11474     11470     11468     11471     11473
     11470     11468     11471     11477     11471     11468     11466     11474
     11471     11477     11474     11476     11473     11471     11477     11474
     11473     11471     11477     11479     11476     11474     11477     11479
     11481     11486     11488     11490     11481     11486     11488     11491
     11481     11486     11494     11496     11481     11486     11494     11497
     11483     11481     11486     11488     11483     11481     11486     11494
     11484     11481     11486     11488     11484     11481     11486     11494
     11485     11481     11486     11488     11485     11481     11486     11494
     11486     11488     11491     11493     11486     11488     11491     11497
     11486     11494     11497     11491     11486     11494     11497     11499
     11488     11486     11494     11496     11488     11486     11494     11497
     11488     11491     11497     11494     11488     11491     11497     11499
     11490     11488     11486     11494     11490     11488     11491     11493
     11490     11488     11491     11497     11491     11488     11486     11494
     11491     11497     11494     11496     11493     11491     11497     11494
     11493     11491     11497     11499     11496     11494     11497     11499
     11501     11506     11508     11510     11501     11506     11508     11511
     11501     11506     11514     11516     11501     11506     11514     11517
     11503     11501     11506     11508     11503     11501     11506     11514
     11504     11501     11506     11508     11504     11501     11506     11514
     11505     11501     11506     11508     11505     11501     11506     11514
     11506     11508     11511     11513     11506     11508     11511     11517
     11506     11514     11517     11511     11506     11514     11517     11519
     11508     11506     11514     11516     11508     11506     11514     11517
     11508     11511     11517     11514     11508     11511     11517     11519
     11510     11508     11506     11514     11510     11508     11511     11513
     11510     11508     11511     11517     11511     11508     11506     11514
     11511     11517     11514     11516     11513     11511     11517     11514
     11513     11511     11517     11519     11516     11514     11517     11519
     11521     11526     11528     11530     11521     11526     11528     11531
     11521     11526     11534     11536     11521     11526     11534     11537
     11523     11521     11526     11528     11523     11521     11526     11534
     11524     11521     11526     11528     11524     11521     11526     11534
     11525     11521     11526     11528     11525     11521     11526     11534
     11526     11528     11531     11533     11526     11528     11531     11537
     11526     11534     11537     11531     11526     11534     11537     11539
     11528     11526     11534     11536     11528     11526     11534     11537
     11528     11531     11537     11534     11528     11531     11537     11539
     11530     11528     11526     11534     11530     11528     11531     11533
     11530     11528     11531     11537     11531     11528     11526     11534
     11531     11537     11534     11536     11533     11531     11537     11534
     11533     11531     11537     11539     11536     11534     11537     11539
     11541     11546     11548     11550     11541     11546     11548     11551
     11541     11546     11554     11556     11541     11546     11554     11557
     11543     11541     11546     11548     11543     11541     11546     11554
     11544     11541     11546     11548     11544     11541     11546     11554
     11545     11541     11546     11548     11545     11541     11546     11554
     11546     11548     11551     11553     11546     11548     11551     11557
     11546     11554     11557     11551     11546     11554     11557     11559
     11548     11546     11554     11556     11548     11546     11554     11557
     11548     11551     11557     11554     11548     11551     11557     11559
     11550     11548     11546     11554     11550     11548     11551     11553
     11550     11548     11551     11557     11551     11548     11546     11554
     11551     11557     11554     11556     11553     11551     11557     11554
     11553     11551     11557     11559     11556     11554     11557     11559
     11561     11566     11568     11570     11561     11566     11568     11571
     11561     11566     11574     11576     11561     11566     11574     11577
     11563     11561     11566     11568     11563     11561     11566     11574
     11564     11561     11566     11568     11564     11561     11566     11574
     11565     11561     11566     11568     11565     11561     11566     11574
     11566     11568     11571     11573     11566     11568     11571     11577
     11566     11574     11577     11571     11566     11574     11577     11579
     11568     11566     11574     11576     11568     11566     11574     11577
     11568     11571     11577     11574     11568     11571     11577     11579
     11570     11568     11566     11574     11570     11568     11571     11573
     11570     11568     11571     11577     11571     11568     11566     11574
     11571     11577     11574     11576     11573     11571     11577     11574
     11573     11571     11577     11579     11576     11574     11577     11579
     11581     11586     11588     11590     11581     11586     11588     11591
     11581     11586     11594     11596     11581     11586     11594     11597
     11583     11581     11586     11588     11583     11581     11586     11594
     11584     11581     11586     11588     11584     11581     11586     11594
     11585     11581     11586     11588     11585     11581     11586     11594
     11586     11588     11591     11593     11586     11588     11591     11597
     11586     11594     11597     11591     11586     11594     11597     11599
     11588     11586     11594     11596     11588     11586     11594     11597
     11588     11591     11597     11594     11588     11591     11597     11599
     11590     11588     11586     11594     11590     11588     11591     11593
     11590     11588     11591     11597     11591     11588     11586     11594
     11591     11597     11594     11596     11593     11591     11597     11594
     11593     11591     11597     11599     11596     11594     11597     11599
     11601     11606     11608     11610     11601     11606     11608     11611
     11601     11606     11614     11616     11601     11606     11614     11617
     11603     11601     11606     11608     11603     11601     11606     11614
     11604     11601     11606     11608     11604     11601     11606     11614
     11605     11601     11606     11608     11605     11601     11606     11614
     11606     11608     11611     11613     11606     11608     11611     11617
     11606     11614     11617     11611     11606     11614     11617     11619
     11608     11606     11614     11616     11608     11606     11614     11617
     11608     11611     11617     11614     11608     11611     11617     11619
     11610     11608     11606     11614     11610     11608     11611     11613
     11610     11608     11611     11617     11611     11608     11606     11614
     11611     11617     11614     11616     11613     11611     11617     11614
     11613     11611     11617     11619     11616     11614     11617     11619
     11621     11626     11628     11630     11621     11626     11628     11631
     11621     11626     11634     11636     11621     11626     11634     11637
     11623     11621     11626     11628     11623     11621     11626     11634
     11624     11621     11626     11628     11624     11621     11626     11634
     11625     11621     11626     11628     11625     11621     11626     11634
     11626     11628     11631     11633     11626     11628     11631     11637
     11626     11634     11637     11631     11626     11634     11637     11639
     11628     11626     11634     11636     11628     11626     11634     11637
     11628     11631     11637     11634     11628     11631     11637     11639
     11630     11628     11626     11634     11630     11628     11631     11633
     11630     11628     11631     11637     11631     11628     11626     11634
     11631     11637     11634     11636     11633     11631     11637     11634
     11633     11631     11637     11639     11636     11634     11637     11639
     11641     11646     11648     11650     11641     11646     11648     11651
     11641     11646     11654     11656     11641     11646     11654     11657
     11643     11641     11646     11648     11643     11641     11646     11654
     11644     11641     11646     11648     11644     11641     11646     11654
     11645     11641     11646     11648     11645     11641     11646     11654
     11646     11648     11651     11653     11646     11648     11651     11657
     11646     11654     11657     11651     11646     11654     11657     11659
     11648     11646     11654     11656     11648     11646     11654     11657
     11648     11651     11657     11654     11648     11651     11657     11659
     11650     11648     11646     11654     11650     11648     11651     11653
     11650     11648     11651     11657     11651     11648     11646     11654
     11651     11657     11654     11656     11653     11651     11657     11654
     11653     11651     11657     11659     11656     11654     11657     11659
     11661     11666     11668     11670     11661     11666     11668     11671
     11661     11666     11674     11676     11661     11666     11674     11677
     11663     11661     11666     11668     11663     11661     11666     11674
     11664     11661     11666     11668     11664     11661     11666     11674
     11665     11661     11666     11668     11665     11661     11666     11674
     11666     11668     11671     11673     11666     11668     11671     11677
     11666     11674     11677     11671     11666     11674     11677     11679
     11668     11666     11674     11676     11668     11666     11674     11677
     11668     11671     11677     11674     11668     11671     11677     11679
     11670     11668     11666     11674     11670     11668     11671     11673
     11670     11668     11671     11677     11671     11668     11666     11674
     11671     11677     11674     11676     11673     11671     11677     11674
     11673     11671     11677     11679     11676     11674     11677     11679
     11681     11686     11688     11690     11681     11686     11688     11691
     11681     11686     11694     11696     11681     11686     11694     11697
     11683     11681     11686     11688     11683     11681     11686     11694
     11684     11681     11686     11688     11684     11681     11686     11694
     11685     11681     11686     11688     11685     11681     11686     11694
     11686     11688     11691     11693     11686     11688     11691     11697
     11686     11694     11697     11691     11686     11694     11697     11699
     11688     11686     11694     11696     11688     11686     11694     11697
     11688     11691     11697     11694     11688     11691     11697     11699
     11690     11688     11686     11694     11690     11688     11691     11693
     11690     11688     11691     11697     11691     11688     11686     11694
     11691     11697     11694     11696     11693     11691     11697     11694
     11693     11691     11697     11699     11696     11694     11697     11699
     11701     11706     11708     11710     11701     11706     11708     11711
     11701     11706     11714     11716     11701     11706     11714     11717
     11703     11701     11706     11708     11703     11701     11706     11714
     11704     11701     11706     11708     11704     11701     11706     11714
     11705     11701     11706     11708     11705     11701     11706     11714
     11706     11708     11711     11713     11706     11708     11711     11717
     11706     11714     11717     11711     11706     11714     11717     11719
     11708     11706     11714     11716     11708     11706     11714     11717
     11708     11711     11717     11714     11708     11711     11717     11719
     11710     11708     11706     11714     11710     11708     11711     11713
     11710     11708     11711     11717     11711     11708     11706     11714
     11711     11717     11714     11716     11713     11711     11717     11714
     11713     11711     11717     11719     11716     11714     11717     11719
     11721     11726     11728     11730     11721     11726     11728     11731
     11721     11726     11734     11736     11721     11726     11734     11737
     11723     11721     11726     11728     11723     11721     11726     11734
     11724     11721     11726     11728     11724     11721     11726     11734
     11725     11721     11726     11728     11725     11721     11726     11734
     11726     11728     11731     11733     11726     11728     11731     11737
     11726     11734     11737     11731     11726     11734     11737     11739
     11728     11726     11734     11736     11728     11726     11734     11737
     11728     11731     11737     11734     11728     11731     11737     11739
     11730     11728     11726     11734     11730     11728     11731     11733
     11730     11728     11731     11737     11731     11728     11726     11734
     11731     11737     11734     11736     11733     11731     11737     11734
     11733     11731     11737     11739     11736     11734     11737     11739
     11741     11746     11748     11750     11741     11746     11748     11751
     11741     11746     11754     11756     11741     11746     11754     11757
     11743     11741     11746     11748     11743     11741     11746     11754
     11744     11741     11746     11748     11744     11741     11746     11754
     11745     11741     11746     11748     11745     11741     11746     11754
     11746     11748     11751     11753     11746     11748     11751     11757
     11746     11754     11757     11751     11746     11754     11757     11759
     11748     11746     11754     11756     11748     11746     11754     11757
     11748     11751     11757     11754     11748     11751     11757     11759
     11750     11748     11746     11754     11750     11748     11751     11753
     11750     11748     11751     11757     11751     11748     11746     11754
     11751     11757     11754     11756     11753     11751     11757     11754
     11753     11751     11757     11759     11756     11754     11757     11759
     11761     11766     11768     11770     11761     11766     11768     11771
     11761     11766     11774     11776     11761     11766     11774     11777
     11763     11761     11766     11768     11763     11761     11766     11774
     11764     11761     11766     11768     11764     11761     11766     11774
     11765     11761     11766     11768     11765     11761     11766     11774
     11766     11768     11771     11773     11766     11768     11771     11777
     11766     11774     11777     11771     11766     11774     11777     11779
     11768     11766     11774     11776     11768     11766     11774     11777
     11768     11771     11777     11774     11768     11771     11777     11779
     11770     11768     11766     11774     11770     11768     11771     11773
     11770     11768     11771     11777     11771     11768     11766     11774
     11771     11777     11774     11776     11773     11771     11777     11774
     11773     11771     11777     11779     11776     11774     11777     11779
     11781     11786     11788     11790     11781     11786     11788     11791
     11781     11786     11794     11796     11781     11786     11794     11797
     11783     11781     11786     11788     11783     11781     11786     11794
     11784     11781     11786     11788     11784     11781     11786     11794
     11785     11781     11786     11788     11785     11781     11786     11794
     11786     11788     11791     11793     11786     11788     11791     11797
     11786     11794     11797     11791     11786     11794     11797     11799
     11788     11786     11794     11796     11788     11786     11794     11797
     11788     11791     11797     11794     11788     11791     11797     11799
     11790     11788     11786     11794     11790     11788     11791     11793
     11790     11788     11791     11797     11791     11788     11786     11794
     11791     11797     11794     11796     11793     11791     11797     11794
     11793     11791     11797     11799     11796     11794     11797     11799
     11801     11806     11808     11810     11801     11806     11808     11811
     11801     11806     11814     11816     11801     11806     11814     11817
     11803     11801     11806     11808     11803     11801     11806     11814
     11804     11801     11806     11808     11804     11801     11806     11814
     11805     11801     11806     11808     11805     11801     11806     11814
     11806     11808     11811     11813     11806     11808     11811     11817
     11806     11814     11817     11811     11806     11814     11817     11819
     11808     11806     11814     11816     11808     11806     11814     11817
     11808     11811     11817     11814     11808     11811     11817     11819
     11810     11808     11806     11814     11810     11808     11811     11813
     11810     11808     11811     11817     11811     11808     11806     11814
     11811     11817     11814     11816     11813     11811     11817     11814
     11813     11811     11817     11819     11816     11814     11817     11819
     11821     11826     11828     11830     11821     11826     11828     11831
     11821     11826     11834     11836     11821     11826     11834     11837
     11823     11821     11826     11828     11823     11821     11826     11834
     11824     11821     11826     11828     11824     11821     11826     11834
     11825     11821     11826     11828     11825     11821     11826     11834
     11826     11828     11831     11833     11826     11828     11831     11837
     11826     11834     11837     11831     11826     11834     11837     11839
     11828     11826     11834     11836     11828     11826     11834     11837
     11828     11831     11837     11834     11828     11831     11837     11839
     11830     11828     11826     11834     11830     11828     11831     11833
     11830     11828     11831     11837     11831     11828     11826     11834
     11831     11837     11834     11836     11833     11831     11837     11834
     11833     11831     11837     11839     11836     11834     11837     11839
     11841     11846     11848     11850     11841     11846     11848     11851
     11841     11846     11854     11856     11841     11846     11854     11857
     11843     11841     11846     11848     11843     11841     11846     11854
     11844     11841     11846     11848     11844     11841     11846     11854
     11845     11841     11846     11848     11845     11841     11846     11854
     11846     11848     11851     11853     11846     11848     11851     11857
     11846     11854     11857     11851     11846     11854     11857     11859
     11848     11846     11854     11856     11848     11846     11854     11857
     11848     11851     11857     11854     11848     11851     11857     11859
     11850     11848     11846     11854     11850     11848     11851     11853
     11850     11848     11851     11857     11851     11848     11846     11854
     11851     11857     11854     11856     11853     11851     11857     11854
     11853     11851     11857     11859     11856     11854     11857     11859
     11861     11866     11868     11870     11861     11866     11868     11871
     11861     11866     11874     11876     11861     11866     11874     11877
     11863     11861     11866     11868     11863     11861     11866     11874
     11864     11861     11866     11868     11864     11861     11866     11874
     11865     11861     11866     11868     11865     11861     11866     11874
     11866     11868     11871     11873     11866     11868     11871     11877
     11866     11874     11877     11871     11866     11874     11877     11879
     11868     11866     11874     11876     11868     11866     11874     11877
     11868     11871     11877     11874     11868     11871     11877     11879
     11870     11868     11866     11874     11870     11868     11871     11873
     11870     11868     11871     11877     11871     11868     11866     11874
     11871     11877     11874     11876     11873     11871     11877     11874
     11873     11871     11877     11879     11876     11874     11877     11879
     11881     11886     11888     11890     11881     11886     11888     11891
     11881     11886     11894     11896     11881     11886     11894     11897
     11883     11881     11886     11888     11883     11881     11886     11894
     11884     11881     11886     11888     11884     11881     11886     11894
     11885     11881     11886     11888     11885     11881     11886     11894
     11886     11888     11891     11893     11886     11888     11891     11897
     11886     11894     11897     11891     11886     11894     11897     11899
     11888     11886     11894     11896     11888     11886     11894     11897
     11888     11891     11897     11894     11888     11891     11897     11899
     11890     11888     11886     11894     11890     11888     11891     11893
     11890     11888     11891     11897     11891     11888     11886     11894
     11891     11897     11894     11896     11893     11891     11897     11894
     11893     11891     11897     11899     11896     11894     11897     11899
     11901     11906     11908     11910     11901     11906     11908     11911
     11901     11906     11914     11916     11901     11906     11914     11917
     11903     11901     11906     11908     11903     11901     11906     11914
     11904     11901     11906     11908     11904     11901     11906     11914
     11905     11901     11906     11908     11905     11901     11906     11914
     11906     11908     11911     11913     11906     11908     11911     11917
     11906     11914     11917     11911     11906     11914     11917     11919
     11908     11906     11914     11916     11908     11906     11914     11917
     11908     11911     11917     11914     11908     11911     11917     11919
     11910     11908     11906     11914     11910     11908     11911     11913
     11910     11908     11911     11917     11911     11908     11906     11914
     11911     11917     11914     11916     11913     11911     11917     11914
     11913     11911     11917     11919     11916     11914     11917     11919
     11921     11926     11928     11930     11921     11926     11928     11931
     11921     11926     11934     11936     11921     11926     11934     11937
     11923     11921     11926     11928     11923     11921     11926     11934
     11924     11921     11926     11928     11924     11921     11926     11934
     11925     11921     11926     11928     11925     11921     11926     11934
     11926     11928     11931     11933     11926     11928     11931     11937
     11926     11934     11937     11931     11926     11934     11937     11939
     11928     11926     11934     11936     11928     11926     11934     11937
     11928     11931     11937     11934     11928     11931     11937     11939
     11930     11928     11926     11934     11930     11928     11931     11933
     11930     11928     11931     11937     11931     11928     11926     11934
     11931     11937     11934     11936     11933     11931     11937     11934
     11933     11931     11937     11939     11936     11934     11937     11939
     11941     11946     11948     11950     11941     11946     11948     11951
     11941     11946     11954     11956     11941     11946     11954     11957
     11943     11941     11946     11948     11943     11941     11946     11954
     11944     11941     11946     11948     11944     11941     11946     11954
     11945     11941     11946     11948     11945     11941     11946     11954
     11946     11948     11951     11953     11946     11948     11951     11957
     11946     11954     11957     11951     11946     11954     11957     11959
     11948     11946     11954     11956     11948     11946     11954     11957
     11948     11951     11957     11954     11948     11951     11957     11959
     11950     11948     11946     11954     11950     11948     11951     11953
     11950     11948     11951     11957     11951     11948     11946     11954
     11951     11957     11954     11956     11953     11951     11957     11954
     11953     11951     11957     11959     11956     11954     11957     11959
     11961     11966     11968     11970     11961     11966     11968     11971
     11961     11966     11974     11976     11961     11966     11974     11977
     11963     11961     11966     11968     11963     11961     11966     11974
     11964     11961     11966     11968     11964     11961     11966     11974
     11965     11961     11966     11968     11965     11961     11966     11974
     11966     11968     11971     11973     11966     11968     11971     11977
     11966     11974     11977     11971     11966     11974     11977     11979
     11968     11966     11974     11976     11968     11966     11974     11977
     11968     11971     11977     11974     11968     11971     11977     11979
     11970     11968     11966     11974     11970     11968     11971     11973
     11970     11968     11971     11977     11971     11968     11966     11974
     11971     11977     11974     11976     11973     11971     11977     11974
     11973     11971     11977     11979     11976     11974     11977     11979
     11981     11986     11988     11990     11981     11986     11988     11991
     11981     11986     11994     11996     11981     11986     11994     11997
     11983     11981     11986     11988     11983     11981     11986     11994
     11984     11981     11986     11988     11984     11981     11986     11994
     11985     11981     11986     11988     11985     11981     11986     11994
     11986     11988     11991     11993     11986     11988     11991     11997
     11986     11994     11997     11991     11986     11994     11997     11999
     11988     11986     11994     11996     11988     11986     11994     11997
     11988     11991     11997     11994     11988     11991     11997     11999
     11990     11988     11986     11994     11990     11988     11991     11993
     11990     11988     11991     11997     11991     11988     11986     11994
     11991     11997     11994     11996     11993     11991     11997     11994
     11993     11991     11997     11999     11996     11994     11997     11999
     12001     12006     12008     12010     12001     12006     12008     12011
     12001     12006     12014     12016     12001     12006     12014     12017
     12003     12001     12006     12008     12003     12001     12006     12014
     12004     12001     12006     12008     12004     12001     12006     12014
     12005     12001     12006     12008     12005     12001     12006     12014
     12006     12008     12011     12013     12006     12008     12011     12017
     12006     12014     12017     12011     12006     12014     12017     12019
     12008     12006     12014     12016     12008     12006     12014     12017
     12008     12011     12017     12014     12008     12011     12017     12019
     12010     12008     12006     12014     12010     12008     12011     12013
     12010     12008     12011     12017     12011     12008     12006     12014
     12011     12017     12014     12016     12013     12011     12017     12014
     12013     12011     12017     12019     12016     12014     12017     12019
     12021     12026     12028     12030     12021     12026     12028     12031
     12021     12026     12034     12036     12021     12026     12034     12037
     12023     12021     12026     12028     12023     12021     12026     12034
     12024     12021     12026     12028     12024     12021     12026     12034
     12025     12021     12026     12028     12025     12021     12026     12034
     12026     12028     12031     12033     12026     12028     12031     12037
     12026     12034     12037     12031     12026     12034     12037     12039
     12028     12026     12034     12036     12028     12026     12034     12037
     12028     12031     12037     12034     12028     12031     12037     12039
     12030     12028     12026     12034     12030     12028     12031     12033
     12030     12028     12031     12037     12031     12028     12026     12034
     12031     12037     12034     12036     12033     12031     12037     12034
     12033     12031     12037     12039     12036     12034     12037     12039
     12041     12046     12048     12050     12041     12046     12048     12051
     12041     12046     12054     12056     12041     12046     12054     12057
     12043     12041     12046     12048     12043     12041     12046     12054
     12044     12041     12046     12048     12044     12041     12046     12054
     12045     12041     12046     12048     12045     12041     12046     12054
     12046     12048     12051     12053     12046     12048     12051     12057
     12046     12054     12057     12051     12046     12054     12057     12059
     12048     12046     12054     12056     12048     12046     12054     12057
     12048     12051     12057     12054     12048     12051     12057     12059
     12050     12048     12046     12054     12050     12048     12051     12053
     12050     12048     12051     12057     12051     12048     12046     12054
     12051     12057     12054     12056     12053     12051     12057     12054
     12053     12051     12057     12059     12056     12054     12057     12059
     12061     12066     12068     12070     12061     12066     12068     12071
     12061     12066     12074     12076     12061     12066     12074     12077
     12063     12061     12066     12068     12063     12061     12066     12074
     12064     12061     12066     12068     12064     12061     12066     12074
     12065     12061     12066     12068     12065     12061     12066     12074
     12066     12068     12071     12073     12066     12068     12071     12077
     12066     12074     12077     12071     12066     12074     12077     12079
     12068     12066     12074     12076     12068     12066     12074     12077
     12068     12071     12077     12074     12068     12071     12077     12079
     12070     12068     12066     12074     12070     12068     12071     12073
     12070     12068     12071     12077     12071     12068     12066     12074
     12071     12077     12074     12076     12073     12071     12077     12074
     12073     12071     12077     12079     12076     12074     12077     12079
     12081     12086     12088     12090     12081     12086     12088     12091
     12081     12086     12094     12096     12081     12086     12094     12097
     12083     12081     12086     12088     12083     12081     12086     12094
     12084     12081     12086     12088     12084     12081     12086     12094
     12085     12081     12086     12088     12085     12081     12086     12094
     12086     12088     12091     12093     12086     12088     12091     12097
     12086     12094     12097     12091     12086     12094     12097     12099
     12088     12086     12094     12096     12088     12086     12094     12097
     12088     12091     12097     12094     12088     12091     12097     12099
     12090     12088     12086     12094     12090     12088     12091     12093
     12090     12088     12091     12097     12091     12088     12086     12094
     12091     12097     12094     12096     12093     12091     12097     12094
     12093     12091     12097     12099     12096     12094     12097     12099
     12101     12106     12108     12110     12101     12106     12108     12111
     12101     12106     12114     12116     12101     12106     12114     12117
     12103     12101     12106     12108     12103     12101     12106     12114
     12104     12101     12106     12108     12104     12101     12106     12114
     12105     12101     12106     12108     12105     12101     12106     12114
     12106     12108     12111     12113     12106     12108     12111     12117
     12106     12114     12117     12111     12106     12114     12117     12119
     12108     12106     12114     12116     12108     12106     12114     12117
     12108     12111     12117     12114     12108     12111     12117     12119
     12110     12108     12106     12114     12110     12108     12111     12113
     12110     12108     12111     12117     12111     12108     12106     12114
     12111     12117     12114     12116     12113     12111     12117     12114
     12113     12111     12117     12119     12116     12114     12117     12119
     12121     12126     12128     12130     12121     12126     12128     12131
     12121     12126     12134     12136     12121     12126     12134     12137
     12123     12121     12126     12128     12123     12121     12126     12134
     12124     12121     12126     12128     12124     12121     12126     12134
     12125     12121     12126     12128     12125     12121     12126     12134
     12126     12128     12131     12133     12126     12128     12131     12137
     12126     12134     12137     12131     12126     12134     12137     12139
     12128     12126     12134     12136     12128     12126     12134     12137
     12128     12131     12137     12134     12128     12131     12137     12139
     12130     12128     12126     12134     12130     12128     12131     12133
     12130     12128     12131     12137     12131     12128     12126     12134
     12131     12137     12134     12136     12133     12131     12137     12134
     12133     12131     12137     12139     12136     12134     12137     12139
     12141     12146     12148     12150     12141     12146     12148     12151
     12141     12146     12154     12156     12141     12146     12154     12157
     12143     12141     12146     12148     12143     12141     12146     12154
     12144     12141     12146     12148     12144     12141     12146     12154
     12145     12141     12146     12148     12145     12141     12146     12154
     12146     12148     12151     12153     12146     12148     12151     12157
     12146     12154     12157     12151     12146     12154     12157     12159
     12148     12146     12154     12156     12148     12146     12154     12157
     12148     12151     12157     12154     12148     12151     12157     12159
     12150     12148     12146     12154     12150     12148     12151     12153
     12150     12148     12151     12157     12151     12148     12146     12154
     12151     12157     12154     12156     12153     12151     12157     12154
     12153     12151     12157     12159     12156     12154     12157     12159
     12161     12166     12168     12170     12161     12166     12168     12171
     12161     12166     12174     12176     12161     12166     12174     12177
     12163     12161     12166     12168     12163     12161     12166     12174
     12164     12161     12166     12168     12164     12161     12166     12174
     12165     12161     12166     12168     12165     12161     12166     12174
     12166     12168     12171     12173     12166     12168     12171     12177
     12166     12174     12177     12171     12166     12174     12177     12179
     12168     12166     12174     12176     12168     12166     12174     12177
     12168     12171     12177     12174     12168     12171     12177     12179
     12170     12168     12166     12174     12170     12168     12171     12173
     12170     12168     12171     12177     12171     12168     12166     12174
     12171     12177     12174     12176     12173     12171     12177     12174
     12173     12171     12177     12179     12176     12174     12177     12179
     12181     12186     12188     12190     12181     12186     12188     12191
     12181     12186     12194     12196     12181     12186     12194     12197
     12183     12181     12186     12188     12183     12181     12186     12194
     12184     12181     12186     12188     12184     12181     12186     12194
     12185     12181     12186     12188     12185     12181     12186     12194
     12186     12188     12191     12193     12186     12188     12191     12197
     12186     12194     12197     12191     12186     12194     12197     12199
     12188     12186     12194     12196     12188     12186     12194     12197
     12188     12191     12197     12194     12188     12191     12197     12199
     12190     12188     12186     12194     12190     12188     12191     12193
     12190     12188     12191     12197     12191     12188     12186     12194
     12191     12197     12194     12196     12193     12191     12197     12194
     12193     12191     12197     12199     12196     12194     12197     12199
     12201     12206     12208     12210     12201     12206     12208     12211
     12201     12206     12214     12216     12201     12206     12214     12217
     12203     12201     12206     12208     12203     12201     12206     12214
     12204     12201     12206     12208     12204     12201     12206     12214
     12205     12201     12206     12208     12205     12201     12206     12214
     12206     12208     12211     12213     12206     12208     12211     12217
     12206     12214     12217     12211     12206     12214     12217     12219
     12208     12206     12214     12216     12208     12206     12214     12217
     12208     12211     12217     12214     12208     12211     12217     12219
     12210     12208     12206     12214     12210     12208     12211     12213
     12210     12208     12211     12217     12211     12208     12206     12214
     12211     12217     12214     12216     12213     12211     12217     12214
     12213     12211     12217     12219     12216     12214     12217     12219
     12221     12226     12228     12230     12221     12226     12228     12231
     12221     12226     12234     12236     12221     12226     12234     12237
     12223     12221     12226     12228     12223     12221     12226     12234
     12224     12221     12226     12228     12224     12221     12226     12234
     12225     12221     12226     12228     12225     12221     12226     12234
     12226     12228     12231     12233     12226     12228     12231     12237
     12226     12234     12237     12231     12226     12234     12237     12239
     12228     12226     12234     12236     12228     12226     12234     12237
     12228     12231     12237     12234     12228     12231     12237     12239
     12230     12228     12226     12234     12230     12228     12231     12233
     12230     12228     12231     12237     12231     12228     12226     12234
     12231     12237     12234     12236     12233     12231     12237     12234
     12233     12231     12237     12239     12236     12234     12237     12239
     12241     12246     12248     12250     12241     12246     12248     12251
     12241     12246     12254     12256     12241     12246     12254     12257
     12243     12241     12246     12248     12243     12241     12246     12254
     12244     12241     12246     12248     12244     12241     12246     12254
     12245     12241     12246     12248     12245     12241     12246     12254
     12246     12248     12251     12253     12246     12248     12251     12257
     12246     12254     12257     12251     12246     12254     12257     12259
     12248     12246     12254     12256     12248     12246     12254     12257
     12248     12251     12257     12254     12248     12251     12257     12259
     12250     12248     12246     12254     12250     12248     12251     12253
     12250     12248     12251     12257     12251     12248     12246     12254
     12251     12257     12254     12256     12253     12251     12257     12254
     12253     12251     12257     12259     12256     12254     12257     12259
     12261     12266     12268     12270     12261     12266     12268     12271
     12261     12266     12274     12276     12261     12266     12274     12277
     12263     12261     12266     12268     12263     12261     12266     12274
     12264     12261     12266     12268     12264     12261     12266     12274
     12265     12261     12266     12268     12265     12261     12266     12274
     12266     12268     12271     12273     12266     12268     12271     12277
     12266     12274     12277     12271     12266     12274     12277     12279
     12268     12266     12274     12276     12268     12266     12274     12277
     12268     12271     12277     12274     12268     12271     12277     12279
     12270     12268     12266     12274     12270     12268     12271     12273
     12270     12268     12271     12277     12271     12268     12266     12274
     12271     12277     12274     12276     12273     12271     12277     12274
     12273     12271     12277     12279     12276     12274     12277     12279
     12281     12286     12288     12290     12281     12286     12288     12291
     12281     12286     12294     12296     12281     12286     12294     12297
     12283     12281     12286     12288     12283     12281     12286     12294
     12284     12281     12286     12288     12284     12281     12286     12294
     12285     12281     12286     12288     12285     12281     12286     12294
     12286     12288     12291     12293     12286     12288     12291     12297
     12286     12294     12297     12291     12286     12294     12297     12299
     12288     12286     12294     12296     12288     12286     12294     12297
     12288     12291     12297     12294     12288     12291     12297     12299
     12290     12288     12286     12294     12290     12288     12291     12293
     12290     12288     12291     12297     12291     12288     12286     12294
     12291     12297     12294     12296     12293     12291     12297     12294
     12293     12291     12297     12299     12296     12294     12297     12299
     12301     12306     12308     12310     12301     12306     12308     12311
     12301     12306     12314     12316     12301     12306     12314     12317
     12303     12301     12306     12308     12303     12301     12306     12314
     12304     12301     12306     12308     12304     12301     12306     12314
     12305     12301     12306     12308     12305     12301     12306     12314
     12306     12308     12311     12313     12306     12308     12311     12317
     12306     12314     12317     12311     12306     12314     12317     12319
     12308     12306     12314     12316     12308     12306     12314     12317
     12308     12311     12317     12314     12308     12311     12317     12319
     12310     12308     12306     12314     12310     12308     12311     12313
     12310     12308     12311     12317     12311     12308     12306     12314
     12311     12317     12314     12316     12313     12311     12317     12314
     12313     12311     12317     12319     12316     12314     12317     12319
     12321     12326     12328     12330     12321     12326     12328     12331
     12321     12326     12334     12336     12321     12326     12334     12337
     12323     12321     12326     12328     12323     12321     12326     12334
     12324     12321     12326     12328     12324     12321     12326     12334
     12325     12321     12326     12328     12325     12321     12326     12334
     12326     12328     12331     12333     12326     12328     12331     12337
     12326     12334     12337     12331     12326     12334     12337     12339
     12328     12326     12334     12336     12328     12326     12334     12337
     12328     12331     12337     12334     12328     12331     12337     12339
     12330     12328     12326     12334     12330     12328     12331     12333
     12330     12328     12331     12337     12331     12328     12326     12334
     12331     12337     12334     12336     12333     12331     12337     12334
     12333     12331     12337     12339     12336     12334     12337     12339
     12341     12346     12348     12350     12341     12346     12348     12351
     12341     12346     12354     12356     12341     12346     12354     12357
     12343     12341     12346     12348     12343     12341     12346     12354
     12344     12341     12346     12348     12344     12341     12346     12354
     12345     12341     12346     12348     12345     12341     12346     12354
     12346     12348     12351     12353     12346     12348     12351     12357
     12346     12354     12357     12351     12346     12354     12357     12359
     12348     12346     12354     12356     12348     12346     12354     12357
     12348     12351     12357     12354     12348     12351     12357     12359
     12350     12348     12346     12354     12350     12348     12351     12353
     12350     12348     12351     12357     12351     12348     12346     12354
     12351     12357     12354     12356     12353     12351     12357     12354
     12353     12351     12357     12359     12356     12354     12357     12359
     12361     12366     12368     12370     12361     12366     12368     12371
     12361     12366     12374     12376     12361     12366     12374     12377
     12363     12361     12366     12368     12363     12361     12366     12374
     12364     12361     12366     12368     12364     12361     12366     12374
     12365     12361     12366     12368     12365     12361     12366     12374
     12366     12368     12371     12373     12366     12368     12371     12377
     12366     12374     12377     12371     12366     12374     12377     12379
     12368     12366     12374     12376     12368     12366     12374     12377
     12368     12371     12377     12374     12368     12371     12377     12379
     12370     12368     12366     12374     12370     12368     12371     12373
     12370     12368     12371     12377     12371     12368     12366     12374
     12371     12377     12374     12376     12373     12371     12377     12374
     12373     12371     12377     12379     12376     12374     12377     12379
     12381     12386     12388     12390     12381     12386     12388     12391
     12381     12386     12394     12396     12381     12386     12394     12397
     12383     12381     12386     12388     12383     12381     12386     12394
     12384     12381     12386     12388     12384     12381     12386     12394
     12385     12381     12386     12388     12385     12381     12386     12394
     12386     12388     12391     12393     12386     12388     12391     12397
     12386     12394     12397     12391     12386     12394     12397     12399
     12388     12386     12394     12396     12388     12386     12394     12397
     12388     12391     12397     12394     12388     12391     12397     12399
     12390     12388     12386     12394     12390     12388     12391     12393
     12390     12388     12391     12397     12391     12388     12386     12394
     12391     12397     12394     12396     12393     12391     12397     12394
     12393     12391     12397     12399     12396     12394     12397     12399
     12401     12406     12408     12410     12401     12406     12408     12411
     12401     12406     12414     12416     12401     12406     12414     12417
     12403     12401     12406     12408     12403     12401     12406     12414
     12404     12401     12406     12408     12404     12401     12406     12414
     12405     12401     12406     12408     12405     12401     12406     12414
     12406     12408     12411     12413     12406     12408     12411     12417
     12406     12414     12417     12411     12406     12414     12417     12419
     12408     12406     12414     12416     12408     12406     12414     12417
     12408     12411     12417     12414     12408     12411     12417     12419
     12410     12408     12406     12414     12410     12408     12411     12413
     12410     12408     12411     12417     12411     12408     12406     12414
     12411     12417     12414     12416     12413     12411     12417     12414
     12413     12411     12417     12419     12416     12414     12417     12419
     12421     12426     12428     12430     12421     12426     12428     12431
     12421     12426     12434     12436     12421     12426     12434     12437
     12423     12421     12426     12428     12423     12421     12426     12434
     12424     12421     12426     12428     12424     12421     12426     12434
     12425     12421     12426     12428     12425     12421     12426     12434
     12426     12428     12431     12433     12426     12428     12431     12437
     12426     12434     12437     12431     12426     12434     12437     12439
     12428     12426     12434     12436     12428     12426     12434     12437
     12428     12431     12437     12434     12428     12431     12437     12439
     12430     12428     12426     12434     12430     12428     12431     12433
     12430     12428     12431     12437     12431     12428     12426     12434
     12431     12437     12434     12436     12433     12431     12437     12434
     12433     12431     12437     12439     12436     12434     12437     12439
     12441     12446     12448     12450     12441     12446     12448     12451
     12441     12446     12454     12456     12441     12446     12454     12457
     12443     12441     12446     12448     12443     12441     12446     12454
     12444     12441     12446     12448     12444     12441     12446     12454
     12445     12441     12446     12448     12445     12441     12446     12454
     12446     12448     12451     12453     12446     12448     12451     12457
     12446     12454     12457     12451     12446     12454     12457     12459
     12448     12446     12454     12456     12448     12446     12454     12457
     12448     12451     12457     12454     12448     12451     12457     12459
     12450     12448     12446     12454     12450     12448     12451     12453
     12450     12448     12451     12457     12451     12448     12446     12454
     12451     12457     12454     12456     12453     12451     12457     12454
     12453     12451     12457     12459     12456     12454     12457     12459
     12461     12466     12468     12470     12461     12466     12468     12471
     12461     12466     12474     12476     12461     12466     12474     12477
     12463     12461     12466     12468     12463     12461     12466     12474
     12464     12461     12466     12468     12464     12461     12466     12474
     12465     12461     12466     12468     12465     12461     12466     12474
     12466     12468     12471     12473     12466     12468     12471     12477
     12466     12474     12477     12471     12466     12474     12477     12479
     12468     12466     12474     12476     12468     12466     12474     12477
     12468     12471     12477     12474     12468     12471     12477     12479
     12470     12468     12466     12474     12470     12468     12471     12473
     12470     12468     12471     12477     12471     12468     12466     12474
     12471     12477     12474     12476     12473     12471     12477     12474
     12473     12471     12477     12479     12476     12474     12477     12479
     12481     12486     12488     12490     12481     12486     12488     12491
     12481     12486     12494     12496     12481     12486     12494     12497
     12483     12481     12486     12488     12483     12481     12486     12494
     12484     12481     12486     12488     12484     12481     12486     12494
     12485     12481     12486     12488     12485     12481     12486     12494
     12486     12488     12491     12493     12486     12488     12491     12497
     12486     12494     12497     12491     12486     12494     12497     12499
     12488     12486     12494     12496     12488     12486     12494     12497
     12488     12491     12497     12494     12488     12491     12497     12499
     12490     12488     12486     12494     12490     12488     12491     12493
     12490     12488     12491     12497     12491     12488     12486     12494
     12491     12497     12494     12496     12493     12491     12497     12494
     12493     12491     12497     12499     12496     12494     12497     12499
     12501     12506     12508     12510     12501     12506     12508     12511
     12501     12506     12514     12516     12501     12506     12514     12517
     12503     12501     12506     12508     12503     12501     12506     12514
     12504     12501     12506     12508     12504     12501     12506     12514
     12505     12501     12506     12508     12505     12501     12506     12514
     12506     12508     12511     12513     12506     12508     12511     12517
     12506     12514     12517     12511     12506     12514     12517     12519
     12508     12506     12514     12516     12508     12506     12514     12517
     12508     12511     12517     12514     12508     12511     12517     12519
     12510     12508     12506     12514     12510     12508     12511     12513
     12510     12508     12511     12517     12511     12508     12506     12514
     12511     12517     12514     12516     12513     12511     12517     12514
     12513     12511     12517     12519     12516     12514     12517     12519
     12521     12526     12528     12530     12521     12526     12528     12531
     12521     12526     12534     12536     12521     12526     12534     12537
     12523     12521     12526     12528     12523     12521     12526     12534
     12524     12521     12526     12528     12524     12521     12526     12534
     12525     12521     12526     12528     12525     12521     12526     12534
     12526     12528     12531     12533     12526     12528     12531     12537
     12526     12534     12537     12531     12526     12534     12537     12539
     12528     12526     12534     12536     12528     12526     12534     12537
     12528     12531     12537     12534     12528     12531     12537     12539
     12530     12528     12526     12534     12530     12528     12531     12533
     12530     12528     12531     12537     12531     12528     12526     12534
     12531     12537     12534     12536     12533     12531     12537     12534
     12533     12531     12537     12539     12536     12534     12537     12539
     12543     12541     12550     12552     12545     12543     12541     12548
     12545     12543     12541     12550     12546     12543     12541     12548
     12546     12543     12541     12550     12547     12543     12541     12548
     12547     12543     12541     12550     12548     12541     12550     12552
     12559     12557     12566     12568     12561     12559     12557     12564
     12561     12559     12557     12566     12562     12559     12557     12564
     12562     12559     12557     12566     12563     12559     12557     12564
     12563     12559     12557     12566     12564     12557     12566     12568
     12575     12573     12582     12584     12577     12575     12573     12580
     12577     12575     12573     12582     12578     12575     12573     12580
     12578     12575     12573     12582     12579     12575     12573     12580
     12579     12575     12573     12582     12580     12573     12582     12584
     12591     12589     12598     12600     12593     12591     12589     12596
     12593     12591     12589     12598     12594     12591     12589     12596
     12594     12591     12589     12598     12595     12591     12589     12596
     12595     12591     12589     12598     12596     12589     12598     12600
     12607     12605     12614     12616     12609     12607     12605     12612
     12609     12607     12605     12614     12610     12607     12605     12612
     12610     12607     12605     12614     12611     12607     12605     12612
     12611     12607     12605     12614     12612     12605     12614     12616
     12623     12621     12630     12632     12625     12623     12621     12628
     12625     12623     12621     12630     12626     12623     12621     12628
     12626     12623     12621     12630     12627     12623     12621     12628
     12627     12623     12621     12630     12628     12621     12630     12632
     12639     12637     12646     12648     12641     12639     12637     12644
     12641     12639     12637     12646     12642     12639     12637     12644
     12642     12639     12637     12646     12643     12639     12637     12644
     12643     12639     12637     12646     12644     12637     12646     12648
     12655     12653     12662     12664     12657     12655     12653     12660
     12657     12655     12653     12662     12658     12655     12653     12660
     12658     12655     12653     12662     12659     12655     12653     12660
     12659     12655     12653     12662     12660     12653     12662     12664
     12671     12669     12678     12680     12673     12671     12669     12676
     12673     12671     12669     12678     12674     12671     12669     12676
     12674     12671     12669     12678     12675     12671     12669     12676
     12675     12671     12669     12678     12676     12669     12678     12680
     12687     12685     12694     12696     12689     12687     12685     12692
     12689     12687     12685     12694     12690     12687     12685     12692
     12690     12687     12685     12694     12691     12687     12685     12692
     12691     12687     12685     12694     12692     12685     12694     12696
     12703     12701     12710     12712     12705     12703     12701     12708
     12705     12703     12701     12710     12706     12703     12701     12708
     12706     12703     12701     12710     12707     12703     12701     12708
     12707     12703     12701     12710     12708     12701     12710     12712
     12719     12717     12726     12728     12721     12719     12717     12724
     12721     12719     12717     12726     12722     12719     12717     12724
     12722     12719     12717     12726     12723     12719     12717     12724
     12723     12719     12717     12726     12724     12717     12726     12728
     12735     12733     12742     12744     12737     12735     12733     12740
     12737     12735     12733     12742     12738     12735     12733     12740
     12738     12735     12733     12742     12739     12735     12733     12740
     12739     12735     12733     12742     12740     12733     12742     12744
     12751     12749     12758     12760     12753     12751     12749     12756
     12753     12751     12749     12758     12754     12751     12749     12756
     12754     12751     12749     12758     12755     12751     12749     12756
     12755     12751     12749     12758     12756     12749     12758     12760
     12767     12765     12774     12776     12769     12767     12765     12772
     12769     12767     12765     12774     12770     12767     12765     12772
     12770     12767     12765     12774     12771     12767     12765     12772
     12771     12767     12765     12774     12772     12765     12774     12776
     12783     12781     12790     12792     12785     12783     12781     12788
     12785     12783     12781     12790     12786     12783     12781     12788
     12786     12783     12781     12790     12787     12783     12781     12788
     12787     12783     12781     12790     12788     12781     12790     12792
     12799     12797     12806     12808     12801     12799     12797     12804
     12801     12799     12797     12806     12802     12799     12797     12804
     12802     12799     12797     12806     12803     12799     12797     12804
     12803     12799     12797     12806     12804     12797     12806     12808
     12815     12813     12822     12824     12817     12815     12813     12820
     12817     12815     12813     12822     12818     12815     12813     12820
     12818     12815     12813     12822     12819     12815     12813     12820
     12819     12815     12813     12822     12820     12813     12822     12824
     12831     12829     12838     12840     12833     12831     12829     12836
     12833     12831     12829     12838     12834     12831     12829     12836
     12834     12831     12829     12838     12835     12831     12829     12836
     12835     12831     12829     12838     12836     12829     12838     12840
     12847     12845     12854     12856     12849     12847     12845     12852
     12849     12847     12845     12854     12850     12847     12845     12852
     12850     12847     12845     12854     12851     12847     12845     12852
     12851     12847     12845     12854     12852     12845     12854     12856
     12863     12861     12870     12872     12865     12863     12861     12868
     12865     12863     12861     12870     12866     12863     12861     12868
     12866     12863     12861     12870     12867     12863     12861     12868
     12867     12863     12861     12870     12868     12861     12870     12872
     12879     12877     12886     12888     12881     12879     12877     12884
     12881     12879     12877     12886     12882     12879     12877     12884
     12882     12879     12877     12886     12883     12879     12877     12884
     12883     12879     12877     12886     12884     12877     12886     12888
     12895     12893     12902     12904     12897     12895     12893     12900
     12897     12895     12893     12902     12898     12895     12893     12900
     12898     12895     12893     12902     12899     12895     12893     12900
     12899     12895     12893     12902     12900     12893     12902     12904
     12911     12909     12918     12920     12913     12911     12909     12916
     12913     12911     12909     12918     12914     12911     12909     12916
     12914     12911     12909     12918     12915     12911     12909     12916
     12915     12911     12909     12918     12916     12909     12918     12920
     12927     12925     12934     12936     12929     12927     12925     12932
     12929     12927     12925     12934     12930     12927     12925     12932
     12930     12927     12925     12934     12931     12927     12925     12932
     12931     12927     12925     12934     12932     12925     12934     12936
     12943     12941     12950     12952     12945     12943     12941     12948
     12945     12943     12941     12950     12946     12943     12941     12948
     12946     12943     12941     12950     12947     12943     12941     12948
     12947     12943     12941     12950     12948     12941     12950     12952
     12959     12957     12966     12968     12961     12959     12957     12964
     12961     12959     12957     12966     12962     12959     12957     12964
     12962     12959     12957     12966     12963     12959     12957     12964
     12963     12959     12957     12966     12964     12957     12966     12968
     12975     12973     12982     12984     12977     12975     12973     12980
     12977     12975     12973     12982     12978     12975     12973     12980
     12978     12975     12973     12982     12979     12975     12973     12980
     12979     12975     12973     12982     12980     12973     12982     12984
     12991     12989     12998     13000     12993     12991     12989     12996
     12993     12991     12989     12998     12994     12991     12989     12996
     12994     12991     12989     12998     12995     12991     12989     12996
     12995     12991     12989     12998     12996     12989     12998     13000
     13007     13005     13014     13016     13009     13007     13005     13012
     13009     13007     13005     13014     13010     13007     13005     13012
     13010     13007     13005     13014     13011     13007     13005     13012
     13011     13007     13005     13014     13012     13005     13014     13016
     13023     13021     13030     13032     13025     13023     13021     13028
     13025     13023     13021     13030     13026     13023     13021     13028
     13026     13023     13021     13030     13027     13023     13021     13028
     13027     13023     13021     13030     13028     13021     13030     13032
     13039     13037     13046     13048     13041     13039     13037     13044
     13041     13039     13037     13046     13042     13039     13037     13044
     13042     13039     13037     13046     13043     13039     13037     13044
     13043     13039     13037     13046     13044     13037     13046     13048
     13055     13053     13062     13064     13057     13055     13053     13060
     13057     13055     13053     13062     13058     13055     13053     13060
     13058     13055     13053     13062     13059     13055     13053     13060
     13059     13055     13053     13062     13060     13053     13062     13064
     13071     13069     13078     13080     13073     13071     13069     13076
     13073     13071     13069     13078     13074     13071     13069     13076
     13074     13071     13069     13078     13075     13071     13069     13076
     13075     13071     13069     13078     13076     13069     13078     13080
     13087     13085     13094     13096     13089     13087     13085     13092
     13089     13087     13085     13094     13090     13087     13085     13092
     13090     13087     13085     13094     13091     13087     13085     13092
     13091     13087     13085     13094     13092     13085     13094     13096
     13103     13101     13110     13112     13105     13103     13101     13108
     13105     13103     13101     13110     13106     13103     13101     13108
     13106     13103     13101     13110     13107     13103     13101     13108
     13107     13103     13101     13110     13108     13101     13110     13112
     13119     13117     13126     13128     13121     13119     13117     13124
     13121     13119     13117     13126     13122     13119     13117     13124
     13122     13119     13117     13126     13123     13119     13117     13124
     13123     13119     13117     13126     13124     13117     13126     13128
     13135     13133     13142     13144     13137     13135     13133     13140
     13137     13135     13133     13142     13138     13135     13133     13140
     13138     13135     13133     13142     13139     13135     13133     13140
     13139     13135     13133     13142     13140     13133     13142     13144
     13151     13149     13158     13160     13153     13151     13149     13156
     13153     13151     13149     13158     13154     13151     13149     13156
     13154     13151     13149     13158     13155     13151     13149     13156
     13155     13151     13149     13158     13156     13149     13158     13160
     13167     13165     13174     13176     13169     13167     13165     13172
     13169     13167     13165     13174     13170     13167     13165     13172
     13170     13167     13165     13174     13171     13167     13165     13172
     13171     13167     13165     13174     13172     13165     13174     13176
     13183     13181     13190     13192     13185     13183     13181     13188
     13185     13183     13181     13190     13186     13183     13181     13188
     13186     13183     13181     13190     13187     13183     13181     13188
     13187     13183     13181     13190     13188     13181     13190     13192
     13199     13197     13206     13208     13201     13199     13197     13204
     13201     13199     13197     13206     13202     13199     13197     13204
     13202     13199     13197     13206     13203     13199     13197     13204
     13203     13199     13197     13206     13204     13197     13206     13208
     13215     13213     13222     13224     13217     13215     13213     13220
     13217     13215     13213     13222     13218     13215     13213     13220
     13218     13215     13213     13222     13219     13215     13213     13220
     13219     13215     13213     13222     13220     13213     13222     13224
     13231     13229     13238     13240     13233     13231     13229     13236
     13233     13231     13229     13238     13234     13231     13229     13236
     13234     13231     13229     13238     13235     13231     13229     13236
     13235     13231     13229     13238     13236     13229     13238     13240
     13247     13245     13254     13256     13249     13247     13245     13252
     13249     13247     13245     13254     13250     13247     13245     13252
     13250     13247     13245     13254     13251     13247     13245     13252
     13251     13247     13245     13254     13252     13245     13254     13256
     13263     13261     13270     13272     13265     13263     13261     13268
     13265     13263     13261     13270     13266     13263     13261     13268
     13266     13263     13261     13270     13267     13263     13261     13268
     13267     13263     13261     13270     13268     13261     13270     13272
     13279     13277     13286     13288     13281     13279     13277     13284
     13281     13279     13277     13286     13282     13279     13277     13284
     13282     13279     13277     13286     13283     13279     13277     13284
     13283     13279     13277     13286     13284     13277     13286     13288
     13295     13293     13302     13304     13297     13295     13293     13300
     13297     13295     13293     13302     13298     13295     13293     13300
     13298     13295     13293     13302     13299     13295     13293     13300
     13299     13295     13293     13302     13300     13293     13302     13304
     13311     13309     13318     13320     13313     13311     13309     13316
     13313     13311     13309     13318     13314     13311     13309     13316
     13314     13311     13309     13318     13315     13311     13309     13316
     13315     13311     13309     13318     13316     13309     13318     13320
     13327     13325     13334     13336     13329     13327     13325     13332
     13329     13327     13325     13334     13330     13327     13325     13332
     13330     13327     13325     13334     13331     13327     13325     13332
     13331     13327     13325     13334     13332     13325     13334     13336
     13343     13341     13350     13352     13345     13343     13341     13348
     13345     13343     13341     13350     13346     13343     13341     13348
     13346     13343     13341     13350     13347     13343     13341     13348
     13347     13343     13341     13350     13348     13341     13350     13352
     13359     13357     13366     13368     13361     13359     13357     13364
     13361     13359     13357     13366     13362     13359     13357     13364
     13362     13359     13357     13366     13363     13359     13357     13364
     13363     13359     13357     13366     13364     13357     13366     13368
     13375     13373     13382     13384     13377     13375     13373     13380
     13377     13375     13373     13382     13378     13375     13373     13380
     13378     13375     13373     13382     13379     13375     13373     13380
     13379     13375     13373     13382     13380     13373     13382     13384
     13391     13389     13398     13400     13393     13391     13389     13396
     13393     13391     13389     13398     13394     13391     13389     13396
     13394     13391     13389     13398     13395     13391     13389     13396
     13395     13391     13389     13398     13396     13389     13398     13400
     13407     13405     13414     13416     13409     13407     13405     13412
     13409     13407     13405     13414     13410     13407     13405     13412
     13410     13407     13405     13414     13411     13407     13405     13412
     13411     13407     13405     13414     13412     13405     13414     13416
     13423     13421     13430     13432     13425     13423     13421     13428
     13425     13423     13421     13430     13426     13423     13421     13428
     13426     13423     13421     13430     13427     13423     13421     13428
     13427     13423     13421     13430     13428     13421     13430     13432
     13439     13437     13446     13448     13441     13439     13437     13444
     13441     13439     13437     13446     13442     13439     13437     13444
     13442     13439     13437     13446     13443     13439     13437     13444
     13443     13439     13437     13446     13444     13437     13446     13448
     13455     13453     13462     13464     13457     13455     13453     13460
     13457     13455     13453     13462     13458     13455     13453     13460
     13458     13455     13453     13462     13459     13455     13453     13460
     13459     13455     13453     13462     13460     13453     13462     13464
     13471     13469     13478     13480     13473     13471     13469     13476
     13473     13471     13469     13478     13474     13471     13469     13476
     13474     13471     13469     13478     13475     13471     13469     13476
     13475     13471     13469     13478     13476     13469     13478     13480
     13487     13485     13494     13496     13489     13487     13485     13492
     13489     13487     13485     13494     13490     13487     13485     13492
     13490     13487     13485     13494     13491     13487     13485     13492
     13491     13487     13485     13494     13492     13485     13494     13496
     13503     13501     13510     13512     13505     13503     13501     13508
     13505     13503     13501     13510     13506     13503     13501     13508
     13506     13503     13501     13510     13507     13503     13501     13508
     13507     13503     13501     13510     13508     13501     13510     13512
     13519     13517     13526     13528     13521     13519     13517     13524
     13521     13519     13517     13526     13522     13519     13517     13524
     13522     13519     13517     13526     13523     13519     13517     13524
     13523     13519     13517     13526     13524     13517     13526     13528
     13535     13533     13542     13544     13537     13535     13533     13540
     13537     13535     13533     13542     13538     13535     13533     13540
     13538     13535     13533     13542     13539     13535     13533     13540
     13539     13535     13533     13542     13540     13533     13542     13544
     13551     13549     13558     13560     13553     13551     13549     13556
     13553     13551     13549     13558     13554     13551     13549     13556
     13554     13551     13549     13558     13555     13551     13549     13556
     13555     13551     13549     13558     13556     13549     13558     13560
     13567     13565     13574     13576     13569     13567     13565     13572
     13569     13567     13565     13574     13570     13567     13565     13572
     13570     13567     13565     13574     13571     13567     13565     13572
     13571     13567     13565     13574     13572     13565     13574     13576
     13583     13581     13590     13592     13585     13583     13581     13588
     13585     13583     13581     13590     13586     13583     13581     13588
     13586     13583     13581     13590     13587     13583     13581     13588
     13587     13583     13581     13590     13588     13581     13590     13592
     13599     13597     13606     13608     13601     13599     13597     13604
     13601     13599     13597     13606     13602     13599     13597     13604
     13602     13599     13597     13606     13603     13599     13597     13604
     13603     13599     13597     13606     13604     13597     13606     13608
     13615     13613     13622     13624     13617     13615     13613     13620
     13617     13615     13613     13622     13618     13615     13613     13620
     13618     13615     13613     13622     13619     13615     13613     13620
     13619     13615     13613     13622     13620     13613     13622     13624
     13631     13629     13638     13640     13633     13631     13629     13636
     13633     13631     13629     13638     13634     13631     13629     13636
     13634     13631     13629     13638     13635     13631     13629     13636
     13635     13631     13629     13638     13636     13629     13638     13640
     13647     13645     13654     13656     13649     13647     13645     13652
     13649     13647     13645     13654     13650     13647     13645     13652
     13650     13647     13645     13654     13651     13647     13645     13652
     13651     13647     13645     13654     13652     13645     13654     13656
     13663     13661     13670     13672     13665     13663     13661     13668
     13665     13663     13661     13670     13666     13663     13661     13668
     13666     13663     13661     13670     13667     13663     13661     13668
     13667     13663     13661     13670     13668     13661     13670     13672
     13679     13677     13686     13688     13681     13679     13677     13684
     13681     13679     13677     13686     13682     13679     13677     13684
     13682     13679     13677     13686     13683     13679     13677     13684
     13683     13679     13677     13686     13684     13677     13686     13688
     13695     13693     13702     13704     13697     13695     13693     13700
     13697     13695     13693     13702     13698     13695     13693     13700
     13698     13695     13693     13702     13699     13695     13693     13700
     13699     13695     13693     13702     13700     13693     13702     13704
     13711     13709     13718     13720     13713     13711     13709     13716
     13713     13711     13709     13718     13714     13711     13709     13716
     13714     13711     13709     13718     13715     13711     13709     13716
     13715     13711     13709     13718     13716     13709     13718     13720
     13727     13725     13734     13736     13729     13727     13725     13732
     13729     13727     13725     13734     13730     13727     13725     13732
     13730     13727     13725     13734     13731     13727     13725     13732
     13731     13727     13725     13734     13732     13725     13734     13736
     13743     13741     13750     13752     13745     13743     13741     13748
     13745     13743     13741     13750     13746     13743     13741     13748
     13746     13743     13741     13750     13747     13743     13741     13748
     13747     13743     13741     13750     13748     13741     13750     13752
     13759     13757     13766     13768     13761     13759     13757     13764
     13761     13759     13757     13766     13762     13759     13757     13764
     13762     13759     13757     13766     13763     13759     13757     13764
     13763     13759     13757     13766     13764     13757     13766     13768
     13775     13773     13782     13784     13777     13775     13773     13780
     13777     13775     13773     13782     13778     13775     13773     13780
     13778     13775     13773     13782     13779     13775     13773     13780
     13779     13775     13773     13782     13780     13773     13782     13784
     13791     13789     13798     13800     13793     13791     13789     13796
     13793     13791     13789     13798     13794     13791     13789     13796
     13794     13791     13789     13798     13795     13791     13789     13796
     13795     13791     13789     13798     13796     13789     13798     13800
     13807     13805     13814     13816     13809     13807     13805     13812
     13809     13807     13805     13814     13810     13807     13805     13812
     13810     13807     13805     13814     13811     13807     13805     13812
     13811     13807     13805     13814     13812     13805     13814     13816
     13823     13821     13830     13832     13825     13823     13821     13828
     13825     13823     13821     13830     13826     13823     13821     13828
     13826     13823     13821     13830     13827     13823     13821     13828
     13827     13823     13821     13830     13828     13821     13830     13832
     13839     13837     13846     13848     13841     13839     13837     13844
     13841     13839     13837     13846     13842     13839     13837     13844
     13842     13839     13837     13846     13843     13839     13837     13844
     13843     13839     13837     13846     13844     13837     13846     13848
     13855     13853     13862     13864     13857     13855     13853     13860
     13857     13855     13853     13862     13858     13855     13853     13860
     13858     13855     13853     13862     13859     13855     13853     13860
     13859     13855     13853     13862     13860     13853     13862     13864
     13871     13869     13878     13880     13873     13871     13869     13876
     13873     13871     13869     13878     13874     13871     13869     13876
     13874     13871     13869     13878     13875     13871     13869     13876
     13875     13871     13869     13878     13876     13869     13878     13880
     13887     13885     13894     13896     13889     13887     13885     13892
     13889     13887     13885     13894     13890     13887     13885     13892
     13890     13887     13885     13894     13891     13887     13885     13892
     13891     13887     13885     13894     13892     13885     13894     13896
     13903     13901     13910     13912     13905     13903     13901     13908
     13905     13903     13901     13910     13906     13903     13901     13908
     13906     13903     13901     13910     13907     13903     13901     13908
     13907     13903     13901     13910     13908     13901     13910     13912
     13919     13917     13926     13928     13921     13919     13917     13924
     13921     13919     13917     13926     13922     13919     13917     13924
     13922     13919     13917     13926     13923     13919     13917     13924
     13923     13919     13917     13926     13924     13917     13926     13928
     13935     13933     13942     13944     13937     13935     13933     13940
     13937     13935     13933     13942     13938     13935     13933     13940
     13938     13935     13933     13942     13939     13935     13933     13940
     13939     13935     13933     13942     13940     13933     13942     13944
     13951     13949     13958     13960     13953     13951     13949     13956
     13953     13951     13949     13958     13954     13951     13949     13956
     13954     13951     13949     13958     13955     13951     13949     13956
     13955     13951     13949     13958     13956     13949     13958     13960
     13967     13965     13974     13976     13969     13967     13965     13972
     13969     13967     13965     13974     13970     13967     13965     13972
     13970     13967     13965     13974     13971     13967     13965     13972
     13971     13967     13965     13974     13972     13965     13974     13976
     13983     13981     13990     13992     13985     13983     13981     13988
     13985     13983     13981     13990     13986     13983     13981     13988
     13986     13983     13981     13990     13987     13983     13981     13988
     13987     13983     13981     13990     13988     13981     13990     13992
     13999     13997     14006     14008     14001     13999     13997     14004
     14001     13999     13997     14006     14002     13999     13997     14004
     14002     13999     13997     14006     14003     13999     13997     14004
     14003     13999     13997     14006     14004     13997     14006     14008
     14015     14013     14022     14024     14017     14015     14013     14020
     14017     14015     14013     14022     14018     14015     14013     14020
     14018     14015     14013     14022     14019     14015     14013     14020
     14019     14015     14013     14022     14020     14013     14022     14024
     14031     14029     14038     14040     14033     14031     14029     14036
     14033     14031     14029     14038     14034     14031     14029     14036
     14034     14031     14029     14038     14035     14031     14029     14036
     14035     14031     14029     14038     14036     14029     14038     14040
     14047     14045     14054     14056     14049     14047     14045     14052
     14049     14047     14045     14054     14050     14047     14045     14052
     14050     14047     14045     14054     14051     14047     14045     14052
     14051     14047     14045     14054     14052     14045     14054     14056
     14063     14061     14070     14072     14065     14063     14061     14068
     14065     14063     14061     14070     14066     14063     14061     14068
     14066     14063     14061     14070     14067     14063     14061     14068
     14067     14063     14061     14070     14068     14061     14070     14072
     14079     14077     14086     14088     14081     14079     14077     14084
     14081     14079     14077     14086     14082     14079     14077     14084
     14082     14079     14077     14086     14083     14079     14077     14084
     14083     14079     14077     14086     14084     14077     14086     14088
     14095     14093     14102     14104     14097     14095     14093     14100
     14097     14095     14093     14102     14098     14095     14093     14100
     14098     14095     14093     14102     14099     14095     14093     14100
     14099     14095     14093     14102     14100     14093     14102     14104
     14111     14109     14118     14120     14113     14111     14109     14116
     14113     14111     14109     14118     14114     14111     14109     14116
     14114     14111     14109     14118     14115     14111     14109     14116
     14115     14111     14109     14118     14116     14109     14118     14120
     14127     14125     14134     14136     14129     14127     14125     14132
     14129     14127     14125     14134     14130     14127     14125     14132
     14130     14127     14125     14134     14131     14127     14125     14132
     14131     14127     14125     14134     14132     14125     14134     14136
     14143     14141     14150     14152     14145     14143     14141     14148
     14145     14143     14141     14150     14146     14143     14141     14148
     14146     14143     14141     14150     14147     14143     14141     14148
     14147     14143     14141     14150     14148     14141     14150     14152
     14159     14157     14166     14168     14161     14159     14157     14164
     14161     14159     14157     14166     14162     14159     14157     14164
     14162     14159     14157     14166     14163     14159     14157     14164
     14163     14159     14157     14166     14164     14157     14166     14168
     14175     14173     14182     14184     14177     14175     14173     14180
     14177     14175     14173     14182     14178     14175     14173     14180
     14178     14175     14173     14182     14179     14175     14173     14180
     14179     14175     14173     14182     14180     14173     14182     14184
     14191     14189     14198     14200     14193     14191     14189     14196
     14193     14191     14189     14198     14194     14191     14189     14196
     14194     14191     14189     14198     14195     14191     14189     14196
     14195     14191     14189     14198     14196     14189     14198     14200
     14207     14205     14214     14216     14209     14207     14205     14212
     14209     14207     14205     14214     14210     14207     14205     14212
     14210     14207     14205     14214     14211     14207     14205     14212
     14211     14207     14205     14214     14212     14205     14214     14216
     14223     14221     14230     14232     14225     14223     14221     14228
     14225     14223     14221     14230     14226     14223     14221     14228
     14226     14223     14221     14230     14227     14223     14221     14228
     14227     14223     14221     14230     14228     14221     14230     14232
     14239     14237     14246     14248     14241     14239     14237     14244
     14241     14239     14237     14246     14242     14239     14237     14244
     14242     14239     14237     14246     14243     14239     14237     14244
     14243     14239     14237     14246     14244     14237     14246     14248
     14255     14253     14262     14264     14257     14255     14253     14260
     14257     14255     14253     14262     14258     14255     14253     14260
     14258     14255     14253     14262     14259     14255     14253     14260
     14259     14255     14253     14262     14260     14253     14262     14264
     14271     14269     14278     14280     14273     14271     14269     14276
     14273     14271     14269     14278     14274     14271     14269     14276
     14274     14271     14269     14278     14275     14271     14269     14276
     14275     14271     14269     14278     14276     14269     14278     14280
     14287     14285     14294     14296     14289     14287     14285     14292
     14289     14287     14285     14294     14290     14287     14285     14292
     14290     14287     14285     14294     14291     14287     14285     14292
     14291     14287     14285     14294     14292     14285     14294     14296
     14303     14301     14310     14312     14305     14303     14301     14308
     14305     14303     14301     14310     14306     14303     14301     14308
     14306     14303     14301     14310     14307     14303     14301     14308
     14307     14303     14301     14310     14308     14301     14310     14312
     14319     14317     14326     14328     14321     14319     14317     14324
     14321     14319     14317     14326     14322     14319     14317     14324
     14322     14319     14317     14326     14323     14319     14317     14324
     14323     14319     14317     14326     14324     14317     14326     14328
     14335     14333     14342     14344     14337     14335     14333     14340
     14337     14335     14333     14342     14338     14335     14333     14340
     14338     14335     14333     14342     14339     14335     14333     14340
     14339     14335     14333     14342     14340     14333     14342     14344
     14351     14349     14358     14360     14353     14351     14349     14356
     14353     14351     14349     14358     14354     14351     14349     14356
     14354     14351     14349     14358     14355     14351     14349     14356
     14355     14351     14349     14358     14356     14349     14358     14360
     14367     14365     14374     14376     14369     14367     14365     14372
     14369     14367     14365     14374     14370     14367     14365     14372
     14370     14367     14365     14374     14371     14367     14365     14372
     14371     14367     14365     14374     14372     14365     14374     14376
     14383     14381     14390     14392     14385     14383     14381     14388
     14385     14383     14381     14390     14386     14383     14381     14388
     14386     14383     14381     14390     14387     14383     14381     14388
     14387     14383     14381     14390     14388     14381     14390     14392
     14399     14397     14406     14408     14401     14399     14397     14404
     14401     14399     14397     14406     14402     14399     14397     14404
     14402     14399     14397     14406     14403     14399     14397     14404
     14403     14399     14397     14406     14404     14397     14406     14408
     14415     14413     14422     14424     14417     14415     14413     14420
     14417     14415     14413     14422     14418     14415     14413     14420
     14418     14415     14413     14422     14419     14415     14413     14420
     14419     14415     14413     14422     14420     14413     14422     14424
     14431     14429     14438     14440     14433     14431     14429     14436
     14433     14431     14429     14438     14434     14431     14429     14436
     14434     14431     14429     14438     14435     14431     14429     14436
     14435     14431     14429     14438     14436     14429     14438     14440
     14447     14445     14454     14456     14449     14447     14445     14452
     14449     14447     14445     14454     14450     14447     14445     14452
     14450     14447     14445     14454     14451     14447     14445     14452
     14451     14447     14445     14454     14452     14445     14454     14456
     14463     14461     14470     14472     14465     14463     14461     14468
     14465     14463     14461     14470     14466     14463     14461     14468
     14466     14463     14461     14470     14467     14463     14461     14468
     14467     14463     14461     14470     14468     14461     14470     14472
     14479     14477     14486     14488     14481     14479     14477     14484
     14481     14479     14477     14486     14482     14479     14477     14484
     14482     14479     14477     14486     14483     14479     14477     14484
     14483     14479     14477     14486     14484     14477     14486     14488
     14495     14493     14502     14504     14497     14495     14493     14500
     14497     14495     14493     14502     14498     14495     14493     14500
     14498     14495     14493     14502     14499     14495     14493     14500
     14499     14495     14493     14502     14500     14493     14502     14504
     14511     14509     14518     14520     14513     14511     14509     14516
     14513     14511     14509     14518     14514     14511     14509     14516
     14514     14511     14509     14518     14515     14511     14509     14516
     14515     14511     14509     14518     14516     14509     14518     14520
     14527     14525     14534     14536     14529     14527     14525     14532
     14529     14527     14525     14534     14530     14527     14525     14532
     14530     14527     14525     14534     14531     14527     14525     14532
     14531     14527     14525     14534     14532     14525     14534     14536
     14543     14541     14550     14552     14545     14543     14541     14548
     14545     14543     14541     14550     14546     14543     14541     14548
     14546     14543     14541     14550     14547     14543     14541     14548
     14547     14543     14541     14550     14548     14541     14550     14552
     14559     14557     14566     14568     14561     14559     14557     14564
     14561     14559     14557     14566     14562     14559     14557     14564
     14562     14559     14557     14566     14563     14559     14557     14564
     14563     14559     14557     14566     14564     14557     14566     14568
     14575     14573     14582     14584     14577     14575     14573     14580
     14577     14575     14573     14582     14578     14575     14573     14580
     14578     14575     14573     14582     14579     14575     14573     14580
     14579     14575     14573     14582     14580     14573     14582     14584
     14591     14589     14598     14600     14593     14591     14589     14596
     14593     14591     14589     14598     14594     14591     14589     14596
     14594     14591     14589     14598     14595     14591     14589     14596
     14595     14591     14589     14598     14596     14589     14598     14600
     14607     14605     14614     14616     14609     14607     14605     14612
     14609     14607     14605     14614     14610     14607     14605     14612
     14610     14607     14605     14614     14611     14607     14605     14612
     14611     14607     14605     14614     14612     14605     14614     14616
     14623     14621     14630     14632     14625     14623     14621     14628
     14625     14623     14621     14630     14626     14623     14621     14628
     14626     14623     14621     14630     14627     14623     14621     14628
     14627     14623     14621     14630     14628     14621     14630     14632
     14639     14637     14646     14648     14641     14639     14637     14644
     14641     14639     14637     14646     14642     14639     14637     14644
     14642     14639     14637     14646     14643     14639     14637     14644
     14643     14639     14637     14646     14644     14637     14646     14648
     14655     14653     14662     14664     14657     14655     14653     14660
     14657     14655     14653     14662     14658     14655     14653     14660
     14658     14655     14653     14662     14659     14655     14653     14660
     14659     14655     14653     14662     14660     14653     14662     14664
     14671     14669     14678     14680     14673     14671     14669     14676
     14673     14671     14669     14678     14674     14671     14669     14676
     14674     14671     14669     14678     14675     14671     14669     14676
     14675     14671     14669     14678     14676     14669     14678     14680
     14687     14685     14694     14696     14689     14687     14685     14692
     14689     14687     14685     14694     14690     14687     14685     14692
     14690     14687     14685     14694     14691     14687     14685     14692
     14691     14687     14685     14694     14692     14685     14694     14696
     14703     14701     14710     14712     14705     14703     14701     14708
     14705     14703     14701     14710     14706     14703     14701     14708
     14706     14703     14701     14710     14707     14703     14701     14708
     14707     14703     14701     14710     14708     14701     14710     14712
     14719     14717     14726     14728     14721     14719     14717     14724
     14721     14719     14717     14726     14722     14719     14717     14724
     14722     14719     14717     14726     14723     14719     14717     14724
     14723     14719     14717     14726     14724     14717     14726     14728
     14735     14733     14742     14744     14737     14735     14733     14740
     14737     14735     14733     14742     14738     14735     14733     14740
     14738     14735     14733     14742     14739     14735     14733     14740
     14739     14735     14733     14742     14740     14733     14742     14744
     14751     14749     14758     14760     14753     14751     14749     14756
     14753     14751     14749     14758     14754     14751     14749     14756
     14754     14751     14749     14758     14755     14751     14749     14756
     14755     14751     14749     14758     14756     14749     14758     14760
     14767     14765     14774     14776     14769     14767     14765     14772
     14769     14767     14765     14774     14770     14767     14765     14772
     14770     14767     14765     14774     14771     14767     14765     14772
     14771     14767     14765     14774     14772     14765     14774     14776
     14783     14781     14790     14792     14785     14783     14781     14788
     14785     14783     14781     14790     14786     14783     14781     14788
     14786     14783     14781     14790     14787     14783     14781     14788
     14787     14783     14781     14790     14788     14781     14790     14792
     14799     14797     14806     14808     14801     14799     14797     14804
     14801     14799     14797     14806     14802     14799     14797     14804
     14802     14799     14797     14806     14803     14799     14797     14804
     14803     14799     14797     14806     14804     14797     14806     14808
     14815     14813     14822     14824     14817     14815     14813     14820
     14817     14815     14813     14822     14818     14815     14813     14820
     14818     14815     14813     14822     14819     14815     14813     14820
     14819     14815     14813     14822     14820     14813     14822     14824
     14831     14829     14838     14840     14833     14831     14829     14836
     14833     14831     14829     14838     14834     14831     14829     14836
     14834     14831     14829     14838     14835     14831     14829     14836
     14835     14831     14829     14838     14836     14829     14838     14840
     14847     14845     14854     14856     14849     14847     14845     14852
     14849     14847     14845     14854     14850     14847     14845     14852
     14850     14847     14845     14854     14851     14847     14845     14852
     14851     14847     14845     14854     14852     14845     14854     14856
     14863     14861     14870     14872     14865     14863     14861     14868
     14865     14863     14861     14870     14866     14863     14861     14868
     14866     14863     14861     14870     14867     14863     14861     14868
     14867     14863     14861     14870     14868     14861     14870     14872
     14879     14877     14886     14888     14881     14879     14877     14884
     14881     14879     14877     14886     14882     14879     14877     14884
     14882     14879     14877     14886     14883     14879     14877     14884
     14883     14879     14877     14886     14884     14877     14886     14888
     14895     14893     14902     14904     14897     14895     14893     14900
     14897     14895     14893     14902     14898     14895     14893     14900
     14898     14895     14893     14902     14899     14895     14893     14900
     14899     14895     14893     14902     14900     14893     14902     14904
     14911     14909     14918     14920     14913     14911     14909     14916
     14913     14911     14909     14918     14914     14911     14909     14916
     14914     14911     14909     14918     14915     14911     14909     14916
     14915     14911     14909     14918     14916     14909     14918     14920
     14927     14925     14934     14936     14929     14927     14925     14932
     14929     14927     14925     14934     14930     14927     14925     14932
     14930     14927     14925     14934     14931     14927     14925     14932
     14931     14927     14925     14934     14932     14925     14934     14936
     14943     14941     14950     14952     14945     14943     14941     14948
     14945     14943     14941     14950     14946     14943     14941     14948
     14946     14943     14941     14950     14947     14943     14941     14948
     14947     14943     14941     14950     14948     14941     14950     14952
     14959     14957     14966     14968     14961     14959     14957     14964
     14961     14959     14957     14966     14962     14959     14957     14964
     14962     14959     14957     14966     14963     14959     14957     14964
     14963     14959     14957     14966     14964     14957     14966     14968
     14975     14973     14982     14984     14977     14975     14973     14980
     14977     14975     14973     14982     14978     14975     14973     14980
     14978     14975     14973     14982     14979     14975     14973     14980
     14979     14975     14973     14982     14980     14973     14982     14984
     14991     14989     14998     15000     14993     14991     14989     14996
     14993     14991     14989     14998     14994     14991     14989     14996
     14994     14991     14989     14998     14995     14991     14989     14996
     14995     14991     14989     14998     14996     14989     14998     15000
     15007     15005     15014     15016     15009     15007     15005     15012
     15009     15007     15005     15014     15010     15007     15005     15012
     15010     15007     15005     15014     15011     15007     15005     15012
     15011     15007     15005     15014     15012     15005     15014     15016
     15023     15021     15030     15032     15025     15023     15021     15028
     15025     15023     15021     15030     15026     15023     15021     15028
     15026     15023     15021     15030     15027     15023     15021     15028
     15027     15023     15021     15030     15028     15021     15030     15032
     15039     15037     15046     15048     15041     15039     15037     15044
     15041     15039     15037     15046     15042     15039     15037     15044
     15042     15039     15037     15046     15043     15039     15037     15044
     15043     15039     15037     15046     15044     15037     15046     15048
     15055     15053     15062     15064     15057     15055     15053     15060
     15057     15055     15053     15062     15058     15055     15053     15060
     15058     15055     15053     15062     15059     15055     15053     15060
     15059     15055     15053     15062     15060     15053     15062     15064
     15071     15069     15078     15080     15073     15071     15069     15076
     15073     15071     15069     15078     15074     15071     15069     15076
     15074     15071     15069     15078     15075     15071     15069     15076
     15075     15071     15069     15078     15076     15069     15078     15080
     15087     15085     15094     15096     15089     15087     15085     15092
     15089     15087     15085     15094     15090     15087     15085     15092
     15090     15087     15085     15094     15091     15087     15085     15092
     15091     15087     15085     15094     15092     15085     15094     15096
     15103     15101     15110     15112     15105     15103     15101     15108
     15105     15103     15101     15110     15106     15103     15101     15108
     15106     15103     15101     15110     15107     15103     15101     15108
     15107     15103     15101     15110     15108     15101     15110     15112
     15119     15117     15126     15128     15121     15119     15117     15124
     15121     15119     15117     15126     15122     15119     15117     15124
     15122     15119     15117     15126     15123     15119     15117     15124
     15123     15119     15117     15126     15124     15117     15126     15128
     15135     15133     15142     15144     15137     15135     15133     15140
     15137     15135     15133     15142     15138     15135     15133     15140
     15138     15135     15133     15142     15139     15135     15133     15140
     15139     15135     15133     15142     15140     15133     15142     15144
     15151     15149     15158     15160     15153     15151     15149     15156
     15153     15151     15149     15158     15154     15151     15149     15156
     15154     15151     15149     15158     15155     15151     15149     15156
     15155     15151     15149     15158     15156     15149     15158     15160
     15167     15165     15174     15176     15169     15167     15165     15172
     15169     15167     15165     15174     15170     15167     15165     15172
     15170     15167     15165     15174     15171     15167     15165     15172
     15171     15167     15165     15174     15172     15165     15174     15176
     15183     15181     15190     15192     15185     15183     15181     15188
     15185     15183     15181     15190     15186     15183     15181     15188
     15186     15183     15181     15190     15187     15183     15181     15188
     15187     15183     15181     15190     15188     15181     15190     15192
     15199     15197     15206     15208     15201     15199     15197     15204
     15201     15199     15197     15206     15202     15199     15197     15204
     15202     15199     15197     15206     15203     15199     15197     15204
     15203     15199     15197     15206     15204     15197     15206     15208
     15215     15213     15222     15224     15217     15215     15213     15220
     15217     15215     15213     15222     15218     15215     15213     15220
     15218     15215     15213     15222     15219     15215     15213     15220
     15219     15215     15213     15222     15220     15213     15222     15224
     15231     15229     15238     15240     15233     15231     15229     15236
     15233     15231     15229     15238     15234     15231     15229     15236
     15234     15231     15229     15238     15235     15231     15229     15236
     15235     15231     15229     15238     15236     15229     15238     15240
     15247     15245     15254     15256     15249     15247     15245     15252
     15249     15247     15245     15254     15250     15247     15245     15252
     15250     15247     15245     15254     15251     15247     15245     15252
     15251     15247     15245     15254     15252     15245     15254     15256
     15263     15261     15270     15272     15265     15263     15261     15268
     15265     15263     15261     15270     15266     15263     15261     15268
     15266     15263     15261     15270     15267     15263     15261     15268
     15267     15263     15261     15270     15268     15261     15270     15272
     15279     15277     15286     15288     15281     15279     15277     15284
     15281     15279     15277     15286     15282     15279     15277     15284
     15282     15279     15277     15286     15283     15279     15277     15284
     15283     15279     15277     15286     15284     15277     15286     15288
     15295     15293     15302     15304     15297     15295     15293     15300
     15297     15295     15293     15302     15298     15295     15293     15300
     15298     15295     15293     15302     15299     15295     15293     15300
     15299     15295     15293     15302     15300     15293     15302     15304
     15311     15309     15318     15320     15313     15311     15309     15316
     15313     15311     15309     15318     15314     15311     15309     15316
     15314     15311     15309     15318     15315     15311     15309     15316
     15315     15311     15309     15318     15316     15309     15318     15320
     15327     15325     15334     15336     15329     15327     15325     15332
     15329     15327     15325     15334     15330     15327     15325     15332
     15330     15327     15325     15334     15331     15327     15325     15332
     15331     15327     15325     15334     15332     15325     15334     15336
     15343     15341     15350     15352     15345     15343     15341     15348
     15345     15343     15341     15350     15346     15343     15341     15348
     15346     15343     15341     15350     15347     15343     15341     15348
     15347     15343     15341     15350     15348     15341     15350     15352
     15359     15357     15366     15368     15361     15359     15357     15364
     15361     15359     15357     15366     15362     15359     15357     15364
     15362     15359     15357     15366     15363     15359     15357     15364
     15363     15359     15357     15366     15364     15357     15366     15368
     15375     15373     15382     15384     15377     15375     15373     15380
     15377     15375     15373     15382     15378     15375     15373     15380
     15378     15375     15373     15382     15379     15375     15373     15380
     15379     15375     15373     15382     15380     15373     15382     15384
     15391     15389     15398     15400     15393     15391     15389     15396
     15393     15391     15389     15398     15394     15391     15389     15396
     15394     15391     15389     15398     15395     15391     15389     15396
     15395     15391     15389     15398     15396     15389     15398     15400
     15407     15405     15414     15416     15409     15407     15405     15412
     15409     15407     15405     15414     15410     15407     15405     15412
     15410     15407     15405     15414     15411     15407     15405     15412
     15411     15407     15405     15414     15412     15405     15414     15416
     15423     15421     15430     15432     15425     15423     15421     15428
     15425     15423     15421     15430     15426     15423     15421     15428
     15426     15423     15421     15430     15427     15423     15421     15428
     15427     15423     15421     15430     15428     15421     15430     15432
     15439     15437     15446     15448     15441     15439     15437     15444
     15441     15439     15437     15446     15442     15439     15437     15444
     15442     15439     15437     15446     15443     15439     15437     15444
     15443     15439     15437     15446     15444     15437     15446     15448
     15455     15453     15462     15464     15457     15455     15453     15460
     15457     15455     15453     15462     15458     15455     15453     15460
     15458     15455     15453     15462     15459     15455     15453     15460
     15459     15455     15453     15462     15460     15453     15462     15464
     15471     15469     15478     15480     15473     15471     15469     15476
     15473     15471     15469     15478     15474     15471     15469     15476
     15474     15471     15469     15478     15475     15471     15469     15476
     15475     15471     15469     15478     15476     15469     15478     15480
     15487     15485     15494     15496     15489     15487     15485     15492
     15489     15487     15485     15494     15490     15487     15485     15492
     15490     15487     15485     15494     15491     15487     15485     15492
     15491     15487     15485     15494     15492     15485     15494     15496
     15503     15501     15510     15512     15505     15503     15501     15508
     15505     15503     15501     15510     15506     15503     15501     15508
     15506     15503     15501     15510     15507     15503     15501     15508
     15507     15503     15501     15510     15508     15501     15510     15512
     15519     15517     15526     15528     15521     15519     15517     15524
     15521     15519     15517     15526     15522     15519     15517     15524
     15522     15519     15517     15526     15523     15519     15517     15524
     15523     15519     15517     15526     15524     15517     15526     15528
     15535     15533     15542     15544     15537     15535     15533     15540
     15537     15535     15533     15542     15538     15535     15533     15540
     15538     15535     15533     15542     15539     15535     15533     15540
     15539     15535     15533     15542     15540     15533     15542     15544
     15551     15549     15558     15560     15553     15551     15549     15556
     15553     15551     15549     15558     15554     15551     15549     15556
     15554     15551     15549     15558     15555     15551     15549     15556
     15555     15551     15549     15558     15556     15549     15558     15560
     15567     15565     15574     15576     15569     15567     15565     15572
     15569     15567     15565     15574     15570     15567     15565     15572
     15570     15567     15565     15574     15571     15567     15565     15572
     15571     15567     15565     15574     15572     15565     15574     15576
     15583     15581     15590     15592     15585     15583     15581     15588
     15585     15583     15581     15590     15586     15583     15581     15588
     15586     15583     15581     15590     15587     15583     15581     15588
     15587     15583     15581     15590     15588     15581     15590     15592
     15599     15597     15606     15608     15601     15599     15597     15604
     15601     15599     15597     15606     15602     15599     15597     15604
     15602     15599     15597     15606     15603     15599     15597     15604
     15603     15599     15597     15606     15604     15597     15606     15608
     15615     15613     15622     15624     15617     15615     15613     15620
     15617     15615     15613     15622     15618     15615     15613     15620
     15618     15615     15613     15622     15619     15615     15613     15620
     15619     15615     15613     15622     15620     15613     15622     15624
     15631     15629     15638     15640     15633     15631     15629     15636
     15633     15631     15629     15638     15634     15631     15629     15636
     15634     15631     15629     15638     15635     15631     15629     15636
     15635     15631     15629     15638     15636     15629     15638     15640
     15647     15645     15654     15656     15649     15647     15645     15652
     15649     15647     15645     15654     15650     15647     15645     15652
     15650     15647     15645     15654     15651     15647     15645     15652
     15651     15647     15645     15654     15652     15645     15654     15656
     15663     15661     15670     15672     15665     15663     15661     15668
     15665     15663     15661     15670     15666     15663     15661     15668
     15666     15663     15661     15670     15667     15663     15661     15668
     15667     15663     15661     15670     15668     15661     15670     15672
     15679     15677     15686     15688     15681     15679     15677     15684
     15681     15679     15677     15686     15682     15679     15677     15684
     15682     15679     15677     15686     15683     15679     15677     15684
     15683     15679     15677     15686     15684     15677     15686     15688
     15695     15693     15702     15704     15697     15695     15693     15700
     15697     15695     15693     15702     15698     15695     15693     15700
     15698     15695     15693     15702     15699     15695     15693     15700
     15699     15695     15693     15702     15700     15693     15702     15704
     15711     15709     15718     15720     15713     15711     15709     15716
     15713     15711     15709     15718     15714     15711     15709     15716
     15714     15711     15709     15718     15715     15711     15709     15716
     15715     15711     15709     15718     15716     15709     15718     15720
     15727     15725     15734     15736     15729     15727     15725     15732
     15729     15727     15725     15734     15730     15727     15725     15732
     15730     15727     15725     15734     15731     15727     15725     15732
     15731     15727     15725     15734     15732     15725     15734     15736
     15743     15741     15750     15752     15745     15743     15741     15748
     15745     15743     15741     15750     15746     15743     15741     15748
     15746     15743     15741     15750     15747     15743     15741     15748
     15747     15743     15741     15750     15748     15741     15750     15752
     15759     15757     15766     15768     15761     15759     15757     15764
     15761     15759     15757     15766     15762     15759     15757     15764
     15762     15759     15757     15766     15763     15759     15757     15764
     15763     15759     15757     15766     15764     15757     15766     15768
     15775     15773     15782     15784     15777     15775     15773     15780
     15777     15775     15773     15782     15778     15775     15773     15780
     15778     15775     15773     15782     15779     15775     15773     15780
     15779     15775     15773     15782     15780     15773     15782     15784
     15791     15789     15798     15800     15793     15791     15789     15796
     15793     15791     15789     15798     15794     15791     15789     15796
     15794     15791     15789     15798     15795     15791     15789     15796
     15795     15791     15789     15798     15796     15789     15798     15800
     15807     15805     15814     15816     15809     15807     15805     15812
     15809     15807     15805     15814     15810     15807     15805     15812
     15810     15807     15805     15814     15811     15807     15805     15812
     15811     15807     15805     15814     15812     15805     15814     15816
     15823     15821     15830     15832     15825     15823     15821     15828
     15825     15823     15821     15830     15826     15823     15821     15828
     15826     15823     15821     15830     15827     15823     15821     15828
     15827     15823     15821     15830     15828     15821     15830     15832
     15839     15837     15846     15848     15841     15839     15837     15844
     15841     15839     15837     15846     15842     15839     15837     15844
     15842     15839     15837     15846     15843     15839     15837     15844
     15843     15839     15837     15846     15844     15837     15846     15848
     15855     15853     15862     15864     15857     15855     15853     15860
     15857     15855     15853     15862     15858     15855     15853     15860
     15858     15855     15853     15862     15859     15855     15853     15860
     15859     15855     15853     15862     15860     15853     15862     15864
     15871     15869     15878     15880     15873     15871     15869     15876
     15873     15871     15869     15878     15874     15871     15869     15876
     15874     15871     15869     15878     15875     15871     15869     15876
     15875     15871     15869     15878     15876     15869     15878     15880
     15887     15885     15894     15896     15889     15887     15885     15892
     15889     15887     15885     15894     15890     15887     15885     15892
     15890     15887     15885     15894     15891     15887     15885     15892
     15891     15887     15885     15894     15892     15885     15894     15896
     15903     15901     15910     15912     15905     15903     15901     15908
     15905     15903     15901     15910     15906     15903     15901     15908
     15906     15903     15901     15910     15907     15903     15901     15908
     15907     15903     15901     15910     15908     15901     15910     15912
     15919     15917     15926     15928     15921     15919     15917     15924
     15921     15919     15917     15926     15922     15919     15917     15924
     15922     15919     15917     15926     15923     15919     15917     15924
     15923     15919     15917     15926     15924     15917     15926     15928
     15935     15933     15942     15944     15937     15935     15933     15940
     15937     15935     15933     15942     15938     15935     15933     15940
     15938     15935     15933     15942     15939     15935     15933     15940
     15939     15935     15933     15942     15940     15933     15942     15944
     15951     15949     15958     15960     15953     15951     15949     15956
     15953     15951     15949     15958     15954     15951     15949     15956
     15954     15951     15949     15958     15955     15951     15949     15956
     15955     15951     15949     15958     15956     15949     15958     15960
     15967     15965     15974     15976     15969     15967     15965     15972
     15969     15967     15965     15974     15970     15967     15965     15972
     15970     15967     15965     15974     15971     15967     15965     15972
     15971     15967     15965     15974     15972     15965     15974     15976
     15983     15981     15990     15992     15985     15983     15981     15988
     15985     15983     15981     15990     15986     15983     15981     15988
     15986     15983     15981     15990     15987     15983     15981     15988
     15987     15983     15981     15990     15988     15981     15990     15992
     15999     15997     16006     16008     16001     15999     15997     16004
     16001     15999     15997     16006     16002     15999     15997     16004
     16002     15999     15997     16006     16003     15999     15997     16004
     16003     15999     15997     16006     16004     15997     16006     16008
     16015     16013     16022     16024     16017     16015     16013     16020
     16017     16015     16013     16022     16018     16015     16013     16020
     16018     16015     16013     16022     16019     16015     16013     16020
     16019     16015     16013     16022     16020     16013     16022     16024
     16031     16029     16038     16040     16033     16031     16029     16036
     16033     16031     16029     16038     16034     16031     16029     16036
     16034     16031     16029     16038     16035     16031     16029     16036
     16035     16031     16029     16038     16036     16029     16038     16040
     16047     16045     16054     16056     16049     16047     16045     16052
     16049     16047     16045     16054     16050     16047     16045     16052
     16050     16047     16045     16054     16051     16047     16045     16052
     16051     16047     16045     16054     16052     16045     16054     16056
     16063     16061     16070     16072     16065     16063     16061     16068
     16065     16063     16061     16070     16066     16063     16061     16068
     16066     16063     16061     16070     16067     16063     16061     16068
     16067     16063     16061     16070     16068     16061     16070     16072
     16079     16077     16086     16088     16081     16079     16077     16084
     16081     16079     16077     16086     16082     16079     16077     16084
     16082     16079     16077     16086     16083     16079     16077     16084
     16083     16079     16077     16086     16084     16077     16086     16088
     16095     16093     16102     16104     16097     16095     16093     16100
     16097     16095     16093     16102     16098     16095     16093     16100
     16098     16095     16093     16102     16099     16095     16093     16100
     16099     16095     16093     16102     16100     16093     16102     16104
     16111     16109     16118     16120     16113     16111     16109     16116
     16113     16111     16109     16118     16114     16111     16109     16116
     16114     16111     16109     16118     16115     16111     16109     16116
     16115     16111     16109     16118     16116     16109     16118     16120
     16127     16125     16134     16136     16129     16127     16125     16132
     16129     16127     16125     16134     16130     16127     16125     16132
     16130     16127     16125     16134     16131     16127     16125     16132
     16131     16127     16125     16134     16132     16125     16134     16136
     16143     16141     16150     16152     16145     16143     16141     16148
     16145     16143     16141     16150     16146     16143     16141     16148
     16146     16143     16141     16150     16147     16143     16141     16148
     16147     16143     16141     16150     16148     16141     16150     16152
     16159     16157     16166     16168     16161     16159     16157     16164
     16161     16159     16157     16166     16162     16159     16157     16164
     16162     16159     16157     16166     16163     16159     16157     16164
     16163     16159     16157     16166     16164     16157     16166     16168
     16175     16173     16182     16184     16177     16175     16173     16180
     16177     16175     16173     16182     16178     16175     16173     16180
     16178     16175     16173     16182     16179     16175     16173     16180
     16179     16175     16173     16182     16180     16173     16182     16184
     16191     16189     16198     16200     16193     16191     16189     16196
     16193     16191     16189     16198     16194     16191     16189     16196
     16194     16191     16189     16198     16195     16191     16189     16196
     16195     16191     16189     16198     16196     16189     16198     16200
     16207     16205     16214     16216     16209     16207     16205     16212
     16209     16207     16205     16214     16210     16207     16205     16212
     16210     16207     16205     16214     16211     16207     16205     16212
     16211     16207     16205     16214     16212     16205     16214     16216
     16223     16221     16230     16232     16225     16223     16221     16228
     16225     16223     16221     16230     16226     16223     16221     16228
     16226     16223     16221     16230     16227     16223     16221     16228
     16227     16223     16221     16230     16228     16221     16230     16232
     16239     16237     16246     16248     16241     16239     16237     16244
     16241     16239     16237     16246     16242     16239     16237     16244
     16242     16239     16237     16246     16243     16239     16237     16244
     16243     16239     16237     16246     16244     16237     16246     16248
     16255     16253     16262     16264     16257     16255     16253     16260
     16257     16255     16253     16262     16258     16255     16253     16260
     16258     16255     16253     16262     16259     16255     16253     16260
     16259     16255     16253     16262     16260     16253     16262     16264
     16271     16269     16278     16280     16273     16271     16269     16276
     16273     16271     16269     16278     16274     16271     16269     16276
     16274     16271     16269     16278     16275     16271     16269     16276
     16275     16271     16269     16278     16276     16269     16278     16280
     16287     16285     16294     16296     16289     16287     16285     16292
     16289     16287     16285     16294     16290     16287     16285     16292
     16290     16287     16285     16294     16291     16287     16285     16292
     16291     16287     16285     16294     16292     16285     16294     16296
     16303     16301     16310     16312     16305     16303     16301     16308
     16305     16303     16301     16310     16306     16303     16301     16308
     16306     16303     16301     16310     16307     16303     16301     16308
     16307     16303     16301     16310     16308     16301     16310     16312
     16319     16317     16326     16328     16321     16319     16317     16324
     16321     16319     16317     16326     16322     16319     16317     16324
     16322     16319     16317     16326     16323     16319     16317     16324
     16323     16319     16317     16326     16324     16317     16326     16328
     16335     16333     16342     16344     16337     16335     16333     16340
     16337     16335     16333     16342     16338     16335     16333     16340
     16338     16335     16333     16342     16339     16335     16333     16340
     16339     16335     16333     16342     16340     16333     16342     16344
     16351     16349     16358     16360     16353     16351     16349     16356
     16353     16351     16349     16358     16354     16351     16349     16356
     16354     16351     16349     16358     16355     16351     16349     16356
     16355     16351     16349     16358     16356     16349     16358     16360
     16367     16365     16374     16376     16369     16367     16365     16372
     16369     16367     16365     16374     16370     16367     16365     16372
     16370     16367     16365     16374     16371     16367     16365     16372
     16371     16367     16365     16374     16372     16365     16374     16376
     16383     16381     16390     16392     16385     16383     16381     16388
     16385     16383     16381     16390     16386     16383     16381     16388
     16386     16383     16381     16390     16387     16383     16381     16388
     16387     16383     16381     16390     16388     16381     16390     16392
     16399     16397     16406     16408     16401     16399     16397     16404
     16401     16399     16397     16406     16402     16399     16397     16404
     16402     16399     16397     16406     16403     16399     16397     16404
     16403     16399     16397     16406     16404     16397     16406     16408
     16415     16413     16422     16424     16417     16415     16413     16420
     16417     16415     16413     16422     16418     16415     16413     16420
     16418     16415     16413     16422     16419     16415     16413     16420
     16419     16415     16413     16422     16420     16413     16422     16424
     16431     16429     16438     16440     16433     16431     16429     16436
     16433     16431     16429     16438     16434     16431     16429     16436
     16434     16431     16429     16438     16435     16431     16429     16436
     16435     16431     16429     16438     16436     16429     16438     16440
     16447     16445     16454     16456     16449     16447     16445     16452
     16449     16447     16445     16454     16450     16447     16445     16452
     16450     16447     16445     16454     16451     16447     16445     16452
     16451     16447     16445     16454     16452     16445     16454     16456
     16463     16461     16470     16472     16465     16463     16461     16468
     16465     16463     16461     16470     16466     16463     16461     16468
     16466     16463     16461     16470     16467     16463     16461     16468
     16467     16463     16461     16470     16468     16461     16470     16472
     16479     16477     16486     16488     16481     16479     16477     16484
     16481     16479     16477     16486     16482     16479     16477     16484
     16482     16479     16477     16486     16483     16479     16477     16484
     16483     16479     16477     16486     16484     16477     16486     16488
     16495     16493     16502     16504     16497     16495     16493     16500
     16497     16495     16493     16502     16498     16495     16493     16500
     16498     16495     16493     16502     16499     16495     16493     16500
     16499     16495     16493     16502     16500     16493     16502     16504
     16511     16509     16518     16520     16513     16511     16509     16516
     16513     16511     16509     16518     16514     16511     16509     16516
     16514     16511     16509     16518     16515     16511     16509     16516
     16515     16511     16509     16518     16516     16509     16518     16520
     16527     16525     16534     16536     16529     16527     16525     16532
     16529     16527     16525     16534     16530     16527     16525     16532
     16530     16527     16525     16534     16531     16527     16525     16532
     16531     16527     16525     16534     16532     16525     16534     16536
     16543     16541     16550     16552     16545     16543     16541     16548
     16545     16543     16541     16550     16546     16543     16541     16548
     16546     16543     16541     16550     16547     16543     16541     16548
     16547     16543     16541     16550     16548     16541     16550     16552
     16559     16557     16566     16568     16561     16559     16557     16564
     16561     16559     16557     16566     16562     16559     16557     16564
     16562     16559     16557     16566     16563     16559     16557     16564
     16563     16559     16557     16566     16564     16557     16566     16568
     16575     16573     16582     16584     16577     16575     16573     16580
     16577     16575     16573     16582     16578     16575     16573     16580
     16578     16575     16573     16582     16579     16575     16573     16580
     16579     16575     16573     16582     16580     16573     16582     16584
     16591     16589     16598     16600     16593     16591     16589     16596
     16593     16591     16589     16598     16594     16591     16589     16596
     16594     16591     16589     16598     16595     16591     16589     16596
     16595     16591     16589     16598     16596     16589     16598     16600
     16607     16605     16614     16616     16609     16607     16605     16612
     16609     16607     16605     16614     16610     16607     16605     16612
     16610     16607     16605     16614     16611     16607     16605     16612
     16611     16607     16605     16614     16612     16605     16614     16616
     16623     16621     16630     16632     16625     16623     16621     16628
     16625     16623     16621     16630     16626     16623     16621     16628
     16626     16623     16621     16630     16627     16623     16621     16628
     16627     16623     16621     16630     16628     16621     16630     16632
     16639     16637     16646     16648     16641     16639     16637     16644
     16641     16639     16637     16646     16642     16639     16637     16644
     16642     16639     16637     16646     16643     16639     16637     16644
     16643     16639     16637     16646     16644     16637     16646     16648
     16655     16653     16662     16664     16657     16655     16653     16660
     16657     16655     16653     16662     16658     16655     16653     16660
     16658     16655     16653     16662     16659     16655     16653     16660
     16659     16655     16653     16662     16660     16653     16662     16664
     16671     16669     16678     16680     16673     16671     16669     16676
     16673     16671     16669     16678     16674     16671     16669     16676
     16674     16671     16669     16678     16675     16671     16669     16676
     16675     16671     16669     16678     16676     16669     16678     16680
     16687     16685     16694     16696     16689     16687     16685     16692
     16689     16687     16685     16694     16690     16687     16685     16692
     16690     16687     16685     16694     16691     16687     16685     16692
     16691     16687     16685     16694     16692     16685     16694     16696
     16703     16701     16710     16712     16705     16703     16701     16708
     16705     16703     16701     16710     16706     16703     16701     16708
     16706     16703     16701     16710     16707     16703     16701     16708
     16707     16703     16701     16710     16708     16701     16710     16712
     16719     16717     16726     16728     16721     16719     16717     16724
     16721     16719     16717     16726     16722     16719     16717     16724
     16722     16719     16717     16726     16723     16719     16717     16724
     16723     16719     16717     16726     16724     16717     16726     16728
     16735     16733     16742     16744     16737     16735     16733     16740
     16737     16735     16733     16742     16738     16735     16733     16740
     16738     16735     16733     16742     16739     16735     16733     16740
     16739     16735     16733     16742     16740     16733     16742     16744
     16751     16749     16758     16760     16753     16751     16749     16756
     16753     16751     16749     16758     16754     16751     16749     16756
     16754     16751     16749     16758     16755     16751     16749     16756
     16755     16751     16749     16758     16756     16749     16758     16760
     16767     16765     16774     16776     16769     16767     16765     16772
     16769     16767     16765     16774     16770     16767     16765     16772
     16770     16767     16765     16774     16771     16767     16765     16772
     16771     16767     16765     16774     16772     16765     16774     16776
     16783     16781     16790     16792     16785     16783     16781     16788
     16785     16783     16781     16790     16786     16783     16781     16788
     16786     16783     16781     16790     16787     16783     16781     16788
     16787     16783     16781     16790     16788     16781     16790     16792
     16799     16797     16806     16808     16801     16799     16797     16804
     16801     16799     16797     16806     16802     16799     16797     16804
     16802     16799     16797     16806     16803     16799     16797     16804
     16803     16799     16797     16806     16804     16797     16806     16808
     16815     16813     16822     16824     16817     16815     16813     16820
     16817     16815     16813     16822     16818     16815     16813     16820
     16818     16815     16813     16822     16819     16815     16813     16820
     16819     16815     16813     16822     16820     16813     16822     16824
     16831     16829     16838     16840     16833     16831     16829     16836
     16833     16831     16829     16838     16834     16831     16829     16836
     16834     16831     16829     16838     16835     16831     16829     16836
     16835     16831     16829     16838     16836     16829     16838     16840
     16847     16845     16854     16856     16849     16847     16845     16852
     16849     16847     16845     16854     16850     16847     16845     16852
     16850     16847     16845     16854     16851     16847     16845     16852
     16851     16847     16845     16854     16852     16845     16854     16856
     16863     16861     16870     16872     16865     16863     16861     16868
     16865     16863     16861     16870     16866     16863     16861     16868
     16866     16863     16861     16870     16867     16863     16861     16868
     16867     16863     16861     16870     16868     16861     16870     16872
     16879     16877     16886     16888     16881     16879     16877     16884
     16881     16879     16877     16886     16882     16879     16877     16884
     16882     16879     16877     16886     16883     16879     16877     16884
     16883     16879     16877     16886     16884     16877     16886     16888
     16895     16893     16902     16904     16897     16895     16893     16900
     16897     16895     16893     16902     16898     16895     16893     16900
     16898     16895     16893     16902     16899     16895     16893     16900
     16899     16895     16893     16902     16900     16893     16902     16904
     16911     16909     16918     16920     16913     16911     16909     16916
     16913     16911     16909     16918     16914     16911     16909     16916
     16914     16911     16909     16918     16915     16911     16909     16916
     16915     16911     16909     16918     16916     16909     16918     16920
     16927     16925     16934     16936     16929     16927     16925     16932
     16929     16927     16925     16934     16930     16927     16925     16932
     16930     16927     16925     16934     16931     16927     16925     16932
     16931     16927     16925     16934     16932     16925     16934     16936
     16943     16941     16950     16952     16945     16943     16941     16948
     16945     16943     16941     16950     16946     16943     16941     16948
     16946     16943     16941     16950     16947     16943     16941     16948
     16947     16943     16941     16950     16948     16941     16950     16952
     16959     16957     16966     16968     16961     16959     16957     16964
     16961     16959     16957     16966     16962     16959     16957     16964
     16962     16959     16957     16966     16963     16959     16957     16964
     16963     16959     16957     16966     16964     16957     16966     16968
     16975     16973     16982     16984     16977     16975     16973     16980
     16977     16975     16973     16982     16978     16975     16973     16980
     16978     16975     16973     16982     16979     16975     16973     16980
     16979     16975     16973     16982     16980     16973     16982     16984
     16991     16989     16998     17000     16993     16991     16989     16996
     16993     16991     16989     16998     16994     16991     16989     16996
     16994     16991     16989     16998     16995     16991     16989     16996
     16995     16991     16989     16998     16996     16989     16998     17000
     17007     17005     17014     17016     17009     17007     17005     17012
     17009     17007     17005     17014     17010     17007     17005     17012
     17010     17007     17005     17014     17011     17007     17005     17012
     17011     17007     17005     17014     17012     17005     17014     17016
     17023     17021     17030     17032     17025     17023     17021     17028
     17025     17023     17021     17030     17026     17023     17021     17028
     17026     17023     17021     17030     17027     17023     17021     17028
     17027     17023     17021     17030     17028     17021     17030     17032
     17039     17037     17046     17048     17041     17039     17037     17044
     17041     17039     17037     17046     17042     17039     17037     17044
     17042     17039     17037     17046     17043     17039     17037     17044
     17043     17039     17037     17046     17044     17037     17046     17048
     17055     17053     17062     17064     17057     17055     17053     17060
     17057     17055     17053     17062     17058     17055     17053     17060
     17058     17055     17053     17062     17059     17055     17053     17060
     17059     17055     17053     17062     17060     17053     17062     17064
     17071     17069     17078     17080     17073     17071     17069     17076
     17073     17071     17069     17078     17074     17071     17069     17076
     17074     17071     17069     17078     17075     17071     17069     17076
     17075     17071     17069     17078     17076     17069     17078     17080
     17087     17085     17094     17096     17089     17087     17085     17092
     17089     17087     17085     17094     17090     17087     17085     17092
     17090     17087     17085     17094     17091     17087     17085     17092
     17091     17087     17085     17094     17092     17085     17094     17096
     17103     17101     17110     17112     17105     17103     17101     17108
     17105     17103     17101     17110     17106     17103     17101     17108
     17106     17103     17101     17110     17107     17103     17101     17108
     17107     17103     17101     17110     17108     17101     17110     17112
     17119     17117     17126     17128     17121     17119     17117     17124
     17121     17119     17117     17126     17122     17119     17117     17124
     17122     17119     17117     17126     17123     17119     17117     17124
     17123     17119     17117     17126     17124     17117     17126     17128
     17135     17133     17142     17144     17137     17135     17133     17140
     17137     17135     17133     17142     17138     17135     17133     17140
     17138     17135     17133     17142     17139     17135     17133     17140
     17139     17135     17133     17142     17140     17133     17142     17144
     17151     17149     17158     17160     17153     17151     17149     17156
     17153     17151     17149     17158     17154     17151     17149     17156
     17154     17151     17149     17158     17155     17151     17149     17156
     17155     17151     17149     17158     17156     17149     17158     17160
     17167     17165     17174     17176     17169     17167     17165     17172
     17169     17167     17165     17174     17170     17167     17165     17172
     17170     17167     17165     17174     17171     17167     17165     17172
     17171     17167     17165     17174     17172     17165     17174     17176
     17183     17181     17190     17192     17185     17183     17181     17188
     17185     17183     17181     17190     17186     17183     17181     17188
     17186     17183     17181     17190     17187     17183     17181     17188
     17187     17183     17181     17190     17188     17181     17190     17192
     17199     17197     17206     17208     17201     17199     17197     17204
     17201     17199     17197     17206     17202     17199     17197     17204
     17202     17199     17197     17206     17203     17199     17197     17204
     17203     17199     17197     17206     17204     17197     17206     17208
     17215     17213     17222     17224     17217     17215     17213     17220
     17217     17215     17213     17222     17218     17215     17213     17220
     17218     17215     17213     17222     17219     17215     17213     17220
     17219     17215     17213     17222     17220     17213     17222     17224
     17231     17229     17238     17240     17233     17231     17229     17236
     17233     17231     17229     17238     17234     17231     17229     17236
     17234     17231     17229     17238     17235     17231     17229     17236
     17235     17231     17229     17238     17236     17229     17238     17240
     17247     17245     17254     17256     17249     17247     17245     17252
     17249     17247     17245     17254     17250     17247     17245     17252
     17250     17247     17245     17254     17251     17247     17245     17252
     17251     17247     17245     17254     17252     17245     17254     17256
     17263     17261     17270     17272     17265     17263     17261     17268
     17265     17263     17261     17270     17266     17263     17261     17268
     17266     17263     17261     17270     17267     17263     17261     17268
     17267     17263     17261     17270     17268     17261     17270     17272
     17279     17277     17286     17288     17281     17279     17277     17284
     17281     17279     17277     17286     17282     17279     17277     17284
     17282     17279     17277     17286     17283     17279     17277     17284
     17283     17279     17277     17286     17284     17277     17286     17288
     17295     17293     17302     17304     17297     17295     17293     17300
     17297     17295     17293     17302     17298     17295     17293     17300
     17298     17295     17293     17302     17299     17295     17293     17300
     17299     17295     17293     17302     17300     17293     17302     17304
     17311     17309     17318     17320     17313     17311     17309     17316
     17313     17311     17309     17318     17314     17311     17309     17316
     17314     17311     17309     17318     17315     17311     17309     17316
     17315     17311     17309     17318     17316     17309     17318     17320
     17327     17325     17334     17336     17329     17327     17325     17332
     17329     17327     17325     17334     17330     17327     17325     17332
     17330     17327     17325     17334     17331     17327     17325     17332
     17331     17327     17325     17334     17332     17325     17334     17336
     17343     17341     17350     17352     17345     17343     17341     17348
     17345     17343     17341     17350     17346     17343     17341     17348
     17346     17343     17341     17350     17347     17343     17341     17348
     17347     17343     17341     17350     17348     17341     17350     17352
     17359     17357     17366     17368     17361     17359     17357     17364
     17361     17359     17357     17366     17362     17359     17357     17364
     17362     17359     17357     17366     17363     17359     17357     17364
     17363     17359     17357     17366     17364     17357     17366     17368
     17375     17373     17382     17384     17377     17375     17373     17380
     17377     17375     17373     17382     17378     17375     17373     17380
     17378     17375     17373     17382     17379     17375     17373     17380
     17379     17375     17373     17382     17380     17373     17382     17384
     17391     17389     17398     17400     17393     17391     17389     17396
     17393     17391     17389     17398     17394     17391     17389     17396
     17394     17391     17389     17398     17395     17391     17389     17396
     17395     17391     17389     17398     17396     17389     17398     17400
     17407     17405     17414     17416     17409     17407     17405     17412
     17409     17407     17405     17414     17410     17407     17405     17412
     17410     17407     17405     17414     17411     17407     17405     17412
     17411     17407     17405     17414     17412     17405     17414     17416
     17423     17421     17430     17432     17425     17423     17421     17428
     17425     17423     17421     17430     17426     17423     17421     17428
     17426     17423     17421     17430     17427     17423     17421     17428
     17427     17423     17421     17430     17428     17421     17430     17432
     17439     17437     17446     17448     17441     17439     17437     17444
     17441     17439     17437     17446     17442     17439     17437     17444
     17442     17439     17437     17446     17443     17439     17437     17444
     17443     17439     17437     17446     17444     17437     17446     17448
     17455     17453     17462     17464     17457     17455     17453     17460
     17457     17455     17453     17462     17458     17455     17453     17460
     17458     17455     17453     17462     17459     17455     17453     17460
     17459     17455     17453     17462     17460     17453     17462     17464
     17471     17469     17478     17480     17473     17471     17469     17476
     17473     17471     17469     17478     17474     17471     17469     17476
     17474     17471     17469     17478     17475     17471     17469     17476
     17475     17471     17469     17478     17476     17469     17478     17480
     17487     17485     17494     17496     17489     17487     17485     17492
     17489     17487     17485     17494     17490     17487     17485     17492
     17490     17487     17485     17494     17491     17487     17485     17492
     17491     17487     17485     17494     17492     17485     17494     17496
     17503     17501     17510     17512     17505     17503     17501     17508
     17505     17503     17501     17510     17506     17503     17501     17508
     17506     17503     17501     17510     17507     17503     17501     17508
     17507     17503     17501     17510     17508     17501     17510     17512
     17519     17517     17526     17528     17521     17519     17517     17524
     17521     17519     17517     17526     17522     17519     17517     17524
     17522     17519     17517     17526     17523     17519     17517     17524
     17523     17519     17517     17526     17524     17517     17526     17528
     17535     17533     17542     17544     17537     17535     17533     17540
     17537     17535     17533     17542     17538     17535     17533     17540
     17538     17535     17533     17542     17539     17535     17533     17540
     17539     17535     17533     17542     17540     17533     17542     17544
     17551     17549     17558     17560     17553     17551     17549     17556
     17553     17551     17549     17558     17554     17551     17549     17556
     17554     17551     17549     17558     17555     17551     17549     17556
     17555     17551     17549     17558     17556     17549     17558     17560
     17567     17565     17574     17576     17569     17567     17565     17572
     17569     17567     17565     17574     17570     17567     17565     17572
     17570     17567     17565     17574     17571     17567     17565     17572
     17571     17567     17565     17574     17572     17565     17574     17576
     17583     17581     17590     17592     17585     17583     17581     17588
     17585     17583     17581     17590     17586     17583     17581     17588
     17586     17583     17581     17590     17587     17583     17581     17588
     17587     17583     17581     17590     17588     17581     17590     17592
     17599     17597     17606     17608     17601     17599     17597     17604
     17601     17599     17597     17606     17602     17599     17597     17604
     17602     17599     17597     17606     17603     17599     17597     17604
     17603     17599     17597     17606     17604     17597     17606     17608
     17615     17613     17622     17624     17617     17615     17613     17620
     17617     17615     17613     17622     17618     17615     17613     17620
     17618     17615     17613     17622     17619     17615     17613     17620
     17619     17615     17613     17622     17620     17613     17622     17624
     17631     17629     17638     17640     17633     17631     17629     17636
     17633     17631     17629     17638     17634     17631     17629     17636
     17634     17631     17629     17638     17635     17631     17629     17636
     17635     17631     17629     17638     17636     17629     17638     17640
     17647     17645     17654     17656     17649     17647     17645     17652
     17649     17647     17645     17654     17650     17647     17645     17652
     17650     17647     17645     17654     17651     17647     17645     17652
     17651     17647     17645     17654     17652     17645     17654     17656
     17663     17661     17670     17672     17665     17663     17661     17668
     17665     17663     17661     17670     17666     17663     17661     17668
     17666     17663     17661     17670     17667     17663     17661     17668
     17667     17663     17661     17670     17668     17661     17670     17672
     17679     17677     17686     17688     17681     17679     17677     17684
     17681     17679     17677     17686     17682     17679     17677     17684
     17682     17679     17677     17686     17683     17679     17677     17684
     17683     17679     17677     17686     17684     17677     17686     17688
     17695     17693     17702     17704     17697     17695     17693     17700
     17697     17695     17693     17702     17698     17695     17693     17700
     17698     17695     17693     17702     17699     17695     17693     17700
     17699     17695     17693     17702     17700     17693     17702     17704
     17711     17709     17718     17720     17713     17711     17709     17716
     17713     17711     17709     17718     17714     17711     17709     17716
     17714     17711     17709     17718     17715     17711     17709     17716
     17715     17711     17709     17718     17716     17709     17718     17720
     17727     17725     17734     17736     17729     17727     17725     17732
     17729     17727     17725     17734     17730     17727     17725     17732
     17730     17727     17725     17734     17731     17727     17725     17732
     17731     17727     17725     17734     17732     17725     17734     17736
     17743     17741     17750     17752     17745     17743     17741     17748
     17745     17743     17741     17750     17746     17743     17741     17748
     17746     17743     17741     17750     17747     17743     17741     17748
     17747     17743     17741     17750     17748     17741     17750     17752
     17759     17757     17766     17768     17761     17759     17757     17764
     17761     17759     17757     17766     17762     17759     17757     17764
     17762     17759     17757     17766     17763     17759     17757     17764
     17763     17759     17757     17766     17764     17757     17766     17768
     17775     17773     17782     17784     17777     17775     17773     17780
     17777     17775     17773     17782     17778     17775     17773     17780
     17778     17775     17773     17782     17779     17775     17773     17780
     17779     17775     17773     17782     17780     17773     17782     17784
     17791     17789     17798     17800     17793     17791     17789     17796
     17793     17791     17789     17798     17794     17791     17789     17796
     17794     17791     17789     17798     17795     17791     17789     17796
     17795     17791     17789     17798     17796     17789     17798     17800
     17807     17805     17814     17816     17809     17807     17805     17812
     17809     17807     17805     17814     17810     17807     17805     17812
     17810     17807     17805     17814     17811     17807     17805     17812
     17811     17807     17805     17814     17812     17805     17814     17816
     17823     17821     17830     17832     17825     17823     17821     17828
     17825     17823     17821     17830     17826     17823     17821     17828
     17826     17823     17821     17830     17827     17823     17821     17828
     17827     17823     17821     17830     17828     17821     17830     17832
     17839     17837     17846     17848     17841     17839     17837     17844
     17841     17839     17837     17846     17842     17839     17837     17844
     17842     17839     17837     17846     17843     17839     17837     17844
     17843     17839     17837     17846     17844     17837     17846     17848
     17855     17853     17862     17864     17857     17855     17853     17860
     17857     17855     17853     17862     17858     17855     17853     17860
     17858     17855     17853     17862     17859     17855     17853     17860
     17859     17855     17853     17862     17860     17853     17862     17864
     17871     17869     17878     17880     17873     17871     17869     17876
     17873     17871     17869     17878     17874     17871     17869     17876
     17874     17871     17869     17878     17875     17871     17869     17876
     17875     17871     17869     17878     17876     17869     17878     17880
     17887     17885     17894     17896     17889     17887     17885     17892
     17889     17887     17885     17894     17890     17887     17885     17892
     17890     17887     17885     17894     17891     17887     17885     17892
     17891     17887     17885     17894     17892     17885     17894     17896
     17903     17901     17910     17912     17905     17903     17901     17908
     17905     17903     17901     17910     17906     17903     17901     17908
     17906     17903     17901     17910     17907     17903     17901     17908
     17907     17903     17901     17910     17908     17901     17910     17912
     17919     17917     17926     17928     17921     17919     17917     17924
     17921     17919     17917     17926     17922     17919     17917     17924
     17922     17919     17917     17926     17923     17919     17917     17924
     17923     17919     17917     17926     17924     17917     17926     17928
     17935     17933     17942     17944     17937     17935     17933     17940
     17937     17935     17933     17942     17938     17935     17933     17940
     17938     17935     17933     17942     17939     17935     17933     17940
     17939     17935     17933     17942     17940     17933     17942     17944
     17951     17949     17958     17960     17953     17951     17949     17956
     17953     17951     17949     17958     17954     17951     17949     17956
     17954     17951     17949     17958     17955     17951     17949     17956
     17955     17951     17949     17958     17956     17949     17958     17960
     17967     17965     17974     17976     17969     17967     17965     17972
     17969     17967     17965     17974     17970     17967     17965     17972
     17970     17967     17965     17974     17971     17967     17965     17972
     17971     17967     17965     17974     17972     17965     17974     17976
     17983     17981     17990     17992     17985     17983     17981     17988
     17985     17983     17981     17990     17986     17983     17981     17988
     17986     17983     17981     17990     17987     17983     17981     17988
     17987     17983     17981     17990     17988     17981     17990     17992
     17999     17997     18006     18008     18001     17999     17997     18004
     18001     17999     17997     18006     18002     17999     17997     18004
     18002     17999     17997     18006     18003     17999     17997     18004
     18003     17999     17997     18006     18004     17997     18006     18008
     18015     18013     18022     18024     18017     18015     18013     18020
     18017     18015     18013     18022     18018     18015     18013     18020
     18018     18015     18013     18022     18019     18015     18013     18020
     18019     18015     18013     18022     18020     18013     18022     18024
     18031     18029     18038     18040     18033     18031     18029     18036
     18033     18031     18029     18038     18034     18031     18029     18036
     18034     18031     18029     18038     18035     18031     18029     18036
     18035     18031     18029     18038     18036     18029     18038     18040
     18047     18045     18054     18056     18049     18047     18045     18052
     18049     18047     18045     18054     18050     18047     18045     18052
     18050     18047     18045     18054     18051     18047     18045     18052
     18051     18047     18045     18054     18052     18045     18054     18056
     18063     18061     18070     18072     18065     18063     18061     18068
     18065     18063     18061     18070     18066     18063     18061     18068
     18066     18063     18061     18070     18067     18063     18061     18068
     18067     18063     18061     18070     18068     18061     18070     18072
     18079     18077     18086     18088     18081     18079     18077     18084
     18081     18079     18077     18086     18082     18079     18077     18084
     18082     18079     18077     18086     18083     18079     18077     18084
     18083     18079     18077     18086     18084     18077     18086     18088
     18095     18093     18102     18104     18097     18095     18093     18100
     18097     18095     18093     18102     18098     18095     18093     18100
     18098     18095     18093     18102     18099     18095     18093     18100
     18099     18095     18093     18102     18100     18093     18102     18104
     18111     18109     18118     18120     18113     18111     18109     18116
     18113     18111     18109     18118     18114     18111     18109     18116
     18114     18111     18109     18118     18115     18111     18109     18116
     18115     18111     18109     18118     18116     18109     18118     18120
     18127     18125     18134     18136     18129     18127     18125     18132
     18129     18127     18125     18134     18130     18127     18125     18132
     18130     18127     18125     18134     18131     18127     18125     18132
     18131     18127     18125     18134     18132     18125     18134     18136
     18141     18143     18145     18147     18141     18143     18145     18155
     18141     18185     18183     18181     18141     18185     18183     18189
     18141     18185     18187     18147     18141     18185     18187     18177
     18143     18141     18185     18183     18143     18141     18185     18187
     18143     18145     18147     18149     18143     18145     18147     18187
     18143     18145     18155     18153     18143     18145     18155     18157
     18145     18143     18141     18185     18145     18143     18141     18199
     18145     18147     18149     18151     18145     18147     18149     18173
     18145     18147     18187     18177     18145     18147     18187     18185
     18145     18155     18153     18151     18145     18155     18153     18201
     18145     18155     18157     18159     18145     18155     18157     18161
     18145     18155     18157     18163     18147     18145     18143     18200
     18147     18145     18155     18153     18147     18145     18155     18157
     18147     18149     18151     18153     18147     18149     18151     18165
     18147     18149     18173     18175     18147     18149     18173     18202
     18147     18187     18177     18175     18147     18187     18177     18179
     18147     18187     18185     18183     18149     18147     18145     18155
     18149     18147     18187     18177     18149     18147     18187     18185
     18149     18151     18153     18155     18149     18151     18153     18201
     18149     18151     18165     18167     18149     18151     18165     18169
     18149     18151     18165     18171     18149     18173     18175     18177
     18149     18173     18175     18203     18151     18149     18147     18187
     18151     18149     18173     18175     18151     18149     18173     18202
     18151     18153     18155     18157     18153     18151     18149     18173
     18153     18151     18165     18167     18153     18151     18165     18169
     18153     18151     18165     18171     18153     18155     18157     18159
     18153     18155     18157     18161     18153     18155     18157     18163
     18155     18145     18143     18200     18155     18145     18147     18187
     18155     18153     18151     18165     18157     18155     18153     18201
     18165     18151     18149     18173     18165     18151     18153     18201
     18173     18149     18147     18187     18173     18175     18177     18179
     18173     18175     18177     18187     18175     18177     18179     18181
     18175     18177     18179     18191     18175     18177     18187     18185
     18177     18175     18173     18202     18177     18179     18181     18183
     18177     18179     18181     18204     18177     18179     18191     18193
     18177     18179     18191     18195     18177     18179     18191     18197
     18177     18187     18185     18183     18179     18177     18175     18203
     18179     18177     18187     18185     18179     18181     18183     18185
     18179     18181     18183     18189     18181     18179     18177     18187
     18181     18179     18191     18193     18181     18179     18191     18195
     18181     18179     18191     18197     18181     18183     18185     18187
     18181     18183     18189     18205     18183     18181     18179     18191
     18183     18185     18141     18199     18185     18141     18143     18200
     18185     18183     18181     18204     18185     18183     18189     18205
     18187     18177     18175     18203     18187     18177     18179     18191
     18187     18185     18141     18199     18187     18185     18183     18189
     18189     18183     18181     18204     18191     18179     18181     18204
     18199     18141     18143     18200     18202     18173     18175     18203
     18226     18228     18230     18232     18226     18228     18230     18240
     18226     18270     18268     18266     18226     18270     18268     18274
     18226     18270     18272     18232     18226     18270     18272     18262
     18228     18226     18270     18268     18228     18226     18270     18272
     18228     18230     18232     18234     18228     18230     18232     18272
     18228     18230     18240     18238     18228     18230     18240     18242
     18230     18228     18226     18270     18230     18228     18226     18284
     18230     18232     18234     18236     18230     18232     18234     18258
     18230     18232     18272     18262     18230     18232     18272     18270
     18230     18240     18238     18236     18230     18240     18238     18286
     18230     18240     18242     18244     18230     18240     18242     18246
     18230     18240     18242     18248     18232     18230     18228     18285
     18232     18230     18240     18238     18232     18230     18240     18242
     18232     18234     18236     18238     18232     18234     18236     18250
     18232     18234     18258     18260     18232     18234     18258     18287
     18232     18272     18262     18260     18232     18272     18262     18264
     18232     18272     18270     18268     18234     18232     18230     18240
     18234     18232     18272     18262     18234     18232     18272     18270
     18234     18236     18238     18240     18234     18236     18238     18286
     18234     18236     18250     18252     18234     18236     18250     18254
     18234     18236     18250     18256     18234     18258     18260     18262
     18234     18258     18260     18288     18236     18234     18232     18272
     18236     18234     18258     18260     18236     18234     18258     18287
     18236     18238     18240     18242     18238     18236     18234     18258
     18238     18236     18250     18252     18238     18236     18250     18254
     18238     18236     18250     18256     18238     18240     18242     18244
     18238     18240     18242     18246     18238     18240     18242     18248
     18240     18230     18228     18285     18240     18230     18232     18272
     18240     18238     18236     18250     18242     18240     18238     18286
     18250     18236     18234     18258     18250     18236     18238     18286
     18258     18234     18232     18272     18258     18260     18262     18264
     18258     18260     18262     18272     18260     18262     18264     18266
     18260     18262     18264     18276     18260     18262     18272     18270
     18262     18260     18258     18287     18262     18264     18266     18268
     18262     18264     18266     18289     18262     18264     18276     18278
     18262     18264     18276     18280     18262     18264     18276     18282
     18262     18272     18270     18268     18264     18262     18260     18288
     18264     18262     18272     18270     18264     18266     18268     18270
     18264     18266     18268     18274     18266     18264     18262     18272
     18266     18264     18276     18278     18266     18264     18276     18280
     18266     18264     18276     18282     18266     18268     18270     18272
     18266     18268     18274     18290     18268     18266     18264     18276
     18268     18270     18226     18284     18270     18226     18228     18285
     18270     18268     18266     18289     18270     18268     18274     18290
     18272     18262     18260     18288     18272     18262     18264     18276
     18272     18270     18226     18284     18272     18270     18268     18274
     18274     18268     18266     18289     18276     18264     18266     18289
     18284     18226     18228     18285     18287     18258     18260     18288

      3035 !NIMPHI: impropers
         8        11         6        10        11         8        17        13
        14         6        17        16        17        14        11        19
         6        14         8         1        28        31        26        30
        31        28        37        33        34        26        37        36
        37        34        31        39        26        34        28        21
        48        51        46        50        51        48        57        53
        54        46        57        56        57        54        51        59
        46        54        48        41        68        71        66        70
        71        68        77        73        74        66        77        76
        77        74        71        79        66        74        68        61
        88        91        86        90        91        88        97        93
        94        86        97        96        97        94        91        99
        86        94        88        81       108       111       106       110
       111       108       117       113       114       106       117       116
       117       114       111       119       106       114       108       101
       128       131       126       130       131       128       137       133
       134       126       137       136       137       134       131       139
       126       134       128       121       148       151       146       150
       151       148       157       153       154       146       157       156
       157       154       151       159       146       154       148       141
       168       171       166       170       171       168       177       173
       174       166       177       176       177       174       171       179
       166       174       168       161       188       191       186       190
       191       188       197       193       194       186       197       196
       197       194       191       199       186       194       188       181
       208       211       206       210       211       208       217       213
       214       206       217       216       217       214       211       219
       206       214       208       201       228       231       226       230
       231       228       237       233       234       226       237       236
       237       234       231       239       226       234       228       221
       248       251       246       250       251       248       257       253
       254       246       257       256       257       254       251       259
       246       254       248       241       268       271       266       270
       271       268       277       273       274       266       277       276
       277       274       271       279       266       274       268       261
       288       291       286       290       291       288       297       293
       294       286       297       296       297       294       291       299
       286       294       288       281       308       311       306       310
       311       308       317       313       314       306       317       316
       317       314       311       319       306       314       308       301
       328       331       326       330       331       328       337       333
       334       326       337       336       337       334       331       339
       326       334       328       321       348       351       346       350
       351       348       357       353       354       346       357       356
       357       354       351       359       346       354       348       341
       368       371       366       370       371       368       377       373
       374       366       377       376       377       374       371       379
       366       374       368       361       388       391       386       390
       391       388       397       393       394       386       397       396
       397       394       391       399       386       394       388       381
       408       411       406       410       411       408       417       413
       414       406       417       416       417       414       411       419
       406       414       408       401       428       431       426       430
       431       428       437       433       434       426       437       436
       437       434       431       439       426       434       428       421
       448       451       446       450       451       448       457       453
       454       446       457       456       457       454       451       459
       446       454       448       441       468       471       466       470
       471       468       477       473       474       466       477       476
       477       474       471       479       466       474       468       461
       488       491       486       490       491       488       497       493
       494       486       497       496       497       494       491       499
       486       494       488       481       508       511       506       510
       511       508       517       513       514       506       517       516
       517       514       511       519       506       514       508       501
       528       531       526       530       531       528       537       533
       534       526       537       536       537       534       531       539
       526       534       528       521       548       551       546       550
       551       548       557       553       554       546       557       556
       557       554       551       559       546       554       548       541
       568       571       566       570       571       568       577       573
       574       566       577       576       577       574       571       579
       566       574       568       561       588       591       586       590
       591       588       597       593       594       586       597       596
       597       594       591       599       586       594       588       581
       608       611       606       610       611       608       617       613
       614       606       617       616       617       614       611       619
       606       614       608       601       628       631       626       630
       631       628       637       633       634       626       637       636
       637       634       631       639       626       634       628       621
       648       651       646       650       651       648       657       653
       654       646       657       656       657       654       651       659
       646       654       648       641       668       671       666       670
       671       668       677       673       674       666       677       676
       677       674       671       679       666       674       668       661
       688       691       686       690       691       688       697       693
       694       686       697       696       697       694       691       699
       686       694       688       681       708       711       706       710
       711       708       717       713       714       706       717       716
       717       714       711       719       706       714       708       701
       728       731       726       730       731       728       737       733
       734       726       737       736       737       734       731       739
       726       734       728       721       748       751       746       750
       751       748       757       753       754       746       757       756
       757       754       751       759       746       754       748       741
       768       771       766       770       771       768       777       773
       774       766       777       776       777       774       771       779
       766       774       768       761       788       791       786       790
       791       788       797       793       794       786       797       796
       797       794       791       799       786       794       788       781
       808       811       806       810       811       808       817       813
       814       806       817       816       817       814       811       819
       806       814       808       801       828       831       826       830
       831       828       837       833       834       826       837       836
       837       834       831       839       826       834       828       821
       848       851       846       850       851       848       857       853
       854       846       857       856       857       854       851       859
       846       854       848       841       868       871       866       870
       871       868       877       873       874       866       877       876
       877       874       871       879       866       874       868       861
       888       891       886       890       891       888       897       893
       894       886       897       896       897       894       891       899
       886       894       888       881       908       911       906       910
       911       908       917       913       914       906       917       916
       917       914       911       919       906       914       908       901
       928       931       926       930       931       928       937       933
       934       926       937       936       937       934       931       939
       926       934       928       921       948       951       946       950
       951       948       957       953       954       946       957       956
       957       954       951       959       946       954       948       941
       968       971       966       970       971       968       977       973
       974       966       977       976       977       974       971       979
       966       974       968       961       988       991       986       990
       991       988       997       993       994       986       997       996
       997       994       991       999       986       994       988       981
      1008      1011      1006      1010      1011      1008      1017      1013
      1014      1006      1017      1016      1017      1014      1011      1019
      1006      1014      1008      1001      1028      1031      1026      1030
      1031      1028      1037      1033      1034      1026      1037      1036
      1037      1034      1031      1039      1026      1034      1028      1021
      1048      1051      1046      1050      1051      1048      1057      1053
      1054      1046      1057      1056      1057      1054      1051      1059
      1046      1054      1048      1041      1068      1071      1066      1070
      1071      1068      1077      1073      1074      1066      1077      1076
      1077      1074      1071      1079      1066      1074      1068      1061
      1088      1091      1086      1090      1091      1088      1097      1093
      1094      1086      1097      1096      1097      1094      1091      1099
      1086      1094      1088      1081      1108      1111      1106      1110
      1111      1108      1117      1113      1114      1106      1117      1116
      1117      1114      1111      1119      1106      1114      1108      1101
      1128      1131      1126      1130      1131      1128      1137      1133
      1134      1126      1137      1136      1137      1134      1131      1139
      1126      1134      1128      1121      1148      1151      1146      1150
      1151      1148      1157      1153      1154      1146      1157      1156
      1157      1154      1151      1159      1146      1154      1148      1141
      1168      1171      1166      1170      1171      1168      1177      1173
      1174      1166      1177      1176      1177      1174      1171      1179
      1166      1174      1168      1161      1188      1191      1186      1190
      1191      1188      1197      1193      1194      1186      1197      1196
      1197      1194      1191      1199      1186      1194      1188      1181
      1208      1211      1206      1210      1211      1208      1217      1213
      1214      1206      1217      1216      1217      1214      1211      1219
      1206      1214      1208      1201      1228      1231      1226      1230
      1231      1228      1237      1233      1234      1226      1237      1236
      1237      1234      1231      1239      1226      1234      1228      1221
      1248      1251      1246      1250      1251      1248      1257      1253
      1254      1246      1257      1256      1257      1254      1251      1259
      1246      1254      1248      1241      1268      1271      1266      1270
      1271      1268      1277      1273      1274      1266      1277      1276
      1277      1274      1271      1279      1266      1274      1268      1261
      1288      1291      1286      1290      1291      1288      1297      1293
      1294      1286      1297      1296      1297      1294      1291      1299
      1286      1294      1288      1281      1308      1311      1306      1310
      1311      1308      1317      1313      1314      1306      1317      1316
      1317      1314      1311      1319      1306      1314      1308      1301
      1328      1331      1326      1330      1331      1328      1337      1333
      1334      1326      1337      1336      1337      1334      1331      1339
      1326      1334      1328      1321      1348      1351      1346      1350
      1351      1348      1357      1353      1354      1346      1357      1356
      1357      1354      1351      1359      1346      1354      1348      1341
      1368      1371      1366      1370      1371      1368      1377      1373
      1374      1366      1377      1376      1377      1374      1371      1379
      1366      1374      1368      1361      1388      1391      1386      1390
      1391      1388      1397      1393      1394      1386      1397      1396
      1397      1394      1391      1399      1386      1394      1388      1381
      1408      1411      1406      1410      1411      1408      1417      1413
      1414      1406      1417      1416      1417      1414      1411      1419
      1406      1414      1408      1401      1428      1431      1426      1430
      1431      1428      1437      1433      1434      1426      1437      1436
      1437      1434      1431      1439      1426      1434      1428      1421
      1448      1451      1446      1450      1451      1448      1457      1453
      1454      1446      1457      1456      1457      1454      1451      1459
      1446      1454      1448      1441      1468      1471      1466      1470
      1471      1468      1477      1473      1474      1466      1477      1476
      1477      1474      1471      1479      1466      1474      1468      1461
      1488      1491      1486      1490      1491      1488      1497      1493
      1494      1486      1497      1496      1497      1494      1491      1499
      1486      1494      1488      1481      1508      1511      1506      1510
      1511      1508      1517      1513      1514      1506      1517      1516
      1517      1514      1511      1519      1506      1514      1508      1501
      1528      1531      1526      1530      1531      1528      1537      1533
      1534      1526      1537      1536      1537      1534      1531      1539
      1526      1534      1528      1521      1548      1551      1546      1550
      1551      1548      1557      1553      1554      1546      1557      1556
      1557      1554      1551      1559      1546      1554      1548      1541
      1568      1571      1566      1570      1571      1568      1577      1573
      1574      1566      1577      1576      1577      1574      1571      1579
      1566      1574      1568      1561      1588      1591      1586      1590
      1591      1588      1597      1593      1594      1586      1597      1596
      1597      1594      1591      1599      1586      1594      1588      1581
      1608      1611      1606      1610      1611      1608      1617      1613
      1614      1606      1617      1616      1617      1614      1611      1619
      1606      1614      1608      1601      1628      1631      1626      1630
      1631      1628      1637      1633      1634      1626      1637      1636
      1637      1634      1631      1639      1626      1634      1628      1621
      1648      1651      1646      1650      1651      1648      1657      1653
      1654      1646      1657      1656      1657      1654      1651      1659
      1646      1654      1648      1641      1668      1671      1666      1670
      1671      1668      1677      1673      1674      1666      1677      1676
      1677      1674      1671      1679      1666      1674      1668      1661
      1688      1691      1686      1690      1691      1688      1697      1693
      1694      1686      1697      1696      1697      1694      1691      1699
      1686      1694      1688      1681      1708      1711      1706      1710
      1711      1708      1717      1713      1714      1706      1717      1716
      1717      1714      1711      1719      1706      1714      1708      1701
      1728      1731      1726      1730      1731      1728      1737      1733
      1734      1726      1737      1736      1737      1734      1731      1739
      1726      1734      1728      1721      1748      1751      1746      1750
      1751      1748      1757      1753      1754      1746      1757      1756
      1757      1754      1751      1759      1746      1754      1748      1741
      1768      1771      1766      1770      1771      1768      1777      1773
      1774      1766      1777      1776      1777      1774      1771      1779
      1766      1774      1768      1761      1788      1791      1786      1790
      1791      1788      1797      1793      1794      1786      1797      1796
      1797      1794      1791      1799      1786      1794      1788      1781
      1808      1811      1806      1810      1811      1808      1817      1813
      1814      1806      1817      1816      1817      1814      1811      1819
      1806      1814      1808      1801      1828      1831      1826      1830
      1831      1828      1837      1833      1834      1826      1837      1836
      1837      1834      1831      1839      1826      1834      1828      1821
      1848      1851      1846      1850      1851      1848      1857      1853
      1854      1846      1857      1856      1857      1854      1851      1859
      1846      1854      1848      1841      1868      1871      1866      1870
      1871      1868      1877      1873      1874      1866      1877      1876
      1877      1874      1871      1879      1866      1874      1868      1861
      1888      1891      1886      1890      1891      1888      1897      1893
      1894      1886      1897      1896      1897      1894      1891      1899
      1886      1894      1888      1881      1908      1911      1906      1910
      1911      1908      1917      1913      1914      1906      1917      1916
      1917      1914      1911      1919      1906      1914      1908      1901
      1928      1931      1926      1930      1931      1928      1937      1933
      1934      1926      1937      1936      1937      1934      1931      1939
      1926      1934      1928      1921      1948      1951      1946      1950
      1951      1948      1957      1953      1954      1946      1957      1956
      1957      1954      1951      1959      1946      1954      1948      1941
      1968      1971      1966      1970      1971      1968      1977      1973
      1974      1966      1977      1976      1977      1974      1971      1979
      1966      1974      1968      1961      1988      1991      1986      1990
      1991      1988      1997      1993      1994      1986      1997      1996
      1997      1994      1991      1999      1986      1994      1988      1981
      2008      2011      2006      2010      2011      2008      2017      2013
      2014      2006      2017      2016      2017      2014      2011      2019
      2006      2014      2008      2001      2028      2031      2026      2030
      2031      2028      2037      2033      2034      2026      2037      2036
      2037      2034      2031      2039      2026      2034      2028      2021
      2048      2051      2046      2050      2051      2048      2057      2053
      2054      2046      2057      2056      2057      2054      2051      2059
      2046      2054      2048      2041      2068      2071      2066      2070
      2071      2068      2077      2073      2074      2066      2077      2076
      2077      2074      2071      2079      2066      2074      2068      2061
      2088      2091      2086      2090      2091      2088      2097      2093
      2094      2086      2097      2096      2097      2094      2091      2099
      2086      2094      2088      2081      2108      2111      2106      2110
      2111      2108      2117      2113      2114      2106      2117      2116
      2117      2114      2111      2119      2106      2114      2108      2101
      2128      2131      2126      2130      2131      2128      2137      2133
      2134      2126      2137      2136      2137      2134      2131      2139
      2126      2134      2128      2121      2148      2151      2146      2150
      2151      2148      2157      2153      2154      2146      2157      2156
      2157      2154      2151      2159      2146      2154      2148      2141
      2168      2171      2166      2170      2171      2168      2177      2173
      2174      2166      2177      2176      2177      2174      2171      2179
      2166      2174      2168      2161      2188      2191      2186      2190
      2191      2188      2197      2193      2194      2186      2197      2196
      2197      2194      2191      2199      2186      2194      2188      2181
      2208      2211      2206      2210      2211      2208      2217      2213
      2214      2206      2217      2216      2217      2214      2211      2219
      2206      2214      2208      2201      2228      2231      2226      2230
      2231      2228      2237      2233      2234      2226      2237      2236
      2237      2234      2231      2239      2226      2234      2228      2221
      2248      2251      2246      2250      2251      2248      2257      2253
      2254      2246      2257      2256      2257      2254      2251      2259
      2246      2254      2248      2241      2268      2271      2266      2270
      2271      2268      2277      2273      2274      2266      2277      2276
      2277      2274      2271      2279      2266      2274      2268      2261
      2288      2291      2286      2290      2291      2288      2297      2293
      2294      2286      2297      2296      2297      2294      2291      2299
      2286      2294      2288      2281      2308      2311      2306      2310
      2311      2308      2317      2313      2314      2306      2317      2316
      2317      2314      2311      2319      2306      2314      2308      2301
      2328      2331      2326      2330      2331      2328      2337      2333
      2334      2326      2337      2336      2337      2334      2331      2339
      2326      2334      2328      2321      2348      2351      2346      2350
      2351      2348      2357      2353      2354      2346      2357      2356
      2357      2354      2351      2359      2346      2354      2348      2341
      2368      2371      2366      2370      2371      2368      2377      2373
      2374      2366      2377      2376      2377      2374      2371      2379
      2366      2374      2368      2361      2388      2391      2386      2390
      2391      2388      2397      2393      2394      2386      2397      2396
      2397      2394      2391      2399      2386      2394      2388      2381
      2408      2411      2406      2410      2411      2408      2417      2413
      2414      2406      2417      2416      2417      2414      2411      2419
      2406      2414      2408      2401      2428      2431      2426      2430
      2431      2428      2437      2433      2434      2426      2437      2436
      2437      2434      2431      2439      2426      2434      2428      2421
      2448      2451      2446      2450      2451      2448      2457      2453
      2454      2446      2457      2456      2457      2454      2451      2459
      2446      2454      2448      2441      2468      2471      2466      2470
      2471      2468      2477      2473      2474      2466      2477      2476
      2477      2474      2471      2479      2466      2474      2468      2461
      2488      2491      2486      2490      2491      2488      2497      2493
      2494      2486      2497      2496      2497      2494      2491      2499
      2486      2494      2488      2481      2508      2511      2506      2510
      2511      2508      2517      2513      2514      2506      2517      2516
      2517      2514      2511      2519      2506      2514      2508      2501
      2528      2531      2526      2530      2531      2528      2537      2533
      2534      2526      2537      2536      2537      2534      2531      2539
      2526      2534      2528      2521      2548      2551      2546      2550
      2551      2548      2557      2553      2554      2546      2557      2556
      2557      2554      2551      2559      2546      2554      2548      2541
      2568      2571      2566      2570      2571      2568      2577      2573
      2574      2566      2577      2576      2577      2574      2571      2579
      2566      2574      2568      2561      2588      2591      2586      2590
      2591      2588      2597      2593      2594      2586      2597      2596
      2597      2594      2591      2599      2586      2594      2588      2581
      2608      2611      2606      2610      2611      2608      2617      2613
      2614      2606      2617      2616      2617      2614      2611      2619
      2606      2614      2608      2601      2628      2631      2626      2630
      2631      2628      2637      2633      2634      2626      2637      2636
      2637      2634      2631      2639      2626      2634      2628      2621
      2648      2651      2646      2650      2651      2648      2657      2653
      2654      2646      2657      2656      2657      2654      2651      2659
      2646      2654      2648      2641      2668      2671      2666      2670
      2671      2668      2677      2673      2674      2666      2677      2676
      2677      2674      2671      2679      2666      2674      2668      2661
      2688      2691      2686      2690      2691      2688      2697      2693
      2694      2686      2697      2696      2697      2694      2691      2699
      2686      2694      2688      2681      2708      2711      2706      2710
      2711      2708      2717      2713      2714      2706      2717      2716
      2717      2714      2711      2719      2706      2714      2708      2701
      2728      2731      2726      2730      2731      2728      2737      2733
      2734      2726      2737      2736      2737      2734      2731      2739
      2726      2734      2728      2721      2748      2751      2746      2750
      2751      2748      2757      2753      2754      2746      2757      2756
      2757      2754      2751      2759      2746      2754      2748      2741
      2768      2771      2766      2770      2771      2768      2777      2773
      2774      2766      2777      2776      2777      2774      2771      2779
      2766      2774      2768      2761      2788      2791      2786      2790
      2791      2788      2797      2793      2794      2786      2797      2796
      2797      2794      2791      2799      2786      2794      2788      2781
      2808      2811      2806      2810      2811      2808      2817      2813
      2814      2806      2817      2816      2817      2814      2811      2819
      2806      2814      2808      2801      2828      2831      2826      2830
      2831      2828      2837      2833      2834      2826      2837      2836
      2837      2834      2831      2839      2826      2834      2828      2821
      2848      2851      2846      2850      2851      2848      2857      2853
      2854      2846      2857      2856      2857      2854      2851      2859
      2846      2854      2848      2841      2868      2871      2866      2870
      2871      2868      2877      2873      2874      2866      2877      2876
      2877      2874      2871      2879      2866      2874      2868      2861
      2888      2891      2886      2890      2891      2888      2897      2893
      2894      2886      2897      2896      2897      2894      2891      2899
      2886      2894      2888      2881      2908      2911      2906      2910
      2911      2908      2917      2913      2914      2906      2917      2916
      2917      2914      2911      2919      2906      2914      2908      2901
      2928      2931      2926      2930      2931      2928      2937      2933
      2934      2926      2937      2936      2937      2934      2931      2939
      2926      2934      2928      2921      2948      2951      2946      2950
      2951      2948      2957      2953      2954      2946      2957      2956
      2957      2954      2951      2959      2946      2954      2948      2941
      2968      2971      2966      2970      2971      2968      2977      2973
      2974      2966      2977      2976      2977      2974      2971      2979
      2966      2974      2968      2961      2988      2991      2986      2990
      2991      2988      2997      2993      2994      2986      2997      2996
      2997      2994      2991      2999      2986      2994      2988      2981
      3008      3011      3006      3010      3011      3008      3017      3013
      3014      3006      3017      3016      3017      3014      3011      3019
      3006      3014      3008      3001      3028      3031      3026      3030
      3031      3028      3037      3033      3034      3026      3037      3036
      3037      3034      3031      3039      3026      3034      3028      3021
      3048      3051      3046      3050      3051      3048      3057      3053
      3054      3046      3057      3056      3057      3054      3051      3059
      3046      3054      3048      3041      3068      3071      3066      3070
      3071      3068      3077      3073      3074      3066      3077      3076
      3077      3074      3071      3079      3066      3074      3068      3061
      3088      3091      3086      3090      3091      3088      3097      3093
      3094      3086      3097      3096      3097      3094      3091      3099
      3086      3094      3088      3081      3108      3111      3106      3110
      3111      3108      3117      3113      3114      3106      3117      3116
      3117      3114      3111      3119      3106      3114      3108      3101
      3128      3131      3126      3130      3131      3128      3137      3133
      3134      3126      3137      3136      3137      3134      3131      3139
      3126      3134      3128      3121      3148      3143      3150      3141
      3164      3159      3166      3157      3180      3175      3182      3173
      3196      3191      3198      3189      3212      3207      3214      3205
      3228      3223      3230      3221      3244      3239      3246      3237
      3260      3255      3262      3253      3276      3271      3278      3269
      3292      3287      3294      3285      3308      3303      3310      3301
      3324      3319      3326      3317      3340      3335      3342      3333
      3356      3351      3358      3349      3372      3367      3374      3365
      3388      3383      3390      3381      3404      3399      3406      3397
      3420      3415      3422      3413      3436      3431      3438      3429
      3452      3447      3454      3445      3468      3463      3470      3461
      3484      3479      3486      3477      3500      3495      3502      3493
      3516      3511      3518      3509      3532      3527      3534      3525
      3548      3543      3550      3541      3564      3559      3566      3557
      3580      3575      3582      3573      3596      3591      3598      3589
      3612      3607      3614      3605      3628      3623      3630      3621
      3644      3639      3646      3637      3660      3655      3662      3653
      3676      3671      3678      3669      3692      3687      3694      3685
      3708      3703      3710      3701      3724      3719      3726      3717
      3740      3735      3742      3733      3756      3751      3758      3749
      3772      3767      3774      3765      3788      3783      3790      3781
      3804      3799      3806      3797      3820      3815      3822      3813
      3836      3831      3838      3829      3852      3847      3854      3845
      3868      3863      3870      3861      3884      3879      3886      3877
      3900      3895      3902      3893      3916      3911      3918      3909
      3932      3927      3934      3925      3948      3943      3950      3941
      3964      3959      3966      3957      3980      3975      3982      3973
      3996      3991      3998      3989      4012      4007      4014      4005
      4028      4023      4030      4021      4044      4039      4046      4037
      4060      4055      4062      4053      4076      4071      4078      4069
      4092      4087      4094      4085      4108      4103      4110      4101
      4124      4119      4126      4117      4140      4135      4142      4133
      4156      4151      4158      4149      4172      4167      4174      4165
      4188      4183      4190      4181      4204      4199      4206      4197
      4220      4215      4222      4213      4236      4231      4238      4229
      4252      4247      4254      4245      4268      4263      4270      4261
      4284      4279      4286      4277      4300      4295      4302      4293
      4316      4311      4318      4309      4332      4327      4334      4325
      4348      4343      4350      4341      4364      4359      4366      4357
      4380      4375      4382      4373      4396      4391      4398      4389
      4412      4407      4414      4405      4428      4423      4430      4421
      4444      4439      4446      4437      4460      4455      4462      4453
      4476      4471      4478      4469      4492      4487      4494      4485
      4508      4503      4510      4501      4524      4519      4526      4517
      4540      4535      4542      4533      4556      4551      4558      4549
      4572      4567      4574      4565      4588      4583      4590      4581
      4604      4599      4606      4597      4620      4615      4622      4613
      4636      4631      4638      4629      4652      4647      4654      4645
      4668      4663      4670      4661      4684      4679      4686      4677
      4700      4695      4702      4693      4716      4711      4718      4709
      4732      4727      4734      4725      4748      4743      4750      4741
      4764      4759      4766      4757      4780      4775      4782      4773
      4796      4791      4798      4789      4812      4807      4814      4805
      4828      4823      4830      4821      4844      4839      4846      4837
      4860      4855      4862      4853      4876      4871      4878      4869
      4892      4887      4894      4885      4908      4903      4910      4901
      4924      4919      4926      4917      4940      4935      4942      4933
      4956      4951      4958      4949      4972      4967      4974      4965
      4988      4983      4990      4981      5004      4999      5006      4997
      5020      5015      5022      5013      5036      5031      5038      5029
      5052      5047      5054      5045      5068      5063      5070      5061
      5084      5079      5086      5077      5100      5095      5102      5093
      5116      5111      5118      5109      5132      5127      5134      5125
      5148      5143      5150      5141      5164      5159      5166      5157
      5180      5175      5182      5173      5196      5191      5198      5189
      5212      5207      5214      5205      5228      5223      5230      5221
      5244      5239      5246      5237      5260      5255      5262      5253
      5276      5271      5278      5269      5292      5287      5294      5285
      5308      5303      5310      5301      5324      5319      5326      5317
      5340      5335      5342      5333      5356      5351      5358      5349
      5372      5367      5374      5365      5388      5383      5390      5381
      5404      5399      5406      5397      5420      5415      5422      5413
      5436      5431      5438      5429      5452      5447      5454      5445
      5468      5463      5470      5461      5484      5479      5486      5477
      5500      5495      5502      5493      5516      5511      5518      5509
      5532      5527      5534      5525      5548      5551      5546      5550
      5551      5548      5557      5553      5554      5546      5557      5556
      5557      5554      5551      5559      5546      5554      5548      5541
      5568      5571      5566      5570      5571      5568      5577      5573
      5574      5566      5577      5576      5577      5574      5571      5579
      5566      5574      5568      5561      5588      5591      5586      5590
      5591      5588      5597      5593      5594      5586      5597      5596
      5597      5594      5591      5599      5586      5594      5588      5581
      5608      5611      5606      5610      5611      5608      5617      5613
      5614      5606      5617      5616      5617      5614      5611      5619
      5606      5614      5608      5601      5628      5631      5626      5630
      5631      5628      5637      5633      5634      5626      5637      5636
      5637      5634      5631      5639      5626      5634      5628      5621
      5648      5651      5646      5650      5651      5648      5657      5653
      5654      5646      5657      5656      5657      5654      5651      5659
      5646      5654      5648      5641      5668      5671      5666      5670
      5671      5668      5677      5673      5674      5666      5677      5676
      5677      5674      5671      5679      5666      5674      5668      5661
      5688      5691      5686      5690      5691      5688      5697      5693
      5694      5686      5697      5696      5697      5694      5691      5699
      5686      5694      5688      5681      5708      5711      5706      5710
      5711      5708      5717      5713      5714      5706      5717      5716
      5717      5714      5711      5719      5706      5714      5708      5701
      5728      5731      5726      5730      5731      5728      5737      5733
      5734      5726      5737      5736      5737      5734      5731      5739
      5726      5734      5728      5721      5748      5751      5746      5750
      5751      5748      5757      5753      5754      5746      5757      5756
      5757      5754      5751      5759      5746      5754      5748      5741
      5768      5771      5766      5770      5771      5768      5777      5773
      5774      5766      5777      5776      5777      5774      5771      5779
      5766      5774      5768      5761      5788      5791      5786      5790
      5791      5788      5797      5793      5794      5786      5797      5796
      5797      5794      5791      5799      5786      5794      5788      5781
      5808      5811      5806      5810      5811      5808      5817      5813
      5814      5806      5817      5816      5817      5814      5811      5819
      5806      5814      5808      5801      5828      5831      5826      5830
      5831      5828      5837      5833      5834      5826      5837      5836
      5837      5834      5831      5839      5826      5834      5828      5821
      5848      5851      5846      5850      5851      5848      5857      5853
      5854      5846      5857      5856      5857      5854      5851      5859
      5846      5854      5848      5841      5868      5871      5866      5870
      5871      5868      5877      5873      5874      5866      5877      5876
      5877      5874      5871      5879      5866      5874      5868      5861
      5888      5891      5886      5890      5891      5888      5897      5893
      5894      5886      5897      5896      5897      5894      5891      5899
      5886      5894      5888      5881      5908      5911      5906      5910
      5911      5908      5917      5913      5914      5906      5917      5916
      5917      5914      5911      5919      5906      5914      5908      5901
      5928      5931      5926      5930      5931      5928      5937      5933
      5934      5926      5937      5936      5937      5934      5931      5939
      5926      5934      5928      5921      5948      5951      5946      5950
      5951      5948      5957      5953      5954      5946      5957      5956
      5957      5954      5951      5959      5946      5954      5948      5941
      5968      5971      5966      5970      5971      5968      5977      5973
      5974      5966      5977      5976      5977      5974      5971      5979
      5966      5974      5968      5961      5988      5991      5986      5990
      5991      5988      5997      5993      5994      5986      5997      5996
      5997      5994      5991      5999      5986      5994      5988      5981
      6008      6011      6006      6010      6011      6008      6017      6013
      6014      6006      6017      6016      6017      6014      6011      6019
      6006      6014      6008      6001      6028      6031      6026      6030
      6031      6028      6037      6033      6034      6026      6037      6036
      6037      6034      6031      6039      6026      6034      6028      6021
      6048      6051      6046      6050      6051      6048      6057      6053
      6054      6046      6057      6056      6057      6054      6051      6059
      6046      6054      6048      6041      6068      6071      6066      6070
      6071      6068      6077      6073      6074      6066      6077      6076
      6077      6074      6071      6079      6066      6074      6068      6061
      6088      6091      6086      6090      6091      6088      6097      6093
      6094      6086      6097      6096      6097      6094      6091      6099
      6086      6094      6088      6081      6108      6111      6106      6110
      6111      6108      6117      6113      6114      6106      6117      6116
      6117      6114      6111      6119      6106      6114      6108      6101
      6128      6131      6126      6130      6131      6128      6137      6133
      6134      6126      6137      6136      6137      6134      6131      6139
      6126      6134      6128      6121      6148      6151      6146      6150
      6151      6148      6157      6153      6154      6146      6157      6156
      6157      6154      6151      6159      6146      6154      6148      6141
      6168      6171      6166      6170      6171      6168      6177      6173
      6174      6166      6177      6176      6177      6174      6171      6179
      6166      6174      6168      6161      6188      6191      6186      6190
      6191      6188      6197      6193      6194      6186      6197      6196
      6197      6194      6191      6199      6186      6194      6188      6181
      6208      6211      6206      6210      6211      6208      6217      6213
      6214      6206      6217      6216      6217      6214      6211      6219
      6206      6214      6208      6201      6228      6231      6226      6230
      6231      6228      6237      6233      6234      6226      6237      6236
      6237      6234      6231      6239      6226      6234      6228      6221
      6248      6251      6246      6250      6251      6248      6257      6253
      6254      6246      6257      6256      6257      6254      6251      6259
      6246      6254      6248      6241      6268      6271      6266      6270
      6271      6268      6277      6273      6274      6266      6277      6276
      6277      6274      6271      6279      6266      6274      6268      6261
      6288      6291      6286      6290      6291      6288      6297      6293
      6294      6286      6297      6296      6297      6294      6291      6299
      6286      6294      6288      6281      6308      6311      6306      6310
      6311      6308      6317      6313      6314      6306      6317      6316
      6317      6314      6311      6319      6306      6314      6308      6301
      6328      6331      6326      6330      6331      6328      6337      6333
      6334      6326      6337      6336      6337      6334      6331      6339
      6326      6334      6328      6321      6348      6351      6346      6350
      6351      6348      6357      6353      6354      6346      6357      6356
      6357      6354      6351      6359      6346      6354      6348      6341
      6368      6371      6366      6370      6371      6368      6377      6373
      6374      6366      6377      6376      6377      6374      6371      6379
      6366      6374      6368      6361      6388      6391      6386      6390
      6391      6388      6397      6393      6394      6386      6397      6396
      6397      6394      6391      6399      6386      6394      6388      6381
      6408      6411      6406      6410      6411      6408      6417      6413
      6414      6406      6417      6416      6417      6414      6411      6419
      6406      6414      6408      6401      6428      6431      6426      6430
      6431      6428      6437      6433      6434      6426      6437      6436
      6437      6434      6431      6439      6426      6434      6428      6421
      6448      6451      6446      6450      6451      6448      6457      6453
      6454      6446      6457      6456      6457      6454      6451      6459
      6446      6454      6448      6441      6468      6471      6466      6470
      6471      6468      6477      6473      6474      6466      6477      6476
      6477      6474      6471      6479      6466      6474      6468      6461
      6488      6491      6486      6490      6491      6488      6497      6493
      6494      6486      6497      6496      6497      6494      6491      6499
      6486      6494      6488      6481      6508      6511      6506      6510
      6511      6508      6517      6513      6514      6506      6517      6516
      6517      6514      6511      6519      6506      6514      6508      6501
      6528      6531      6526      6530      6531      6528      6537      6533
      6534      6526      6537      6536      6537      6534      6531      6539
      6526      6534      6528      6521      6548      6551      6546      6550
      6551      6548      6557      6553      6554      6546      6557      6556
      6557      6554      6551      6559      6546      6554      6548      6541
      6568      6571      6566      6570      6571      6568      6577      6573
      6574      6566      6577      6576      6577      6574      6571      6579
      6566      6574      6568      6561      6588      6591      6586      6590
      6591      6588      6597      6593      6594      6586      6597      6596
      6597      6594      6591      6599      6586      6594      6588      6581
      6608      6611      6606      6610      6611      6608      6617      6613
      6614      6606      6617      6616      6617      6614      6611      6619
      6606      6614      6608      6601      6628      6631      6626      6630
      6631      6628      6637      6633      6634      6626      6637      6636
      6637      6634      6631      6639      6626      6634      6628      6621
      6648      6651      6646      6650      6651      6648      6657      6653
      6654      6646      6657      6656      6657      6654      6651      6659
      6646      6654      6648      6641      6668      6671      6666      6670
      6671      6668      6677      6673      6674      6666      6677      6676
      6677      6674      6671      6679      6666      6674      6668      6661
      6688      6691      6686      6690      6691      6688      6697      6693
      6694      6686      6697      6696      6697      6694      6691      6699
      6686      6694      6688      6681      6708      6711      6706      6710
      6711      6708      6717      6713      6714      6706      6717      6716
      6717      6714      6711      6719      6706      6714      6708      6701
      6728      6731      6726      6730      6731      6728      6737      6733
      6734      6726      6737      6736      6737      6734      6731      6739
      6726      6734      6728      6721      6748      6751      6746      6750
      6751      6748      6757      6753      6754      6746      6757      6756
      6757      6754      6751      6759      6746      6754      6748      6741
      6768      6771      6766      6770      6771      6768      6777      6773
      6774      6766      6777      6776      6777      6774      6771      6779
      6766      6774      6768      6761      6788      6791      6786      6790
      6791      6788      6797      6793      6794      6786      6797      6796
      6797      6794      6791      6799      6786      6794      6788      6781
      6808      6811      6806      6810      6811      6808      6817      6813
      6814      6806      6817      6816      6817      6814      6811      6819
      6806      6814      6808      6801      6828      6831      6826      6830
      6831      6828      6837      6833      6834      6826      6837      6836
      6837      6834      6831      6839      6826      6834      6828      6821
      6848      6851      6846      6850      6851      6848      6857      6853
      6854      6846      6857      6856      6857      6854      6851      6859
      6846      6854      6848      6841      6868      6871      6866      6870
      6871      6868      6877      6873      6874      6866      6877      6876
      6877      6874      6871      6879      6866      6874      6868      6861
      6888      6891      6886      6890      6891      6888      6897      6893
      6894      6886      6897      6896      6897      6894      6891      6899
      6886      6894      6888      6881      6908      6911      6906      6910
      6911      6908      6917      6913      6914      6906      6917      6916
      6917      6914      6911      6919      6906      6914      6908      6901
      6928      6931      6926      6930      6931      6928      6937      6933
      6934      6926      6937      6936      6937      6934      6931      6939
      6926      6934      6928      6921      6948      6951      6946      6950
      6951      6948      6957      6953      6954      6946      6957      6956
      6957      6954      6951      6959      6946      6954      6948      6941
      6968      6971      6966      6970      6971      6968      6977      6973
      6974      6966      6977      6976      6977      6974      6971      6979
      6966      6974      6968      6961      6988      6991      6986      6990
      6991      6988      6997      6993      6994      6986      6997      6996
      6997      6994      6991      6999      6986      6994      6988      6981
      7008      7011      7006      7010      7011      7008      7017      7013
      7014      7006      7017      7016      7017      7014      7011      7019
      7006      7014      7008      7001      7028      7031      7026      7030
      7031      7028      7037      7033      7034      7026      7037      7036
      7037      7034      7031      7039      7026      7034      7028      7021
      7048      7051      7046      7050      7051      7048      7057      7053
      7054      7046      7057      7056      7057      7054      7051      7059
      7046      7054      7048      7041      7068      7071      7066      7070
      7071      7068      7077      7073      7074      7066      7077      7076
      7077      7074      7071      7079      7066      7074      7068      7061
      7088      7091      7086      7090      7091      7088      7097      7093
      7094      7086      7097      7096      7097      7094      7091      7099
      7086      7094      7088      7081      7108      7111      7106      7110
      7111      7108      7117      7113      7114      7106      7117      7116
      7117      7114      7111      7119      7106      7114      7108      7101
      7128      7131      7126      7130      7131      7128      7137      7133
      7134      7126      7137      7136      7137      7134      7131      7139
      7126      7134      7128      7121      7148      7151      7146      7150
      7151      7148      7157      7153      7154      7146      7157      7156
      7157      7154      7151      7159      7146      7154      7148      7141
      7168      7171      7166      7170      7171      7168      7177      7173
      7174      7166      7177      7176      7177      7174      7171      7179
      7166      7174      7168      7161      7188      7191      7186      7190
      7191      7188      7197      7193      7194      7186      7197      7196
      7197      7194      7191      7199      7186      7194      7188      7181
      7208      7211      7206      7210      7211      7208      7217      7213
      7214      7206      7217      7216      7217      7214      7211      7219
      7206      7214      7208      7201      7228      7231      7226      7230
      7231      7228      7237      7233      7234      7226      7237      7236
      7237      7234      7231      7239      7226      7234      7228      7221
      7248      7251      7246      7250      7251      7248      7257      7253
      7254      7246      7257      7256      7257      7254      7251      7259
      7246      7254      7248      7241      7268      7271      7266      7270
      7271      7268      7277      7273      7274      7266      7277      7276
      7277      7274      7271      7279      7266      7274      7268      7261
      7288      7291      7286      7290      7291      7288      7297      7293
      7294      7286      7297      7296      7297      7294      7291      7299
      7286      7294      7288      7281      7308      7311      7306      7310
      7311      7308      7317      7313      7314      7306      7317      7316
      7317      7314      7311      7319      7306      7314      7308      7301
      7328      7331      7326      7330      7331      7328      7337      7333
      7334      7326      7337      7336      7337      7334      7331      7339
      7326      7334      7328      7321      7348      7351      7346      7350
      7351      7348      7357      7353      7354      7346      7357      7356
      7357      7354      7351      7359      7346      7354      7348      7341
      7368      7371      7366      7370      7371      7368      7377      7373
      7374      7366      7377      7376      7377      7374      7371      7379
      7366      7374      7368      7361      7388      7391      7386      7390
      7391      7388      7397      7393      7394      7386      7397      7396
      7397      7394      7391      7399      7386      7394      7388      7381
      7408      7411      7406      7410      7411      7408      7417      7413
      7414      7406      7417      7416      7417      7414      7411      7419
      7406      7414      7408      7401      7428      7431      7426      7430
      7431      7428      7437      7433      7434      7426      7437      7436
      7437      7434      7431      7439      7426      7434      7428      7421
      7448      7451      7446      7450      7451      7448      7457      7453
      7454      7446      7457      7456      7457      7454      7451      7459
      7446      7454      7448      7441      7468      7471      7466      7470
      7471      7468      7477      7473      7474      7466      7477      7476
      7477      7474      7471      7479      7466      7474      7468      7461
      7488      7491      7486      7490      7491      7488      7497      7493
      7494      7486      7497      7496      7497      7494      7491      7499
      7486      7494      7488      7481      7508      7511      7506      7510
      7511      7508      7517      7513      7514      7506      7517      7516
      7517      7514      7511      7519      7506      7514      7508      7501
      7528      7531      7526      7530      7531      7528      7537      7533
      7534      7526      7537      7536      7537      7534      7531      7539
      7526      7534      7528      7521      7548      7551      7546      7550
      7551      7548      7557      7553      7554      7546      7557      7556
      7557      7554      7551      7559      7546      7554      7548      7541
      7568      7571      7566      7570      7571      7568      7577      7573
      7574      7566      7577      7576      7577      7574      7571      7579
      7566      7574      7568      7561      7588      7591      7586      7590
      7591      7588      7597      7593      7594      7586      7597      7596
      7597      7594      7591      7599      7586      7594      7588      7581
      7608      7611      7606      7610      7611      7608      7617      7613
      7614      7606      7617      7616      7617      7614      7611      7619
      7606      7614      7608      7601      7628      7631      7626      7630
      7631      7628      7637      7633      7634      7626      7637      7636
      7637      7634      7631      7639      7626      7634      7628      7621
      7648      7651      7646      7650      7651      7648      7657      7653
      7654      7646      7657      7656      7657      7654      7651      7659
      7646      7654      7648      7641      7668      7671      7666      7670
      7671      7668      7677      7673      7674      7666      7677      7676
      7677      7674      7671      7679      7666      7674      7668      7661
      7688      7691      7686      7690      7691      7688      7697      7693
      7694      7686      7697      7696      7697      7694      7691      7699
      7686      7694      7688      7681      7708      7711      7706      7710
      7711      7708      7717      7713      7714      7706      7717      7716
      7717      7714      7711      7719      7706      7714      7708      7701
      7728      7731      7726      7730      7731      7728      7737      7733
      7734      7726      7737      7736      7737      7734      7731      7739
      7726      7734      7728      7721      7748      7751      7746      7750
      7751      7748      7757      7753      7754      7746      7757      7756
      7757      7754      7751      7759      7746      7754      7748      7741
      7768      7771      7766      7770      7771      7768      7777      7773
      7774      7766      7777      7776      7777      7774      7771      7779
      7766      7774      7768      7761      7788      7791      7786      7790
      7791      7788      7797      7793      7794      7786      7797      7796
      7797      7794      7791      7799      7786      7794      7788      7781
      7808      7811      7806      7810      7811      7808      7817      7813
      7814      7806      7817      7816      7817      7814      7811      7819
      7806      7814      7808      7801      7828      7831      7826      7830
      7831      7828      7837      7833      7834      7826      7837      7836
      7837      7834      7831      7839      7826      7834      7828      7821
      7848      7851      7846      7850      7851      7848      7857      7853
      7854      7846      7857      7856      7857      7854      7851      7859
      7846      7854      7848      7841      7868      7871      7866      7870
      7871      7868      7877      7873      7874      7866      7877      7876
      7877      7874      7871      7879      7866      7874      7868      7861
      7888      7891      7886      7890      7891      7888      7897      7893
      7894      7886      7897      7896      7897      7894      7891      7899
      7886      7894      7888      7881      7908      7911      7906      7910
      7911      7908      7917      7913      7914      7906      7917      7916
      7917      7914      7911      7919      7906      7914      7908      7901
      7928      7931      7926      7930      7931      7928      7937      7933
      7934      7926      7937      7936      7937      7934      7931      7939
      7926      7934      7928      7921      7948      7951      7946      7950
      7951      7948      7957      7953      7954      7946      7957      7956
      7957      7954      7951      7959      7946      7954      7948      7941
      7968      7971      7966      7970      7971      7968      7977      7973
      7974      7966      7977      7976      7977      7974      7971      7979
      7966      7974      7968      7961      7988      7991      7986      7990
      7991      7988      7997      7993      7994      7986      7997      7996
      7997      7994      7991      7999      7986      7994      7988      7981
      8008      8011      8006      8010      8011      8008      8017      8013
      8014      8006      8017      8016      8017      8014      8011      8019
      8006      8014      8008      8001      8028      8031      8026      8030
      8031      8028      8037      8033      8034      8026      8037      8036
      8037      8034      8031      8039      8026      8034      8028      8021
      8048      8051      8046      8050      8051      8048      8057      8053
      8054      8046      8057      8056      8057      8054      8051      8059
      8046      8054      8048      8041      8068      8071      8066      8070
      8071      8068      8077      8073      8074      8066      8077      8076
      8077      8074      8071      8079      8066      8074      8068      8061
      8088      8091      8086      8090      8091      8088      8097      8093
      8094      8086      8097      8096      8097      8094      8091      8099
      8086      8094      8088      8081      8108      8111      8106      8110
      8111      8108      8117      8113      8114      8106      8117      8116
      8117      8114      8111      8119      8106      8114      8108      8101
      8128      8131      8126      8130      8131      8128      8137      8133
      8134      8126      8137      8136      8137      8134      8131      8139
      8126      8134      8128      8121      8148      8151      8146      8150
      8151      8148      8157      8153      8154      8146      8157      8156
      8157      8154      8151      8159      8146      8154      8148      8141
      8168      8171      8166      8170      8171      8168      8177      8173
      8174      8166      8177      8176      8177      8174      8171      8179
      8166      8174      8168      8161      8188      8191      8186      8190
      8191      8188      8197      8193      8194      8186      8197      8196
      8197      8194      8191      8199      8186      8194      8188      8181
      8208      8211      8206      8210      8211      8208      8217      8213
      8214      8206      8217      8216      8217      8214      8211      8219
      8206      8214      8208      8201      8228      8231      8226      8230
      8231      8228      8237      8233      8234      8226      8237      8236
      8237      8234      8231      8239      8226      8234      8228      8221
      8248      8251      8246      8250      8251      8248      8257      8253
      8254      8246      8257      8256      8257      8254      8251      8259
      8246      8254      8248      8241      8268      8271      8266      8270
      8271      8268      8277      8273      8274      8266      8277      8276
      8277      8274      8271      8279      8266      8274      8268      8261
      8288      8291      8286      8290      8291      8288      8297      8293
      8294      8286      8297      8296      8297      8294      8291      8299
      8286      8294      8288      8281      8308      8311      8306      8310
      8311      8308      8317      8313      8314      8306      8317      8316
      8317      8314      8311      8319      8306      8314      8308      8301
      8328      8331      8326      8330      8331      8328      8337      8333
      8334      8326      8337      8336      8337      8334      8331      8339
      8326      8334      8328      8321      8348      8351      8346      8350
      8351      8348      8357      8353      8354      8346      8357      8356
      8357      8354      8351      8359      8346      8354      8348      8341
      8368      8371      8366      8370      8371      8368      8377      8373
      8374      8366      8377      8376      8377      8374      8371      8379
      8366      8374      8368      8361      8388      8391      8386      8390
      8391      8388      8397      8393      8394      8386      8397      8396
      8397      8394      8391      8399      8386      8394      8388      8381
      8408      8411      8406      8410      8411      8408      8417      8413
      8414      8406      8417      8416      8417      8414      8411      8419
      8406      8414      8408      8401      8428      8431      8426      8430
      8431      8428      8437      8433      8434      8426      8437      8436
      8437      8434      8431      8439      8426      8434      8428      8421
      8448      8451      8446      8450      8451      8448      8457      8453
      8454      8446      8457      8456      8457      8454      8451      8459
      8446      8454      8448      8441      8468      8471      8466      8470
      8471      8468      8477      8473      8474      8466      8477      8476
      8477      8474      8471      8479      8466      8474      8468      8461
      8488      8491      8486      8490      8491      8488      8497      8493
      8494      8486      8497      8496      8497      8494      8491      8499
      8486      8494      8488      8481      8508      8511      8506      8510
      8511      8508      8517      8513      8514      8506      8517      8516
      8517      8514      8511      8519      8506      8514      8508      8501
      8528      8531      8526      8530      8531      8528      8537      8533
      8534      8526      8537      8536      8537      8534      8531      8539
      8526      8534      8528      8521      8548      8551      8546      8550
      8551      8548      8557      8553      8554      8546      8557      8556
      8557      8554      8551      8559      8546      8554      8548      8541
      8568      8571      8566      8570      8571      8568      8577      8573
      8574      8566      8577      8576      8577      8574      8571      8579
      8566      8574      8568      8561      8588      8591      8586      8590
      8591      8588      8597      8593      8594      8586      8597      8596
      8597      8594      8591      8599      8586      8594      8588      8581
      8608      8611      8606      8610      8611      8608      8617      8613
      8614      8606      8617      8616      8617      8614      8611      8619
      8606      8614      8608      8601      8628      8631      8626      8630
      8631      8628      8637      8633      8634      8626      8637      8636
      8637      8634      8631      8639      8626      8634      8628      8621
      8648      8651      8646      8650      8651      8648      8657      8653
      8654      8646      8657      8656      8657      8654      8651      8659
      8646      8654      8648      8641      8668      8671      8666      8670
      8671      8668      8677      8673      8674      8666      8677      8676
      8677      8674      8671      8679      8666      8674      8668      8661
      8688      8691      8686      8690      8691      8688      8697      8693
      8694      8686      8697      8696      8697      8694      8691      8699
      8686      8694      8688      8681      8708      8711      8706      8710
      8711      8708      8717      8713      8714      8706      8717      8716
      8717      8714      8711      8719      8706      8714      8708      8701
      8728      8731      8726      8730      8731      8728      8737      8733
      8734      8726      8737      8736      8737      8734      8731      8739
      8726      8734      8728      8721      8748      8751      8746      8750
      8751      8748      8757      8753      8754      8746      8757      8756
      8757      8754      8751      8759      8746      8754      8748      8741
      8768      8771      8766      8770      8771      8768      8777      8773
      8774      8766      8777      8776      8777      8774      8771      8779
      8766      8774      8768      8761      8788      8791      8786      8790
      8791      8788      8797      8793      8794      8786      8797      8796
      8797      8794      8791      8799      8786      8794      8788      8781
      8808      8811      8806      8810      8811      8808      8817      8813
      8814      8806      8817      8816      8817      8814      8811      8819
      8806      8814      8808      8801      8828      8831      8826      8830
      8831      8828      8837      8833      8834      8826      8837      8836
      8837      8834      8831      8839      8826      8834      8828      8821
      8848      8851      8846      8850      8851      8848      8857      8853
      8854      8846      8857      8856      8857      8854      8851      8859
      8846      8854      8848      8841      8868      8871      8866      8870
      8871      8868      8877      8873      8874      8866      8877      8876
      8877      8874      8871      8879      8866      8874      8868      8861
      8888      8891      8886      8890      8891      8888      8897      8893
      8894      8886      8897      8896      8897      8894      8891      8899
      8886      8894      8888      8881      8908      8911      8906      8910
      8911      8908      8917      8913      8914      8906      8917      8916
      8917      8914      8911      8919      8906      8914      8908      8901
      8928      8931      8926      8930      8931      8928      8937      8933
      8934      8926      8937      8936      8937      8934      8931      8939
      8926      8934      8928      8921      8948      8951      8946      8950
      8951      8948      8957      8953      8954      8946      8957      8956
      8957      8954      8951      8959      8946      8954      8948      8941
      8968      8971      8966      8970      8971      8968      8977      8973
      8974      8966      8977      8976      8977      8974      8971      8979
      8966      8974      8968      8961      8988      8991      8986      8990
      8991      8988      8997      8993      8994      8986      8997      8996
      8997      8994      8991      8999      8986      8994      8988      8981
      9008      9011      9006      9010      9011      9008      9017      9013
      9014      9006      9017      9016      9017      9014      9011      9019
      9006      9014      9008      9001      9028      9031      9026      9030
      9031      9028      9037      9033      9034      9026      9037      9036
      9037      9034      9031      9039      9026      9034      9028      9021
      9048      9051      9046      9050      9051      9048      9057      9053
      9054      9046      9057      9056      9057      9054      9051      9059
      9046      9054      9048      9041      9068      9071      9066      9070
      9071      9068      9077      9073      9074      9066      9077      9076
      9077      9074      9071      9079      9066      9074      9068      9061
      9088      9091      9086      9090      9091      9088      9097      9093
      9094      9086      9097      9096      9097      9094      9091      9099
      9086      9094      9088      9081      9108      9111      9106      9110
      9111      9108      9117      9113      9114      9106      9117      9116
      9117      9114      9111      9119      9106      9114      9108      9101
      9128      9131      9126      9130      9131      9128      9137      9133
      9134      9126      9137      9136      9137      9134      9131      9139
      9126      9134      9128      9121      9148      9151      9146      9150
      9151      9148      9157      9153      9154      9146      9157      9156
      9157      9154      9151      9159      9146      9154      9148      9141
      9168      9171      9166      9170      9171      9168      9177      9173
      9174      9166      9177      9176      9177      9174      9171      9179
      9166      9174      9168      9161      9188      9191      9186      9190
      9191      9188      9197      9193      9194      9186      9197      9196
      9197      9194      9191      9199      9186      9194      9188      9181
      9208      9211      9206      9210      9211      9208      9217      9213
      9214      9206      9217      9216      9217      9214      9211      9219
      9206      9214      9208      9201      9228      9231      9226      9230
      9231      9228      9237      9233      9234      9226      9237      9236
      9237      9234      9231      9239      9226      9234      9228      9221
      9248      9251      9246      9250      9251      9248      9257      9253
      9254      9246      9257      9256      9257      9254      9251      9259
      9246      9254      9248      9241      9268      9271      9266      9270
      9271      9268      9277      9273      9274      9266      9277      9276
      9277      9274      9271      9279      9266      9274      9268      9261
      9288      9291      9286      9290      9291      9288      9297      9293
      9294      9286      9297      9296      9297      9294      9291      9299
      9286      9294      9288      9281      9308      9311      9306      9310
      9311      9308      9317      9313      9314      9306      9317      9316
      9317      9314      9311      9319      9306      9314      9308      9301
      9328      9331      9326      9330      9331      9328      9337      9333
      9334      9326      9337      9336      9337      9334      9331      9339
      9326      9334      9328      9321      9348      9351      9346      9350
      9351      9348      9357      9353      9354      9346      9357      9356
      9357      9354      9351      9359      9346      9354      9348      9341
      9368      9371      9366      9370      9371      9368      9377      9373
      9374      9366      9377      9376      9377      9374      9371      9379
      9366      9374      9368      9361      9388      9391      9386      9390
      9391      9388      9397      9393      9394      9386      9397      9396
      9397      9394      9391      9399      9386      9394      9388      9381
      9408      9411      9406      9410      9411      9408      9417      9413
      9414      9406      9417      9416      9417      9414      9411      9419
      9406      9414      9408      9401      9428      9431      9426      9430
      9431      9428      9437      9433      9434      9426      9437      9436
      9437      9434      9431      9439      9426      9434      9428      9421
      9448      9451      9446      9450      9451      9448      9457      9453
      9454      9446      9457      9456      9457      9454      9451      9459
      9446      9454      9448      9441      9468      9471      9466      9470
      9471      9468      9477      9473      9474      9466      9477      9476
      9477      9474      9471      9479      9466      9474      9468      9461
      9488      9491      9486      9490      9491      9488      9497      9493
      9494      9486      9497      9496      9497      9494      9491      9499
      9486      9494      9488      9481      9508      9511      9506      9510
      9511      9508      9517      9513      9514      9506      9517      9516
      9517      9514      9511      9519      9506      9514      9508      9501
      9528      9531      9526      9530      9531      9528      9537      9533
      9534      9526      9537      9536      9537      9534      9531      9539
      9526      9534      9528      9521      9548      9551      9546      9550
      9551      9548      9557      9553      9554      9546      9557      9556
      9557      9554      9551      9559      9546      9554      9548      9541
      9568      9571      9566      9570      9571      9568      9577      9573
      9574      9566      9577      9576      9577      9574      9571      9579
      9566      9574      9568      9561      9588      9591      9586      9590
      9591      9588      9597      9593      9594      9586      9597      9596
      9597      9594      9591      9599      9586      9594      9588      9581
      9608      9611      9606      9610      9611      9608      9617      9613
      9614      9606      9617      9616      9617      9614      9611      9619
      9606      9614      9608      9601      9628      9631      9626      9630
      9631      9628      9637      9633      9634      9626      9637      9636
      9637      9634      9631      9639      9626      9634      9628      9621
      9648      9651      9646      9650      9651      9648      9657      9653
      9654      9646      9657      9656      9657      9654      9651      9659
      9646      9654      9648      9641      9668      9671      9666      9670
      9671      9668      9677      9673      9674      9666      9677      9676
      9677      9674      9671      9679      9666      9674      9668      9661
      9688      9691      9686      9690      9691      9688      9697      9693
      9694      9686      9697      9696      9697      9694      9691      9699
      9686      9694      9688      9681      9708      9711      9706      9710
      9711      9708      9717      9713      9714      9706      9717      9716
      9717      9714      9711      9719      9706      9714      9708      9701
      9728      9731      9726      9730      9731      9728      9737      9733
      9734      9726      9737      9736      9737      9734      9731      9739
      9726      9734      9728      9721      9748      9751      9746      9750
      9751      9748      9757      9753      9754      9746      9757      9756
      9757      9754      9751      9759      9746      9754      9748      9741
      9768      9771      9766      9770      9771      9768      9777      9773
      9774      9766      9777      9776      9777      9774      9771      9779
      9766      9774      9768      9761      9788      9791      9786      9790
      9791      9788      9797      9793      9794      9786      9797      9796
      9797      9794      9791      9799      9786      9794      9788      9781
      9808      9811      9806      9810      9811      9808      9817      9813
      9814      9806      9817      9816      9817      9814      9811      9819
      9806      9814      9808      9801      9828      9831      9826      9830
      9831      9828      9837      9833      9834      9826      9837      9836
      9837      9834      9831      9839      9826      9834      9828      9821
      9848      9851      9846      9850      9851      9848      9857      9853
      9854      9846      9857      9856      9857      9854      9851      9859
      9846      9854      9848      9841      9868      9871      9866      9870
      9871      9868      9877      9873      9874      9866      9877      9876
      9877      9874      9871      9879      9866      9874      9868      9861
      9888      9891      9886      9890      9891      9888      9897      9893
      9894      9886      9897      9896      9897      9894      9891      9899
      9886      9894      9888      9881      9908      9911      9906      9910
      9911      9908      9917      9913      9914      9906      9917      9916
      9917      9914      9911      9919      9906      9914      9908      9901
      9928      9931      9926      9930      9931      9928      9937      9933
      9934      9926      9937      9936      9937      9934      9931      9939
      9926      9934      9928      9921      9948      9951      9946      9950
      9951      9948      9957      9953      9954      9946      9957      9956
      9957      9954      9951      9959      9946      9954      9948      9941
      9968      9971      9966      9970      9971      9968      9977      9973
      9974      9966      9977      9976      9977      9974      9971      9979
      9966      9974      9968      9961      9988      9991      9986      9990
      9991      9988      9997      9993      9994      9986      9997      9996
      9997      9994      9991      9999      9986      9994      9988      9981
     10008     10011     10006     10010     10011     10008     10017     10013
     10014     10006     10017     10016     10017     10014     10011     10019
     10006     10014     10008     10001     10028     10031     10026     10030
     10031     10028     10037     10033     10034     10026     10037     10036
     10037     10034     10031     10039     10026     10034     10028     10021
     10048     10051     10046     10050     10051     10048     10057     10053
     10054     10046     10057     10056     10057     10054     10051     10059
     10046     10054     10048     10041     10068     10071     10066     10070
     10071     10068     10077     10073     10074     10066     10077     10076
     10077     10074     10071     10079     10066     10074     10068     10061
     10088     10091     10086     10090     10091     10088     10097     10093
     10094     10086     10097     10096     10097     10094     10091     10099
     10086     10094     10088     10081     10108     10111     10106     10110
     10111     10108     10117     10113     10114     10106     10117     10116
     10117     10114     10111     10119     10106     10114     10108     10101
     10128     10131     10126     10130     10131     10128     10137     10133
     10134     10126     10137     10136     10137     10134     10131     10139
     10126     10134     10128     10121     10148     10151     10146     10150
     10151     10148     10157     10153     10154     10146     10157     10156
     10157     10154     10151     10159     10146     10154     10148     10141
     10168     10171     10166     10170     10171     10168     10177     10173
     10174     10166     10177     10176     10177     10174     10171     10179
     10166     10174     10168     10161     10188     10191     10186     10190
     10191     10188     10197     10193     10194     10186     10197     10196
     10197     10194     10191     10199     10186     10194     10188     10181
     10208     10211     10206     10210     10211     10208     10217     10213
     10214     10206     10217     10216     10217     10214     10211     10219
     10206     10214     10208     10201     10228     10231     10226     10230
     10231     10228     10237     10233     10234     10226     10237     10236
     10237     10234     10231     10239     10226     10234     10228     10221
     10248     10251     10246     10250     10251     10248     10257     10253
     10254     10246     10257     10256     10257     10254     10251     10259
     10246     10254     10248     10241     10268     10271     10266     10270
     10271     10268     10277     10273     10274     10266     10277     10276
     10277     10274     10271     10279     10266     10274     10268     10261
     10288     10291     10286     10290     10291     10288     10297     10293
     10294     10286     10297     10296     10297     10294     10291     10299
     10286     10294     10288     10281     10308     10311     10306     10310
     10311     10308     10317     10313     10314     10306     10317     10316
     10317     10314     10311     10319     10306     10314     10308     10301
     10328     10331     10326     10330     10331     10328     10337     10333
     10334     10326     10337     10336     10337     10334     10331     10339
     10326     10334     10328     10321     10348     10351     10346     10350
     10351     10348     10357     10353     10354     10346     10357     10356
     10357     10354     10351     10359     10346     10354     10348     10341
     10368     10371     10366     10370     10371     10368     10377     10373
     10374     10366     10377     10376     10377     10374     10371     10379
     10366     10374     10368     10361     10388     10391     10386     10390
     10391     10388     10397     10393     10394     10386     10397     10396
     10397     10394     10391     10399     10386     10394     10388     10381
     10408     10411     10406     10410     10411     10408     10417     10413
     10414     10406     10417     10416     10417     10414     10411     10419
     10406     10414     10408     10401     10428     10431     10426     10430
     10431     10428     10437     10433     10434     10426     10437     10436
     10437     10434     10431     10439     10426     10434     10428     10421
     10448     10451     10446     10450     10451     10448     10457     10453
     10454     10446     10457     10456     10457     10454     10451     10459
     10446     10454     10448     10441     10468     10471     10466     10470
     10471     10468     10477     10473     10474     10466     10477     10476
     10477     10474     10471     10479     10466     10474     10468     10461
     10488     10491     10486     10490     10491     10488     10497     10493
     10494     10486     10497     10496     10497     10494     10491     10499
     10486     10494     10488     10481     10508     10511     10506     10510
     10511     10508     10517     10513     10514     10506     10517     10516
     10517     10514     10511     10519     10506     10514     10508     10501
     10528     10531     10526     10530     10531     10528     10537     10533
     10534     10526     10537     10536     10537     10534     10531     10539
     10526     10534     10528     10521     10548     10551     10546     10550
     10551     10548     10557     10553     10554     10546     10557     10556
     10557     10554     10551     10559     10546     10554     10548     10541
     10568     10571     10566     10570     10571     10568     10577     10573
     10574     10566     10577     10576     10577     10574     10571     10579
     10566     10574     10568     10561     10588     10591     10586     10590
     10591     10588     10597     10593     10594     10586     10597     10596
     10597     10594     10591     10599     10586     10594     10588     10581
     10608     10611     10606     10610     10611     10608     10617     10613
     10614     10606     10617     10616     10617     10614     10611     10619
     10606     10614     10608     10601     10628     10631     10626     10630
     10631     10628     10637     10633     10634     10626     10637     10636
     10637     10634     10631     10639     10626     10634     10628     10621
     10648     10651     10646     10650     10651     10648     10657     10653
     10654     10646     10657     10656     10657     10654     10651     10659
     10646     10654     10648     10641     10668     10671     10666     10670
     10671     10668     10677     10673     10674     10666     10677     10676
     10677     10674     10671     10679     10666     10674     10668     10661
     10688     10691     10686     10690     10691     10688     10697     10693
     10694     10686     10697     10696     10697     10694     10691     10699
     10686     10694     10688     10681     10708     10711     10706     10710
     10711     10708     10717     10713     10714     10706     10717     10716
     10717     10714     10711     10719     10706     10714     10708     10701
     10728     10731     10726     10730     10731     10728     10737     10733
     10734     10726     10737     10736     10737     10734     10731     10739
     10726     10734     10728     10721     10748     10751     10746     10750
     10751     10748     10757     10753     10754     10746     10757     10756
     10757     10754     10751     10759     10746     10754     10748     10741
     10768     10771     10766     10770     10771     10768     10777     10773
     10774     10766     10777     10776     10777     10774     10771     10779
     10766     10774     10768     10761     10788     10791     10786     10790
     10791     10788     10797     10793     10794     10786     10797     10796
     10797     10794     10791     10799     10786     10794     10788     10781
     10808     10811     10806     10810     10811     10808     10817     10813
     10814     10806     10817     10816     10817     10814     10811     10819
     10806     10814     10808     10801     10828     10831     10826     10830
     10831     10828     10837     10833     10834     10826     10837     10836
     10837     10834     10831     10839     10826     10834     10828     10821
     10848     10851     10846     10850     10851     10848     10857     10853
     10854     10846     10857     10856     10857     10854     10851     10859
     10846     10854     10848     10841     10868     10871     10866     10870
     10871     10868     10877     10873     10874     10866     10877     10876
     10877     10874     10871     10879     10866     10874     10868     10861
     10888     10891     10886     10890     10891     10888     10897     10893
     10894     10886     10897     10896     10897     10894     10891     10899
     10886     10894     10888     10881     10908     10911     10906     10910
     10911     10908     10917     10913     10914     10906     10917     10916
     10917     10914     10911     10919     10906     10914     10908     10901
     10928     10931     10926     10930     10931     10928     10937     10933
     10934     10926     10937     10936     10937     10934     10931     10939
     10926     10934     10928     10921     10948     10951     10946     10950
     10951     10948     10957     10953     10954     10946     10957     10956
     10957     10954     10951     10959     10946     10954     10948     10941
     10968     10971     10966     10970     10971     10968     10977     10973
     10974     10966     10977     10976     10977     10974     10971     10979
     10966     10974     10968     10961     10988     10991     10986     10990
     10991     10988     10997     10993     10994     10986     10997     10996
     10997     10994     10991     10999     10986     10994     10988     10981
     11008     11011     11006     11010     11011     11008     11017     11013
     11014     11006     11017     11016     11017     11014     11011     11019
     11006     11014     11008     11001     11028     11031     11026     11030
     11031     11028     11037     11033     11034     11026     11037     11036
     11037     11034     11031     11039     11026     11034     11028     11021
     11048     11051     11046     11050     11051     11048     11057     11053
     11054     11046     11057     11056     11057     11054     11051     11059
     11046     11054     11048     11041     11068     11071     11066     11070
     11071     11068     11077     11073     11074     11066     11077     11076
     11077     11074     11071     11079     11066     11074     11068     11061
     11088     11091     11086     11090     11091     11088     11097     11093
     11094     11086     11097     11096     11097     11094     11091     11099
     11086     11094     11088     11081     11108     11111     11106     11110
     11111     11108     11117     11113     11114     11106     11117     11116
     11117     11114     11111     11119     11106     11114     11108     11101
     11128     11131     11126     11130     11131     11128     11137     11133
     11134     11126     11137     11136     11137     11134     11131     11139
     11126     11134     11128     11121     11148     11151     11146     11150
     11151     11148     11157     11153     11154     11146     11157     11156
     11157     11154     11151     11159     11146     11154     11148     11141
     11168     11171     11166     11170     11171     11168     11177     11173
     11174     11166     11177     11176     11177     11174     11171     11179
     11166     11174     11168     11161     11188     11191     11186     11190
     11191     11188     11197     11193     11194     11186     11197     11196
     11197     11194     11191     11199     11186     11194     11188     11181
     11208     11211     11206     11210     11211     11208     11217     11213
     11214     11206     11217     11216     11217     11214     11211     11219
     11206     11214     11208     11201     11228     11231     11226     11230
     11231     11228     11237     11233     11234     11226     11237     11236
     11237     11234     11231     11239     11226     11234     11228     11221
     11248     11251     11246     11250     11251     11248     11257     11253
     11254     11246     11257     11256     11257     11254     11251     11259
     11246     11254     11248     11241     11268     11271     11266     11270
     11271     11268     11277     11273     11274     11266     11277     11276
     11277     11274     11271     11279     11266     11274     11268     11261
     11288     11291     11286     11290     11291     11288     11297     11293
     11294     11286     11297     11296     11297     11294     11291     11299
     11286     11294     11288     11281     11308     11311     11306     11310
     11311     11308     11317     11313     11314     11306     11317     11316
     11317     11314     11311     11319     11306     11314     11308     11301
     11328     11331     11326     11330     11331     11328     11337     11333
     11334     11326     11337     11336     11337     11334     11331     11339
     11326     11334     11328     11321     11348     11351     11346     11350
     11351     11348     11357     11353     11354     11346     11357     11356
     11357     11354     11351     11359     11346     11354     11348     11341
     11368     11371     11366     11370     11371     11368     11377     11373
     11374     11366     11377     11376     11377     11374     11371     11379
     11366     11374     11368     11361     11388     11391     11386     11390
     11391     11388     11397     11393     11394     11386     11397     11396
     11397     11394     11391     11399     11386     11394     11388     11381
     11408     11411     11406     11410     11411     11408     11417     11413
     11414     11406     11417     11416     11417     11414     11411     11419
     11406     11414     11408     11401     11428     11431     11426     11430
     11431     11428     11437     11433     11434     11426     11437     11436
     11437     11434     11431     11439     11426     11434     11428     11421
     11448     11451     11446     11450     11451     11448     11457     11453
     11454     11446     11457     11456     11457     11454     11451     11459
     11446     11454     11448     11441     11468     11471     11466     11470
     11471     11468     11477     11473     11474     11466     11477     11476
     11477     11474     11471     11479     11466     11474     11468     11461
     11488     11491     11486     11490     11491     11488     11497     11493
     11494     11486     11497     11496     11497     11494     11491     11499
     11486     11494     11488     11481     11508     11511     11506     11510
     11511     11508     11517     11513     11514     11506     11517     11516
     11517     11514     11511     11519     11506     11514     11508     11501
     11528     11531     11526     11530     11531     11528     11537     11533
     11534     11526     11537     11536     11537     11534     11531     11539
     11526     11534     11528     11521     11548     11551     11546     11550
     11551     11548     11557     11553     11554     11546     11557     11556
     11557     11554     11551     11559     11546     11554     11548     11541
     11568     11571     11566     11570     11571     11568     11577     11573
     11574     11566     11577     11576     11577     11574     11571     11579
     11566     11574     11568     11561     11588     11591     11586     11590
     11591     11588     11597     11593     11594     11586     11597     11596
     11597     11594     11591     11599     11586     11594     11588     11581
     11608     11611     11606     11610     11611     11608     11617     11613
     11614     11606     11617     11616     11617     11614     11611     11619
     11606     11614     11608     11601     11628     11631     11626     11630
     11631     11628     11637     11633     11634     11626     11637     11636
     11637     11634     11631     11639     11626     11634     11628     11621
     11648     11651     11646     11650     11651     11648     11657     11653
     11654     11646     11657     11656     11657     11654     11651     11659
     11646     11654     11648     11641     11668     11671     11666     11670
     11671     11668     11677     11673     11674     11666     11677     11676
     11677     11674     11671     11679     11666     11674     11668     11661
     11688     11691     11686     11690     11691     11688     11697     11693
     11694     11686     11697     11696     11697     11694     11691     11699
     11686     11694     11688     11681     11708     11711     11706     11710
     11711     11708     11717     11713     11714     11706     11717     11716
     11717     11714     11711     11719     11706     11714     11708     11701
     11728     11731     11726     11730     11731     11728     11737     11733
     11734     11726     11737     11736     11737     11734     11731     11739
     11726     11734     11728     11721     11748     11751     11746     11750
     11751     11748     11757     11753     11754     11746     11757     11756
     11757     11754     11751     11759     11746     11754     11748     11741
     11768     11771     11766     11770     11771     11768     11777     11773
     11774     11766     11777     11776     11777     11774     11771     11779
     11766     11774     11768     11761     11788     11791     11786     11790
     11791     11788     11797     11793     11794     11786     11797     11796
     11797     11794     11791     11799     11786     11794     11788     11781
     11808     11811     11806     11810     11811     11808     11817     11813
     11814     11806     11817     11816     11817     11814     11811     11819
     11806     11814     11808     11801     11828     11831     11826     11830
     11831     11828     11837     11833     11834     11826     11837     11836
     11837     11834     11831     11839     11826     11834     11828     11821
     11848     11851     11846     11850     11851     11848     11857     11853
     11854     11846     11857     11856     11857     11854     11851     11859
     11846     11854     11848     11841     11868     11871     11866     11870
     11871     11868     11877     11873     11874     11866     11877     11876
     11877     11874     11871     11879     11866     11874     11868     11861
     11888     11891     11886     11890     11891     11888     11897     11893
     11894     11886     11897     11896     11897     11894     11891     11899
     11886     11894     11888     11881     11908     11911     11906     11910
     11911     11908     11917     11913     11914     11906     11917     11916
     11917     11914     11911     11919     11906     11914     11908     11901
     11928     11931     11926     11930     11931     11928     11937     11933
     11934     11926     11937     11936     11937     11934     11931     11939
     11926     11934     11928     11921     11948     11951     11946     11950
     11951     11948     11957     11953     11954     11946     11957     11956
     11957     11954     11951     11959     11946     11954     11948     11941
     11968     11971     11966     11970     11971     11968     11977     11973
     11974     11966     11977     11976     11977     11974     11971     11979
     11966     11974     11968     11961     11988     11991     11986     11990
     11991     11988     11997     11993     11994     11986     11997     11996
     11997     11994     11991     11999     11986     11994     11988     11981
     12008     12011     12006     12010     12011     12008     12017     12013
     12014     12006     12017     12016     12017     12014     12011     12019
     12006     12014     12008     12001     12028     12031     12026     12030
     12031     12028     12037     12033     12034     12026     12037     12036
     12037     12034     12031     12039     12026     12034     12028     12021
     12048     12051     12046     12050     12051     12048     12057     12053
     12054     12046     12057     12056     12057     12054     12051     12059
     12046     12054     12048     12041     12068     12071     12066     12070
     12071     12068     12077     12073     12074     12066     12077     12076
     12077     12074     12071     12079     12066     12074     12068     12061
     12088     12091     12086     12090     12091     12088     12097     12093
     12094     12086     12097     12096     12097     12094     12091     12099
     12086     12094     12088     12081     12108     12111     12106     12110
     12111     12108     12117     12113     12114     12106     12117     12116
     12117     12114     12111     12119     12106     12114     12108     12101
     12128     12131     12126     12130     12131     12128     12137     12133
     12134     12126     12137     12136     12137     12134     12131     12139
     12126     12134     12128     12121     12148     12151     12146     12150
     12151     12148     12157     12153     12154     12146     12157     12156
     12157     12154     12151     12159     12146     12154     12148     12141
     12168     12171     12166     12170     12171     12168     12177     12173
     12174     12166     12177     12176     12177     12174     12171     12179
     12166     12174     12168     12161     12188     12191     12186     12190
     12191     12188     12197     12193     12194     12186     12197     12196
     12197     12194     12191     12199     12186     12194     12188     12181
     12208     12211     12206     12210     12211     12208     12217     12213
     12214     12206     12217     12216     12217     12214     12211     12219
     12206     12214     12208     12201     12228     12231     12226     12230
     12231     12228     12237     12233     12234     12226     12237     12236
     12237     12234     12231     12239     12226     12234     12228     12221
     12248     12251     12246     12250     12251     12248     12257     12253
     12254     12246     12257     12256     12257     12254     12251     12259
     12246     12254     12248     12241     12268     12271     12266     12270
     12271     12268     12277     12273     12274     12266     12277     12276
     12277     12274     12271     12279     12266     12274     12268     12261
     12288     12291     12286     12290     12291     12288     12297     12293
     12294     12286     12297     12296     12297     12294     12291     12299
     12286     12294     12288     12281     12308     12311     12306     12310
     12311     12308     12317     12313     12314     12306     12317     12316
     12317     12314     12311     12319     12306     12314     12308     12301
     12328     12331     12326     12330     12331     12328     12337     12333
     12334     12326     12337     12336     12337     12334     12331     12339
     12326     12334     12328     12321     12348     12351     12346     12350
     12351     12348     12357     12353     12354     12346     12357     12356
     12357     12354     12351     12359     12346     12354     12348     12341
     12368     12371     12366     12370     12371     12368     12377     12373
     12374     12366     12377     12376     12377     12374     12371     12379
     12366     12374     12368     12361     12388     12391     12386     12390
     12391     12388     12397     12393     12394     12386     12397     12396
     12397     12394     12391     12399     12386     12394     12388     12381
     12408     12411     12406     12410     12411     12408     12417     12413
     12414     12406     12417     12416     12417     12414     12411     12419
     12406     12414     12408     12401     12428     12431     12426     12430
     12431     12428     12437     12433     12434     12426     12437     12436
     12437     12434     12431     12439     12426     12434     12428     12421
     12448     12451     12446     12450     12451     12448     12457     12453
     12454     12446     12457     12456     12457     12454     12451     12459
     12446     12454     12448     12441     12468     12471     12466     12470
     12471     12468     12477     12473     12474     12466     12477     12476
     12477     12474     12471     12479     12466     12474     12468     12461
     12488     12491     12486     12490     12491     12488     12497     12493
     12494     12486     12497     12496     12497     12494     12491     12499
     12486     12494     12488     12481     12508     12511     12506     12510
     12511     12508     12517     12513     12514     12506     12517     12516
     12517     12514     12511     12519     12506     12514     12508     12501
     12528     12531     12526     12530     12531     12528     12537     12533
     12534     12526     12537     12536     12537     12534     12531     12539
     12526     12534     12528     12521     12548     12543     12550     12541
     12564     12559     12566     12557     12580     12575     12582     12573
     12596     12591     12598     12589     12612     12607     12614     12605
     12628     12623     12630     12621     12644     12639     12646     12637
     12660     12655     12662     12653     12676     12671     12678     12669
     12692     12687     12694     12685     12708     12703     12710     12701
     12724     12719     12726     12717     12740     12735     12742     12733
     12756     12751     12758     12749     12772     12767     12774     12765
     12788     12783     12790     12781     12804     12799     12806     12797
     12820     12815     12822     12813     12836     12831     12838     12829
     12852     12847     12854     12845     12868     12863     12870     12861
     12884     12879     12886     12877     12900     12895     12902     12893
     12916     12911     12918     12909     12932     12927     12934     12925
     12948     12943     12950     12941     12964     12959     12966     12957
     12980     12975     12982     12973     12996     12991     12998     12989
     13012     13007     13014     13005     13028     13023     13030     13021
     13044     13039     13046     13037     13060     13055     13062     13053
     13076     13071     13078     13069     13092     13087     13094     13085
     13108     13103     13110     13101     13124     13119     13126     13117
     13140     13135     13142     13133     13156     13151     13158     13149
     13172     13167     13174     13165     13188     13183     13190     13181
     13204     13199     13206     13197     13220     13215     13222     13213
     13236     13231     13238     13229     13252     13247     13254     13245
     13268     13263     13270     13261     13284     13279     13286     13277
     13300     13295     13302     13293     13316     13311     13318     13309
     13332     13327     13334     13325     13348     13343     13350     13341
     13364     13359     13366     13357     13380     13375     13382     13373
     13396     13391     13398     13389     13412     13407     13414     13405
     13428     13423     13430     13421     13444     13439     13446     13437
     13460     13455     13462     13453     13476     13471     13478     13469
     13492     13487     13494     13485     13508     13503     13510     13501
     13524     13519     13526     13517     13540     13535     13542     13533
     13556     13551     13558     13549     13572     13567     13574     13565
     13588     13583     13590     13581     13604     13599     13606     13597
     13620     13615     13622     13613     13636     13631     13638     13629
     13652     13647     13654     13645     13668     13663     13670     13661
     13684     13679     13686     13677     13700     13695     13702     13693
     13716     13711     13718     13709     13732     13727     13734     13725
     13748     13743     13750     13741     13764     13759     13766     13757
     13780     13775     13782     13773     13796     13791     13798     13789
     13812     13807     13814     13805     13828     13823     13830     13821
     13844     13839     13846     13837     13860     13855     13862     13853
     13876     13871     13878     13869     13892     13887     13894     13885
     13908     13903     13910     13901     13924     13919     13926     13917
     13940     13935     13942     13933     13956     13951     13958     13949
     13972     13967     13974     13965     13988     13983     13990     13981
     14004     13999     14006     13997     14020     14015     14022     14013
     14036     14031     14038     14029     14052     14047     14054     14045
     14068     14063     14070     14061     14084     14079     14086     14077
     14100     14095     14102     14093     14116     14111     14118     14109
     14132     14127     14134     14125     14148     14143     14150     14141
     14164     14159     14166     14157     14180     14175     14182     14173
     14196     14191     14198     14189     14212     14207     14214     14205
     14228     14223     14230     14221     14244     14239     14246     14237
     14260     14255     14262     14253     14276     14271     14278     14269
     14292     14287     14294     14285     14308     14303     14310     14301
     14324     14319     14326     14317     14340     14335     14342     14333
     14356     14351     14358     14349     14372     14367     14374     14365
     14388     14383     14390     14381     14404     14399     14406     14397
     14420     14415     14422     14413     14436     14431     14438     14429
     14452     14447     14454     14445     14468     14463     14470     14461
     14484     14479     14486     14477     14500     14495     14502     14493
     14516     14511     14518     14509     14532     14527     14534     14525
     14548     14543     14550     14541     14564     14559     14566     14557
     14580     14575     14582     14573     14596     14591     14598     14589
     14612     14607     14614     14605     14628     14623     14630     14621
     14644     14639     14646     14637     14660     14655     14662     14653
     14676     14671     14678     14669     14692     14687     14694     14685
     14708     14703     14710     14701     14724     14719     14726     14717
     14740     14735     14742     14733     14756     14751     14758     14749
     14772     14767     14774     14765     14788     14783     14790     14781
     14804     14799     14806     14797     14820     14815     14822     14813
     14836     14831     14838     14829     14852     14847     14854     14845
     14868     14863     14870     14861     14884     14879     14886     14877
     14900     14895     14902     14893     14916     14911     14918     14909
     14932     14927     14934     14925     14948     14943     14950     14941
     14964     14959     14966     14957     14980     14975     14982     14973
     14996     14991     14998     14989     15012     15007     15014     15005
     15028     15023     15030     15021     15044     15039     15046     15037
     15060     15055     15062     15053     15076     15071     15078     15069
     15092     15087     15094     15085     15108     15103     15110     15101
     15124     15119     15126     15117     15140     15135     15142     15133
     15156     15151     15158     15149     15172     15167     15174     15165
     15188     15183     15190     15181     15204     15199     15206     15197
     15220     15215     15222     15213     15236     15231     15238     15229
     15252     15247     15254     15245     15268     15263     15270     15261
     15284     15279     15286     15277     15300     15295     15302     15293
     15316     15311     15318     15309     15332     15327     15334     15325
     15348     15343     15350     15341     15364     15359     15366     15357
     15380     15375     15382     15373     15396     15391     15398     15389
     15412     15407     15414     15405     15428     15423     15430     15421
     15444     15439     15446     15437     15460     15455     15462     15453
     15476     15471     15478     15469     15492     15487     15494     15485
     15508     15503     15510     15501     15524     15519     15526     15517
     15540     15535     15542     15533     15556     15551     15558     15549
     15572     15567     15574     15565     15588     15583     15590     15581
     15604     15599     15606     15597     15620     15615     15622     15613
     15636     15631     15638     15629     15652     15647     15654     15645
     15668     15663     15670     15661     15684     15679     15686     15677
     15700     15695     15702     15693     15716     15711     15718     15709
     15732     15727     15734     15725     15748     15743     15750     15741
     15764     15759     15766     15757     15780     15775     15782     15773
     15796     15791     15798     15789     15812     15807     15814     15805
     15828     15823     15830     15821     15844     15839     15846     15837
     15860     15855     15862     15853     15876     15871     15878     15869
     15892     15887     15894     15885     15908     15903     15910     15901
     15924     15919     15926     15917     15940     15935     15942     15933
     15956     15951     15958     15949     15972     15967     15974     15965
     15988     15983     15990     15981     16004     15999     16006     15997
     16020     16015     16022     16013     16036     16031     16038     16029
     16052     16047     16054     16045     16068     16063     16070     16061
     16084     16079     16086     16077     16100     16095     16102     16093
     16116     16111     16118     16109     16132     16127     16134     16125
     16148     16143     16150     16141     16164     16159     16166     16157
     16180     16175     16182     16173     16196     16191     16198     16189
     16212     16207     16214     16205     16228     16223     16230     16221
     16244     16239     16246     16237     16260     16255     16262     16253
     16276     16271     16278     16269     16292     16287     16294     16285
     16308     16303     16310     16301     16324     16319     16326     16317
     16340     16335     16342     16333     16356     16351     16358     16349
     16372     16367     16374     16365     16388     16383     16390     16381
     16404     16399     16406     16397     16420     16415     16422     16413
     16436     16431     16438     16429     16452     16447     16454     16445
     16468     16463     16470     16461     16484     16479     16486     16477
     16500     16495     16502     16493     16516     16511     16518     16509
     16532     16527     16534     16525     16548     16543     16550     16541
     16564     16559     16566     16557     16580     16575     16582     16573
     16596     16591     16598     16589     16612     16607     16614     16605
     16628     16623     16630     16621     16644     16639     16646     16637
     16660     16655     16662     16653     16676     16671     16678     16669
     16692     16687     16694     16685     16708     16703     16710     16701
     16724     16719     16726     16717     16740     16735     16742     16733
     16756     16751     16758     16749     16772     16767     16774     16765
     16788     16783     16790     16781     16804     16799     16806     16797
     16820     16815     16822     16813     16836     16831     16838     16829
     16852     16847     16854     16845     16868     16863     16870     16861
     16884     16879     16886     16877     16900     16895     16902     16893
     16916     16911     16918     16909     16932     16927     16934     16925
     16948     16943     16950     16941     16964     16959     16966     16957
     16980     16975     16982     16973     16996     16991     16998     16989
     17012     17007     17014     17005     17028     17023     17030     17021
     17044     17039     17046     17037     17060     17055     17062     17053
     17076     17071     17078     17069     17092     17087     17094     17085
     17108     17103     17110     17101     17124     17119     17126     17117
     17140     17135     17142     17133     17156     17151     17158     17149
     17172     17167     17174     17165     17188     17183     17190     17181
     17204     17199     17206     17197     17220     17215     17222     17213
     17236     17231     17238     17229     17252     17247     17254     17245
     17268     17263     17270     17261     17284     17279     17286     17277
     17300     17295     17302     17293     17316     17311     17318     17309
     17332     17327     17334     17325     17348     17343     17350     17341
     17364     17359     17366     17357     17380     17375     17382     17373
     17396     17391     17398     17389     17412     17407     17414     17405
     17428     17423     17430     17421     17444     17439     17446     17437
     17460     17455     17462     17453     17476     17471     17478     17469
     17492     17487     17494     17485     17508     17503     17510     17501
     17524     17519     17526     17517     17540     17535     17542     17533
     17556     17551     17558     17549     17572     17567     17574     17565
     17588     17583     17590     17581     17604     17599     17606     17597
     17620     17615     17622     17613     17636     17631     17638     17629
     17652     17647     17654     17645     17668     17663     17670     17661
     17684     17679     17686     17677     17700     17695     17702     17693
     17716     17711     17718     17709     17732     17727     17734     17725
     17748     17743     17750     17741     17764     17759     17766     17757
     17780     17775     17782     17773     17796     17791     17798     17789
     17812     17807     17814     17805     17828     17823     17830     17821
     17844     17839     17846     17837     17860     17855     17862     17853
     17876     17871     17878     17869     17892     17887     17894     17885
     17908     17903     17910     17901     17924     17919     17926     17917
     17940     17935     17942     17933     17956     17951     17958     17949
     17972     17967     17974     17965     17988     17983     17990     17981
     18004     17999     18006     17997     18020     18015     18022     18013
     18036     18031     18038     18029     18052     18047     18054     18045
     18068     18063     18070     18061     18084     18079     18086     18077
     18100     18095     18102     18093     18116     18111     18118     18109
     18132     18127     18134     18125

         0 !NDON: donors


         0 !NACC: acceptors


         0 !NNB

         0         0         0         0         0         0         0         0
         0         0         0         0         0         0         0         0
         0         0         0         0         0         0         0         0
         0         0         0         0         0         0         0         0
         0         0         0         0         0         0         0         0
         0         0         0         0         0         0         0         0
         0         0         0         0         0         0         0         0
         0         0         0         0         0         0         0         0
         0         0         0         0         0         0         0         0
         0         0         0         0         0         0         0         0
         0         0         0         0         0         0         0         0
         0         0         0         0         0         0         0         0
         0         0         0         0         0         0         0         0
         0         0         0         0         0         0         0         0
         0         0         0         0         0         0         0         0
         0         0         0         0         0         0         0         0
         0         0         0         0         0         0         0         0
         0         0         0         0         0         0         0         0
         0         0         0         0         0         0         0         0
         0         0         0         0         0         0         0         0
         0         0         0         0         0         0         0         0
         0         0         0         0         0         0         0         0
         0         0         0         0         0         0         0         0
         0         0         0         0         0         0         0         0
         0         0         0         0         0         0         0         0
         0         0         0         0         0         0         0         0
         0         0         0         0         0         0         0         0
         0         0         0         0         0         0         0         0
         0         0         0         0         0         0         0         0
         0         0         0         0         0         0         0         0
         0         0         0         0         0         0         0         0
         0         0         0         0         0         0         0         0
         0         0         0         0         0         0         0         0
         0         0         0         0         0         0         0         0
         0         0         0         0         0         0         0         0
         0         0         0         0         0         0         0         0
         0         0         0         0         0         0         0         0
         0         0         0         0         0         0         0         0
         0         0         0         0         0         0         0         0
         0         0         0         0         0         0         0         0
         0         0         0         0         0         0         0         0
         0         0         0         0         0         0         0         0
         0         0         0         0         0         0         0         0
         0         0         0         0         0         0         0         0
         0         0         0         0         0         0         0         0
         0         0         0         0         0         0         0         0
         0         0         0         0         0         0         0         0
         0         0         0         0         0         0         0         0
         0         0         0         0         0         0         0         0
         0         0         0         0         0         0         0         0
         0         0         0         0         0         0         0         0
         0         0         0         0         0         0         0         0
         0         0         0         0         0         0         0         0
         0         0         0         0         0         0         0         0
         0         0         0         0         0         0         0         0
         0         0         0         0         0         0         0         0
         0         0         0         0         0         0         0         0
         0         0         0         0         0         0         0         0
         0         0         0         0         0         0         0         0
         0         0         0         0         0         0         0         0
         0         0         0         0         0         0         0         0
         0         0         0         0         0         0         0         0
         0         0         0         0         0         0         0         0
         0         0         0         0         0         0         0         0
         0         0         0         0         0         0         0         0
         0         0         0         0         0         0         0         0
         0         0         0         0         0         0         0         0
         0         0         0         0         0         0         0         0
         0         0         0         0         0         0         0         0
         0         0         0         0         0         0         0         0
         0         0         0         0         0         0         0         0
         0         0         0         0         0         0         0         0
         0         0         0         0         0         0         0         0
         0         0         0         0         0         0         0         0
         0         0         0         0         0         0         0         0
         0         0         0         0         0         0         0         0
         0         0         0         0         0         0         0         0
         0         0         0         0         0         0         0         0
         0         0         0         0         0         0         0         0
         0         0         0         0         0         0         0         0
         0         0         0         0         0         0         0         0
         0         0         0         0         0         0         0         0
         0         0         0         0         0         0         0         0
         0         0         0         0         0         0         0         0
         0         0         0         0         0         0         0         0
         0         0         0         0         0         0         0         0
         0         0         0         0         0         0         0         0
         0         0         0         0         0         0         0         0
         0         0         0         0         0         0         0         0
         0         0         0         0         0         0         0         0
         0         0         0         0         0         0         0         0
         0         0         0         0         0         0         0         0
         0         0         0         0         0         0         0         0
         0         0         0         0         0         0         0         0
         0         0         0         0         0         0         0         0
         0         0         0         0         0         0         0         0
         0         0         0         0         0         0         0         0
         0         0         0         0         0         0         0         0
         0         0         0         0         0         0         0         0
         0         0         0         0         0         0         0         0
         0         0         0         0         0         0         0         0
         0         0         0         0         0         0         0         0
         0         0         0         0         0         0         0         0
         0         0         0         0         0         0         0         0
         0         0         0         0         0         0         0         0
         0         0         0         0         0         0         0         0
         0         0         0         0         0         0         0         0
         0         0         0         0         0         0         0         0
         0         0         0         0         0         0         0         0
         0         0         0         0         0         0         0         0
         0         0         0         0         0         0         0         0
         0         0         0         0         0         0         0         0
         0         0         0         0         0         0         0         0
         0         0         0         0         0         0         0         0
         0         0         0         0         0         0         0         0
         0         0         0         0         0         0         0         0
         0         0         0         0         0         0         0         0
         0         0         0         0         0         0         0         0
         0         0         0         0         0         0         0         0
         0         0         0         0         0         0         0         0
         0         0         0         0         0         0         0         0
         0         0         0         0         0         0         0         0
         0         0         0         0         0         0         0         0
         0         0         0         0         0         0         0         0
         0         0         0         0         0         0         0         0
         0         0         0         0         0         0         0         0
         0         0         0         0         0         0         0         0
         0         0         0         0         0         0         0         0
         0         0         0         0         0         0         0         0
         0         0         0         0         0         0         0         0
         0         0         0         0         0         0         0         0
         0         0         0         0         0         0         0         0
         0         0         0         0         0         0         0         0
         0         0         0         0         0         0         0         0
         0         0         0         0         0         0         0         0
         0         0         0         0         0         0         0         0
         0         0         0         0         0         0         0         0
         0         0         0         0         0         0         0         0
         0         0         0         0         0         0         0         0
         0         0         0         0         0         0         0         0
         0         0         0         0         0         0         0         0
         0         0         0         0         0         0         0         0
         0         0         0         0         0         0         0         0
         0         0         0         0         0         0         0         0
         0         0         0         0         0         0         0         0
         0         0         0         0         0         0         0         0
         0         0         0         0         0         0         0         0
         0         0         0         0         0         0         0         0
         0         0         0         0         0         0         0         0
         0         0         0         0         0         0         0         0
         0         0         0         0         0         0         0         0
         0         0         0         0         0         0         0         0
         0         0         0         0         0         0         0         0
         0         0         0         0         0         0         0         0
         0         0         0         0         0         0         0         0
         0         0         0         0         0         0         0         0
         0         0         0         0         0         0         0         0
         0         0         0         0         0         0         0         0
         0         0         0         0         0         0         0         0
         0         0         0         0         0         0         0         0
         0         0         0         0         0         0         0         0
         0         0         0         0         0         0         0         0
         0         0         0         0         0         0         0         0
         0         0         0         0         0         0         0         0
         0         0         0         0         0         0         0         0
         0         0         0         0         0         0         0         0
         0         0         0         0         0         0         0         0
         0         0         0         0         0         0         0         0
         0         0         0         0         0         0         0         0
         0         0         0         0         0         0         0         0
         0         0         0         0         0         0         0         0
         0         0         0         0         0         0         0         0
         0         0         0         0         0         0         0         0
         0         0         0         0         0         0         0         0
         0         0         0         0         0         0         0         0
         0         0         0         0         0         0         0         0
         0         0         0         0         0         0         0         0
         0         0         0         0         0         0         0         0
         0         0         0         0         0         0         0         0
         0         0         0         0         0         0         0         0
         0         0         0         0         0         0         0         0
         0         0         0         0         0         0         0         0
         0         0         0         0         0         0         0         0
         0         0         0         0         0         0         0         0
         0         0         0         0         0         0         0         0
         0         0         0         0         0         0         0         0
         0         0         0         0         0         0         0         0
         0         0         0         0         0         0         0         0
         0         0         0         0         0         0         0         0
         0         0         0         0         0         0         0         0
         0         0         0         0         0         0         0         0
         0         0         0         0         0         0         0         0
         0         0         0         0         0         0         0         0
         0         0         0         0         0         0         0         0
         0         0         0         0         0         0         0         0
         0         0         0         0         0         0         0         0
         0         0         0         0         0         0         0         0
         0         0         0         0         0         0         0         0
         0         0         0         0         0         0         0         0
         0         0         0         0         0         0         0         0
         0         0         0         0         0         0         0         0
         0         0         0         0         0         0         0         0
         0         0         0         0         0         0         0         0
         0         0         0         0         0         0         0         0
         0         0         0         0         0         0         0         0
         0         0         0         0         0         0         0         0
         0         0         0         0         0         0         0         0
         0         0         0         0         0         0         0         0
         0         0         0         0         0         0         0         0
         0         0         0         0         0         0         0         0
         0         0         0         0         0         0         0         0
         0         0         0         0         0         0         0         0
         0         0         0         0         0         0         0         0
         0         0         0         0         0         0         0         0
         0         0         0         0         0         0         0         0
         0         0         0         0         0         0         0         0
         0         0         0         0         0         0         0         0
         0         0         0         0         0         0         0         0
         0         0         0         0         0         0         0         0
         0         0         0         0         0         0         0         0
         0         0         0         0         0         0         0         0
         0         0         0         0         0         0         0         0
         0         0         0         0         0         0         0         0
         0         0         0         0         0         0         0         0
         0         0         0         0         0         0         0         0
         0         0         0         0         0         0         0         0
         0         0         0         0         0         0         0         0
         0         0         0         0         0         0         0         0
         0         0         0         0         0         0         0         0
         0         0         0         0         0         0         0         0
         0         0         0         0         0         0         0         0
         0         0         0         0         0         0         0         0
         0         0         0         0         0         0         0         0
         0         0         0         0         0         0         0         0
         0         0         0         0         0         0         0         0
         0         0         0         0         0         0         0         0
         0         0         0         0         0         0         0         0
         0         0         0         0         0         0         0         0
         0         0         0         0         0         0         0         0
         0         0         0         0         0         0         0         0
         0         0         0         0         0         0         0         0
         0         0         0         0         0         0         0         0
         0         0         0         0         0         0         0         0
         0         0         0         0         0         0         0         0
         0         0         0         0         0         0         0         0
         0         0         0         0         0         0         0         0
         0         0         0         0         0         0         0         0
         0         0         0         0         0         0         0         0
         0         0         0         0         0         0         0         0
         0         0         0         0         0         0         0         0
         0         0         0         0         0         0         0         0
         0         0         0         0         0         0         0         0
         0         0         0         0         0         0         0         0
         0         0         0         0         0         0         0         0
         0         0         0         0         0         0         0         0
         0         0         0         0         0         0         0         0
         0         0         0         0         0         0         0         0
         0         0         0         0         0         0         0         0
         0         0         0         0         0         0         0         0
         0         0         0         0         0         0         0         0
         0         0         0         0         0         0         0         0
         0         0         0         0         0         0         0         0
         0         0         0         0         0         0         0         0
         0         0         0         0         0         0         0         0
         0         0         0         0         0         0         0         0
         0         0         0         0         0         0         0         0
         0         0         0         0         0         0         0         0
         0         0         0         0         0         0         0         0
         0         0         0         0         0         0         0         0
         0         0         0         0         0         0         0         0
         0         0         0         0         0         0         0         0
         0         0         0         0         0         0         0         0
         0         0         0         0         0         0         0         0
         0         0         0         0         0         0         0         0
         0         0         0         0         0         0         0         0
         0         0         0         0         0         0         0         0
         0         0         0         0         0         0         0         0
         0         0         0         0         0         0         0         0
         0         0         0         0         0         0         0         0
         0         0         0         0         0         0         0         0
         0         0         0         0         0         0         0         0
         0         0         0         0         0         0         0         0
         0         0         0         0         0         0         0         0
         0         0         0         0         0         0         0         0
         0         0         0         0         0         0         0         0
         0         0         0         0         0         0         0         0
         0         0         0         0         0         0         0         0
         0         0         0         0         0         0         0         0
         0         0         0         0         0         0         0         0
         0         0         0         0         0         0         0         0
         0         0         0         0         0         0         0         0
         0         0         0         0         0         0         0         0
         0         0         0         0         0         0         0         0
         0         0         0         0         0         0         0         0
         0         0         0         0         0         0         0         0
         0         0         0         0         0         0         0         0
         0         0         0         0         0         0         0         0
         0         0         0         0         0         0         0         0
         0         0         0         0         0         0         0         0
         0         0         0         0         0         0         0         0
         0         0         0         0         0         0         0         0
         0         0         0         0         0         0         0         0
         0         0         0         0         0         0         0         0
         0         0         0         0         0         0         0         0
         0         0         0         0         0         0         0         0
         0         0         0         0         0         0         0         0
         0         0         0         0         0         0         0         0
         0         0         0         0         0         0         0         0
         0         0         0         0         0         0         0         0
         0         0         0         0         0         0         0         0
         0         0         0         0         0         0         0         0
         0         0         0         0         0         0         0         0
         0         0         0         0         0         0         0         0
         0         0         0         0         0         0         0         0
         0         0         0         0         0         0         0         0
         0         0         0         0         0         0         0         0
         0         0         0         0         0         0         0         0
         0         0         0         0         0         0         0         0
         0         0         0         0         0         0         0         0
         0         0         0         0         0         0         0         0
         0         0         0         0         0         0         0         0
         0         0         0         0         0         0         0         0
         0         0         0         0         0         0         0         0
         0         0         0         0         0         0         0         0
         0         0         0         0         0         0         0         0
         0         0         0         0         0         0         0         0
         0         0         0         0         0         0         0         0
         0         0         0         0         0         0         0         0
         0         0         0         0         0         0         0         0
         0         0         0         0         0         0         0         0
         0         0         0         0         0         0         0         0
         0         0         0         0         0         0         0         0
         0         0         0         0         0         0         0         0
         0         0         0         0         0         0         0         0
         0         0         0         0         0         0         0         0
         0         0         0         0         0         0         0         0
         0         0         0         0         0         0         0         0
         0         0         0         0         0         0         0         0
         0         0         0         0         0         0         0         0
         0         0         0         0         0         0         0         0
         0         0         0         0         0         0         0         0
         0         0         0         0         0         0         0         0
         0         0         0         0         0         0         0         0
         0         0         0         0         0         0         0         0
         0         0         0         0         0         0         0         0
         0         0         0         0         0         0         0         0
         0         0         0         0         0         0         0         0
         0         0         0         0         0         0         0         0
         0         0         0         0         0         0         0         0
         0         0         0         0         0         0         0         0
         0         0         0         0         0         0         0         0
         0         0         0         0         0         0         0         0
         0         0         0         0         0         0         0         0
         0         0         0         0         0         0         0         0
         0         0         0         0         0         0         0         0
         0         0         0         0         0         0         0         0
         0         0         0         0         0         0         0         0
         0         0         0         0         0         0         0         0
         0         0         0         0         0         0         0         0
         0         0         0         0         0         0         0         0
         0         0         0         0         0         0         0         0
         0         0         0         0         0         0         0         0
         0         0         0         0         0         0         0         0
         0         0         0         0         0         0         0         0
         0         0         0         0         0         0         0         0
         0         0         0         0         0         0         0         0
         0         0         0         0         0         0         0         0
         0         0         0         0         0         0         0         0
         0         0         0         0         0         0         0         0
         0         0         0         0         0         0         0         0
         0         0         0         0         0         0         0         0
         0         0         0         0         0         0         0         0
         0         0         0         0         0         0         0         0
         0         0         0         0         0         0         0         0
         0         0         0         0         0         0         0         0
         0         0         0         0         0         0         0         0
         0         0         0         0         0         0         0         0
         0         0         0         0         0         0         0         0
         0         0         0         0         0         0         0         0
         0         0         0         0         0         0         0         0
         0         0         0         0         0         0         0         0
         0         0         0         0         0         0         0         0
         0         0         0         0         0         0         0         0
         0         0         0         0         0         0         0         0
         0         0         0         0         0         0         0         0
         0         0         0         0         0         0         0         0
         0         0         0         0         0         0         0         0
         0         0         0         0         0         0         0         0
         0         0         0         0         0         0         0         0
         0         0         0         0         0         0         0         0
         0         0         0         0         0         0         0         0
         0         0         0         0         0         0         0         0
         0         0         0         0         0         0         0         0
         0         0         0         0         0         0         0         0
         0         0         0         0         0         0         0         0
         0         0         0         0         0         0         0         0
         0         0         0         0         0         0         0         0
         0         0         0         0         0         0         0         0
         0         0         0         0         0         0         0         0
         0         0         0         0         0         0         0         0
         0         0         0         0         0         0         0         0
         0         0         0         0         0         0         0         0
         0         0         0         0         0         0         0         0
         0         0         0         0         0         0         0         0
         0         0         0         0         0         0         0         0
         0         0         0         0         0         0         0         0
         0         0         0         0         0         0         0         0
         0         0         0         0         0         0         0         0
         0         0         0         0         0         0         0         0
         0         0         0         0         0         0         0         0
         0         0         0         0         0         0         0         0
         0         0         0         0         0         0         0         0
         0         0         0         0         0         0         0         0
         0         0         0         0         0         0         0         0
         0         0         0         0         0         0         0         0
         0         0         0         0         0         0         0         0
         0         0         0         0         0         0         0         0
         0         0         0         0         0         0         0         0
         0         0         0         0         0         0         0         0
         0         0         0         0         0         0         0         0
         0         0         0         0         0         0         0         0
         0         0         0         0         0         0         0         0
         0         0         0         0         0         0         0         0
         0         0         0         0         0         0         0         0
         0         0         0         0         0         0         0         0
         0         0         0         0         0         0         0         0
         0         0         0         0         0         0         0         0
         0         0         0         0         0         0         0         0
         0         0         0         0         0         0         0         0
         0         0         0         0         0         0         0         0
         0         0         0         0         0         0         0         0
         0         0         0         0         0         0         0         0
         0         0         0         0         0         0         0         0
         0         0         0         0         0         0         0         0
         0         0         0         0         0         0         0         0
         0         0         0         0         0         0         0         0
         0         0         0         0         0         0         0         0
         0         0         0         0         0         0         0         0
         0         0         0         0         0         0         0         0
         0         0         0         0         0         0         0         0
         0         0         0         0         0         0         0         0
         0         0         0         0         0         0         0         0
         0         0         0         0         0         0         0         0
         0         0         0         0         0         0         0         0
         0         0         0         0         0         0         0         0
         0         0         0         0         0         0         0         0
         0         0         0         0         0         0         0         0
         0         0         0         0         0         0         0         0
         0         0         0         0         0         0         0         0
         0         0         0         0         0         0         0         0
         0         0         0         0         0         0         0         0
         0         0         0         0         0         0         0         0
         0         0         0         0         0         0         0         0
         0         0         0         0         0         0         0         0
         0         0         0         0         0         0         0         0
         0         0         0         0         0         0         0         0
         0         0         0         0         0         0         0         0
         0         0         0         0         0         0         0         0
         0         0         0         0         0         0         0         0
         0         0         0         0         0         0         0         0
         0         0         0         0         0         0         0         0
         0         0         0         0         0         0         0         0
         0         0         0         0         0         0         0         0
         0         0         0         0         0         0         0         0
         0         0         0         0         0         0         0         0
         0         0         0         0         0         0         0         0
         0         0         0         0         0         0         0         0
         0         0         0         0         0         0         0         0
         0         0         0         0         0         0         0         0
         0         0         0         0         0         0         0         0
         0         0         0         0         0         0         0         0
         0         0         0         0         0         0         0         0
         0         0         0         0         0         0         0         0
         0         0         0         0         0         0         0         0
         0         0         0         0         0         0         0         0
         0         0         0         0         0         0         0         0
         0         0         0         0         0         0         0         0
         0         0         0         0         0         0         0         0
         0         0         0         0         0         0         0         0
         0         0         0         0         0         0         0         0
         0         0         0         0         0         0         0         0
         0         0         0         0         0         0         0         0
         0         0         0         0         0         0         0         0
         0         0         0         0         0         0         0         0
         0         0         0         0         0         0         0         0
         0         0         0         0         0         0         0         0
         0         0         0         0         0         0         0         0
         0         0         0         0         0         0         0         0
         0         0         0         0         0         0         0         0
         0         0         0         0         0         0         0         0
         0         0         0         0         0         0         0         0
         0         0         0         0         0         0         0         0
         0         0         0         0         0         0         0         0
         0         0         0         0         0         0         0         0
         0         0         0         0         0         0         0         0
         0         0         0         0         0         0         0         0
         0         0         0         0         0         0         0         0
         0         0         0         0         0         0         0         0
         0         0         0         0         0         0         0         0
         0         0         0         0         0         0         0         0
         0         0         0         0         0         0         0         0
         0         0         0         0         0         0         0         0
         0         0         0         0         0         0         0         0
         0         0         0         0         0         0         0         0
         0         0         0         0         0         0         0         0
         0         0         0         0         0         0         0         0
         0         0         0         0         0         0         0         0
         0         0         0         0         0         0         0         0
         0         0         0         0         0         0         0         0
         0         0         0         0         0         0         0         0
         0         0         0         0         0         0         0         0
         0         0         0         0         0         0         0         0
         0         0         0         0         0         0         0         0
         0         0         0         0         0         0         0         0
         0         0         0         0         0         0         0         0
         0         0         0         0         0         0         0         0
         0         0         0         0         0         0         0         0
         0         0         0         0         0         0         0         0
         0         0         0         0         0         0         0         0
         0         0         0         0         0         0         0         0
         0         0         0         0         0         0         0         0
         0         0         0         0         0         0         0         0
         0         0         0         0         0         0         0         0
         0         0         0         0         0         0         0         0
         0         0         0         0         0         0         0         0
         0         0         0         0         0         0         0         0
         0         0         0         0         0         0         0         0
         0         0         0         0         0         0         0         0
         0         0         0         0         0         0         0         0
         0         0         0         0         0         0         0         0
         0         0         0         0         0         0         0         0
         0         0         0         0         0         0         0         0
         0         0         0         0         0         0         0         0
         0         0         0         0         0         0         0         0
         0         0         0         0         0         0         0         0
         0         0         0         0         0         0         0         0
         0         0         0         0         0         0         0         0
         0         0         0         0         0         0         0         0
         0         0         0         0         0         0         0         0
         0         0         0         0         0         0         0         0
         0         0         0         0         0         0         0         0
         0         0         0         0         0         0         0         0
         0         0         0         0         0         0         0         0
         0         0         0         0         0         0         0         0
         0         0         0         0         0         0         0         0
         0         0         0         0         0         0         0         0
         0         0         0         0         0         0         0         0
         0         0         0         0         0         0         0         0
         0         0         0         0         0         0         0         0
         0         0         0         0         0         0         0         0
         0         0         0         0         0         0         0         0
         0         0         0         0         0         0         0         0
         0         0         0         0         0         0         0         0
         0         0         0         0         0         0         0         0
         0         0         0         0         0         0         0         0
         0         0         0         0         0         0         0         0
         0         0         0         0         0         0         0         0
         0         0         0         0         0         0         0         0
         0         0         0         0         0         0         0         0
         0         0         0         0         0         0         0         0
         0         0         0         0         0         0         0         0
         0         0         0         0         0         0         0         0
         0         0         0         0         0         0         0         0
         0         0         0         0         0         0         0         0
         0         0         0         0         0         0         0         0
         0         0         0         0         0         0         0         0
         0         0         0         0         0         0         0         0
         0         0         0         0         0         0         0         0
         0         0         0         0         0         0         0         0
         0         0         0         0         0         0         0         0
         0         0         0         0         0         0         0         0
         0         0         0         0         0         0         0         0
         0         0         0         0         0         0         0         0
         0         0         0         0         0         0         0         0
         0         0         0         0         0         0         0         0
         0         0         0         0         0         0         0         0
         0         0         0         0         0         0         0         0
         0         0         0         0         0         0         0         0
         0         0         0         0         0         0         0         0
         0         0         0         0         0         0         0         0
         0         0         0         0         0         0         0         0
         0         0         0         0         0         0         0         0
         0         0         0         0         0         0         0         0
         0         0         0         0         0         0         0         0
         0         0         0         0         0         0         0         0
         0         0         0         0         0         0         0         0
         0         0         0         0         0         0         0         0
         0         0         0         0         0         0         0         0
         0         0         0         0         0         0         0         0
         0         0         0         0         0         0         0         0
         0         0         0         0         0         0         0         0
         0         0         0         0         0         0         0         0
         0         0         0         0         0         0         0         0
         0         0         0         0         0         0         0         0
         0         0         0         0         0         0         0         0
         0         0         0         0         0         0         0         0
         0         0         0         0         0         0         0         0
         0         0         0         0         0         0         0         0
         0         0         0         0         0         0         0         0
         0         0         0         0         0         0         0         0
         0         0         0         0         0         0         0         0
         0         0         0         0         0         0         0         0
         0         0         0         0         0         0         0         0
         0         0         0         0         0         0         0         0
         0         0         0         0         0         0         0         0
         0         0         0         0         0         0         0         0
         0         0         0         0         0         0         0         0
         0         0         0         0         0         0         0         0
         0         0         0         0         0         0         0         0
         0         0         0         0         0         0         0         0
         0         0         0         0         0         0         0         0
         0         0         0         0         0         0         0         0
         0         0         0         0         0         0         0         0
         0         0         0         0         0         0         0         0
         0         0         0         0         0         0         0         0
         0         0         0         0         0         0         0         0
         0         0         0         0         0         0         0         0
         0         0         0         0         0         0         0         0
         0         0         0         0         0         0         0         0
         0         0         0         0         0         0         0         0
         0         0         0         0         0         0         0         0
         0         0         0         0         0         0         0         0
         0         0         0         0         0         0         0         0
         0         0         0         0         0         0         0         0
         0         0         0         0         0         0         0         0
         0         0         0         0         0         0         0         0
         0         0         0         0         0         0         0         0
         0         0         0         0         0         0         0         0
         0         0         0         0         0         0         0         0
         0         0         0         0         0         0         0         0
         0         0         0         0         0         0         0         0
         0         0         0         0         0         0         0         0
         0         0         0         0         0         0         0         0
         0         0         0         0         0         0         0         0
         0         0         0         0         0         0         0         0
         0         0         0         0         0         0         0         0
         0         0         0         0         0         0         0         0
         0         0         0         0         0         0         0         0
         0         0         0         0         0         0         0         0
         0         0         0         0         0         0         0         0
         0         0         0         0         0         0         0         0
         0         0         0         0         0         0         0         0
         0         0         0         0         0         0         0         0
         0         0         0         0         0         0         0         0
         0         0         0         0         0         0         0         0
         0         0         0         0         0         0         0         0
         0         0         0         0         0         0         0         0
         0         0         0         0         0         0         0         0
         0         0         0         0         0         0         0         0
         0         0         0         0         0         0         0         0
         0         0         0         0         0         0         0         0
         0         0         0         0         0         0         0         0
         0         0         0         0         0         0         0         0
         0         0         0         0         0         0         0         0
         0         0         0         0         0         0         0         0
         0         0         0         0         0         0         0         0
         0         0         0         0         0         0         0         0
         0         0         0         0         0         0         0         0
         0         0         0         0         0         0         0         0
         0         0         0         0         0         0         0         0
         0         0         0         0         0         0         0         0
         0         0         0         0         0         0         0         0
         0         0         0         0         0         0         0         0
         0         0         0         0         0         0         0         0
         0         0         0         0         0         0         0         0
         0         0         0         0         0         0         0         0
         0         0         0         0         0         0         0         0
         0         0         0         0         0         0         0         0
         0         0         0         0         0         0         0         0
         0         0         0         0         0         0         0         0
         0         0         0         0         0         0         0         0
         0         0         0         0         0         0         0         0
         0         0         0         0         0         0         0         0
         0         0         0         0         0         0         0         0
         0         0         0         0         0         0         0         0
         0         0         0         0         0         0         0         0
         0         0         0         0         0         0         0         0
         0         0         0         0         0         0         0         0
         0         0         0         0         0         0         0         0
         0         0         0         0         0         0         0         0
         0         0         0         0         0         0         0         0
         0         0         0         0         0         0         0         0
         0         0         0         0         0         0         0         0
         0         0         0         0         0         0         0         0
         0         0         0         0         0         0         0         0
         0         0         0         0         0         0         0         0
         0         0         0         0         0         0         0         0
         0         0         0         0         0         0         0         0
         0         0         0         0         0         0         0         0
         0         0         0         0         0         0         0         0
         0         0         0         0         0         0         0         0
         0         0         0         0         0         0         0         0
         0         0         0         0         0         0         0         0
         0         0         0         0         0         0         0         0
         0         0         0         0         0         0         0         0
         0         0         0         0         0         0         0         0
         0         0         0         0         0         0         0         0
         0         0         0         0         0         0         0         0
         0         0         0         0         0         0         0         0
         0         0         0         0         0         0         0         0
         0         0         0         0         0         0         0         0
         0         0         0         0         0         0         0         0
         0         0         0         0         0         0         0         0
         0         0         0         0         0         0         0         0
         0         0         0         0         0         0         0         0
         0         0         0         0         0         0         0         0
         0         0         0         0         0         0         0         0
         0         0         0         0         0         0         0         0
         0         0         0         0         0         0         0         0
         0         0         0         0         0         0         0         0
         0         0         0         0         0         0         0         0
         0         0         0         0         0         0         0         0
         0         0         0         0         0         0         0         0
         0         0         0         0         0         0         0         0
         0         0         0         0         0         0         0         0
         0         0         0         0         0         0         0         0
         0         0         0         0         0         0         0         0
         0         0         0         0         0         0         0         0
         0         0         0         0         0         0         0         0
         0         0         0         0         0         0         0         0
         0         0         0         0         0         0         0         0
         0         0         0         0         0         0         0         0
         0         0         0         0         0         0         0         0
         0         0         0         0         0         0         0         0
         0         0         0         0         0         0         0         0
         0         0         0         0         0         0         0         0
         0         0         0         0         0         0         0         0
         0         0         0         0         0         0         0         0
         0         0         0         0         0         0         0         0
         0         0         0         0         0         0         0         0
         0         0         0         0         0         0         0         0
         0         0         0         0         0         0         0         0
         0         0         0         0         0         0         0         0
         0         0         0         0         0         0         0         0
         0         0         0         0         0         0         0         0
         0         0         0         0         0         0         0         0
         0         0         0         0         0         0         0         0
         0         0         0         0         0         0         0         0
         0         0         0         0         0         0         0         0
         0         0         0         0         0         0         0         0
         0         0         0         0         0         0         0         0
         0         0         0         0         0         0         0         0
         0         0         0         0         0         0         0         0
         0         0         0         0         0         0         0         0
         0         0         0         0         0         0         0         0
         0         0         0         0         0         0         0         0
         0         0         0         0         0         0         0         0
         0         0         0         0         0         0         0         0
         0         0         0         0         0         0         0         0
         0         0         0         0         0         0         0         0
         0         0         0         0         0         0         0         0
         0         0         0         0         0         0         0         0
         0         0         0         0         0         0         0         0
         0         0         0         0         0         0         0         0
         0         0         0         0         0         0         0         0
         0         0         0         0         0         0         0         0
         0         0         0         0         0         0         0         0
         0         0         0         0         0         0         0         0
         0         0         0         0         0         0         0         0
         0         0         0         0         0         0         0         0
         0         0         0         0         0         0         0         0
         0         0         0         0         0         0         0         0
         0         0         0         0         0         0         0         0
         0         0         0         0         0         0         0         0
         0         0         0         0         0         0         0         0
         0         0         0         0         0         0         0         0
         0         0         0         0         0         0         0         0
         0         0         0         0         0         0         0         0
         0         0         0         0         0         0         0         0
         0         0         0         0         0         0         0         0
         0         0         0         0         0         0         0         0
         0         0         0         0         0         0         0         0
         0         0         0         0         0         0         0         0
         0         0         0         0         0         0         0         0
         0         0         0         0         0         0         0         0
         0         0         0         0         0         0         0         0
         0         0         0         0         0         0         0         0
         0         0         0         0         0         0         0         0
         0         0         0         0         0         0         0         0
         0         0         0         0         0         0         0         0
         0         0         0         0         0         0         0         0
         0         0         0         0         0         0         0         0
         0         0         0         0         0         0         0         0
         0         0         0         0         0         0         0         0
         0         0         0         0         0         0         0         0
         0         0         0         0         0         0         0         0
         0         0         0         0         0         0         0         0
         0         0         0         0         0         0         0         0
         0         0         0         0         0         0         0         0
         0         0         0         0         0         0         0         0
         0         0         0         0         0         0         0         0
         0         0         0         0         0         0         0         0
         0         0         0         0         0         0         0         0
         0         0         0         0         0         0         0         0
         0         0         0         0         0         0         0         0
         0         0         0         0         0         0         0         0
         0         0         0         0         0         0         0         0
         0         0         0         0         0         0         0         0
         0         0         0         0         0         0         0         0
         0         0         0         0         0         0         0         0
         0         0         0         0         0         0         0         0
         0         0         0         0         0         0         0         0
         0         0         0         0         0         0         0         0
         0         0         0         0         0         0         0         0
         0         0         0         0         0         0         0         0
         0         0         0         0         0         0         0         0
         0         0         0         0         0         0         0         0
         0         0         0         0         0         0         0         0
         0         0         0         0         0         0         0         0
         0         0         0         0         0         0         0         0
         0         0         0         0         0         0         0         0
         0         0         0         0         0         0         0         0
         0         0         0         0         0         0         0         0
         0         0         0         0         0         0         0         0
         0         0         0         0         0         0         0         0
         0         0         0         0         0         0         0         0
         0         0         0         0         0         0         0         0
         0         0         0         0         0         0         0         0
         0         0         0         0         0         0         0         0
         0         0         0         0         0         0         0         0
         0         0         0         0         0         0         0         0
         0         0         0         0         0         0         0         0
         0         0         0         0         0         0         0         0
         0         0         0         0         0         0         0         0
         0         0         0         0         0         0         0         0
         0         0         0         0         0         0         0         0
         0         0         0         0         0         0         0         0
         0         0         0         0         0         0         0         0
         0         0         0         0         0         0         0         0
         0         0         0         0         0         0         0         0
         0         0         0         0         0         0         0         0
         0         0         0         0         0         0         0         0
         0         0         0         0         0         0         0         0
         0         0         0         0         0         0         0         0
         0         0         0         0         0         0         0         0
         0         0         0         0         0         0         0         0
         0         0         0         0         0         0         0         0
         0         0         0         0         0         0         0         0
         0         0         0         0         0         0         0         0
         0         0         0         0         0         0         0         0
         0         0         0         0         0         0         0         0
         0         0         0         0         0         0         0         0
         0         0         0         0         0         0         0         0
         0         0         0         0         0         0         0         0
         0         0         0         0         0         0         0         0
         0         0         0         0         0         0         0         0
         0         0         0         0         0         0         0         0
         0         0         0         0         0         0         0         0
         0         0         0         0         0         0         0         0
         0         0         0         0         0         0         0         0
         0         0         0         0         0         0         0         0
         0         0         0         0         0         0         0         0
         0         0         0         0         0         0         0         0
         0         0         0         0         0         0         0         0
         0         0         0         0         0         0         0         0
         0         0         0         0         0         0         0         0
         0         0         0         0         0         0         0         0
         0         0         0         0         0         0         0         0
         0         0         0         0         0         0         0         0
         0         0         0         0         0         0         0         0
         0         0         0         0         0         0         0         0
         0         0         0         0         0         0         0         0
         0         0         0         0         0         0         0         0
         0         0         0         0         0         0         0         0
         0         0         0         0         0         0         0         0
         0         0         0         0         0         0         0         0
         0         0         0         0         0         0         0         0
         0         0         0         0         0         0         0         0
         0         0         0         0         0         0         0         0
         0         0         0         0         0         0         0         0
         0         0         0         0         0         0         0         0
         0         0         0         0         0         0         0         0
         0         0         0         0         0         0         0         0
         0         0         0         0         0         0         0         0
         0         0         0         0         0         0         0         0
         0         0         0         0         0         0         0         0
         0         0         0         0         0         0         0         0
         0         0         0         0         0         0         0         0
         0         0         0         0         0         0         0         0
         0         0         0         0         0         0         0         0
         0         0         0         0         0         0         0         0
         0         0         0         0         0         0         0         0
         0         0         0         0         0         0         0         0
         0         0         0         0         0         0         0         0
         0         0         0         0         0         0         0         0
         0         0         0         0         0         0         0         0
         0         0         0         0         0         0         0         0
         0         0         0         0         0         0         0         0
         0         0         0         0         0         0         0         0
         0         0         0         0         0         0         0         0
         0         0         0         0         0         0         0         0
         0         0         0         0         0         0         0         0
         0         0         0         0         0         0         0         0
         0         0         0         0         0         0         0         0
         0         0         0         0         0         0         0         0
         0         0         0         0         0         0         0         0
         0         0         0         0         0         0         0         0
         0         0         0         0         0         0         0         0
         0         0         0         0         0         0         0         0
         0         0         0         0         0         0         0         0
         0         0         0         0         0         0         0         0
         0         0         0         0         0         0         0         0
         0         0         0         0         0         0         0         0
         0         0         0         0         0         0         0         0
         0         0         0         0         0         0         0         0
         0         0         0         0         0         0         0         0
         0         0         0         0         0         0         0         0
         0         0         0         0         0         0         0         0
         0         0         0         0         0         0         0         0
         0         0         0         0         0         0         0         0
         0         0         0         0         0         0         0         0
         0         0         0         0         0         0         0         0
         0         0         0         0         0         0         0         0
         0         0         0         0         0         0         0         0
         0         0         0         0         0         0         0         0
         0         0         0         0         0         0         0         0
         0         0         0         0         0         0         0         0
         0         0         0         0         0         0         0         0
         0         0         0         0         0         0         0         0
         0         0         0         0         0         0         0         0
         0         0         0         0         0         0         0         0
         0         0         0         0         0         0         0         0
         0         0         0         0         0         0         0         0
         0         0         0         0         0         0         0         0
         0         0         0         0         0         0         0         0
         0         0         0         0         0         0         0         0
         0         0         0         0         0         0         0         0
         0         0         0         0         0         0         0         0
         0         0         0         0         0         0         0         0
         0         0         0         0         0         0         0         0
         0         0         0         0         0         0         0         0
         0         0         0         0         0         0         0         0
         0         0         0         0         0         0         0         0
         0         0         0         0         0         0         0         0
         0         0         0         0         0         0         0         0
         0         0         0         0         0         0         0         0
         0         0         0         0         0         0         0         0
         0         0         0         0         0         0         0         0
         0         0         0         0         0         0         0         0
         0         0         0         0         0         0         0         0
         0         0         0         0         0         0         0         0
         0         0         0         0         0         0         0         0
         0         0         0         0         0         0         0         0
         0         0         0         0         0         0         0         0
         0         0         0         0         0         0         0         0
         0         0         0         0         0         0         0         0
         0         0         0         0         0         0         0         0
         0         0         0         0         0         0         0         0
         0         0         0         0         0         0         0         0
         0         0         0         0         0         0         0         0
         0         0         0         0         0         0         0         0
         0         0         0         0         0         0         0         0
         0         0         0         0         0         0         0         0
         0         0         0         0         0         0         0         0
         0         0         0         0         0         0         0         0
         0         0         0         0         0         0         0         0
         0         0         0         0         0         0         0         0
         0         0         0         0         0         0         0         0
         0         0         0         0         0         0         0         0
         0         0         0         0         0         0         0         0
         0         0         0         0         0         0         0         0
         0         0         0         0         0         0         0         0
         0         0         0         0         0         0         0         0
         0         0         0         0         0         0         0         0
         0         0         0         0         0         0         0         0
         0         0         0         0         0         0         0         0
         0         0         0         0         0         0         0         0
         0         0         0         0         0         0         0         0
         0         0         0         0         0         0         0         0
         0         0         0         0         0         0         0         0
         0         0         0         0         0         0         0         0
         0         0         0         0         0         0         0         0
         0         0         0         0         0         0         0         0
         0         0         0         0         0         0         0         0
         0         0         0         0         0         0         0         0
         0         0         0         0         0         0         0         0
         0         0         0         0         0         0         0         0
         0         0         0         0         0         0         0         0
         0         0         0         0         0         0         0         0
         0         0         0         0         0         0         0         0
         0         0         0         0         0         0         0         0
         0         0         0         0         0         0         0         0
         0         0         0         0         0         0         0         0
         0         0         0         0         0         0         0         0
         0         0         0         0         0         0         0         0
         0         0         0         0         0         0         0         0
         0         0         0         0         0         0         0         0
         0         0         0         0         0         0         0         0
         0         0         0         0         0         0         0         0
         0         0         0         0         0         0         0         0
         0         0         0         0         0         0         0         0
         0         0         0         0         0         0         0         0
         0         0         0         0         0         0         0         0
         0         0         0         0         0         0         0         0
         0         0         0         0         0         0         0         0
         0         0         0         0         0         0         0         0
         0         0         0         0         0         0         0         0
         0         0         0         0         0         0         0         0
         0         0         0         0         0         0         0         0
         0         0         0         0         0         0         0         0
         0         0         0         0         0         0         0         0
         0         0         0         0         0         0         0         0
         0         0         0         0         0         0         0         0
         0         0         0         0         0         0         0         0
         0         0         0         0         0         0         0         0
         0         0         0         0         0         0         0         0
         0         0         0         0         0         0         0         0
         0         0         0         0         0         0         0         0
         0         0         0         0         0         0         0         0
         0         0         0         0         0         0         0         0
         0         0         0         0         0         0         0         0
         0         0         0         0         0         0         0         0
         0         0         0         0         0         0         0         0
         0         0         0         0         0         0         0         0
         0         0         0         0         0         0         0         0
         0         0         0         0         0         0         0         0
         0         0         0         0         0         0         0         0
         0         0         0         0         0         0         0         0
         0         0         0         0         0         0         0         0
         0         0         0         0         0         0         0         0
         0         0         0         0         0         0         0         0
         0         0         0         0         0         0         0         0
         0         0         0         0         0         0         0         0
         0         0         0         0         0         0         0         0
         0         0         0         0         0         0         0         0
         0         0         0         0         0         0         0         0
         0         0         0         0         0         0         0         0
         0         0         0         0         0         0         0         0
         0         0         0         0         0         0         0         0
         0         0         0         0         0         0         0         0
         0         0         0         0         0         0         0         0
         0         0         0         0         0         0         0         0
         0         0         0         0         0         0         0         0
         0         0         0         0         0         0         0         0
         0         0         0         0         0         0         0         0
         0         0         0         0         0         0         0         0
         0         0         0         0         0         0         0         0
         0         0         0         0         0         0         0         0
         0         0         0         0         0         0         0         0
         0         0         0         0         0         0         0         0
         0         0         0         0         0         0         0         0
         0         0         0         0         0         0         0         0
         0         0         0         0         0         0         0         0
         0         0         0         0         0         0         0         0
         0         0         0         0         0         0         0         0
         0         0         0         0         0         0         0         0
         0         0         0         0         0         0         0         0
         0         0         0         0         0         0         0         0
         0         0         0         0         0         0         0         0
         0         0         0         0         0         0         0         0
         0         0         0         0         0         0         0         0
         0         0         0         0         0         0         0         0
         0         0         0         0         0         0         0         0
         0         0         0         0         0         0         0         0
         0         0         0         0         0         0         0         0
         0         0         0         0         0         0         0         0
         0         0         0         0         0         0         0         0
         0         0         0         0         0         0         0         0
         0         0         0         0         0         0         0         0
         0         0         0         0         0         0         0         0
         0         0         0         0         0         0         0         0
         0         0         0         0         0         0         0         0
         0         0         0         0         0         0         0         0
         0         0         0         0         0         0         0         0
         0         0         0         0         0         0         0         0
         0         0         0         0         0         0         0         0
         0         0         0         0         0         0         0         0
         0         0         0         0         0         0         0         0
         0         0         0         0         0         0         0         0
         0         0         0         0         0         0         0         0
         0         0         0         0         0         0         0         0
         0         0         0         0         0         0         0         0
         0         0         0         0         0         0         0         0
         0         0         0         0         0         0         0         0
         0         0         0         0         0         0         0         0
         0         0         0         0         0         0         0         0
         0         0         0         0         0         0         0         0
         0         0         0         0         0         0         0         0
         0         0         0         0         0         0         0         0
         0         0         0         0         0         0         0         0
         0         0         0         0         0         0         0         0
         0         0         0         0         0         0         0         0
         0         0         0         0         0         0         0         0
         0         0         0         0         0         0         0         0
         0         0         0         0         0         0         0         0
         0         0         0         0         0         0         0         0
         0         0         0         0         0         0         0         0
         0         0         0         0         0         0         0         0
         0         0         0         0         0         0         0         0
         0         0         0         0         0         0         0         0
         0         0         0         0         0         0         0         0
         0         0         0         0         0         0         0         0
         0         0         0         0         0         0         0         0
         0         0         0         0         0         0         0         0
         0         0         0         0         0         0         0         0
         0         0         0         0         0         0         0         0
         0         0         0         0         0         0         0         0
         0         0         0         0         0         0         0         0
         0         0         0         0         0         0         0         0
         0         0         0         0         0         0         0         0
         0         0         0         0         0         0         0         0
         0         0         0         0         0         0         0         0
         0         0         0         0         0         0         0         0
         0         0         0         0         0         0         0         0
         0         0         0         0         0         0         0         0
         0         0         0         0         0         0         0         0
         0         0         0         0         0         0         0         0
         0         0         0         0         0         0         0         0
         0         0         0         0         0         0         0         0
         0         0         0         0         0         0         0         0
         0         0         0         0         0         0         0         0
         0         0         0         0         0         0         0         0
         0         0         0         0         0         0         0         0
         0         0         0         0         0         0         0         0
         0         0         0         0         0         0         0         0
         0         0         0         0         0         0         0         0
         0         0         0         0         0         0         0         0
         0         0         0         0         0         0         0         0
         0         0         0         0         0         0         0         0
         0         0         0         0         0         0         0         0
         0         0         0         0         0         0         0         0
         0         0         0         0         0         0         0         0
         0         0         0         0         0         0         0         0
         0         0         0         0         0         0         0         0
         0         0         0         0         0         0         0         0
         0         0         0         0         0         0         0         0
         0         0         0         0         0         0         0         0
         0         0         0         0         0         0         0         0
         0         0         0         0         0         0         0         0
         0         0         0         0         0         0         0         0
         0         0         0         0         0         0         0         0
         0         0         0         0         0         0         0         0
         0         0         0         0         0         0         0         0
         0         0         0         0         0         0         0         0
         0         0         0         0         0         0         0         0
         0         0         0         0         0         0         0         0
         0         0         0         0         0         0         0         0
         0         0         0         0         0         0         0         0
         0         0         0         0         0         0         0         0
         0         0         0         0         0         0         0         0
         0         0         0         0         0         0         0         0
         0         0         0         0         0         0         0         0
         0         0         0         0         0         0         0         0
         0         0         0         0         0         0         0         0
         0         0         0         0         0         0         0         0
         0         0         0         0         0         0         0         0
         0         0         0         0         0         0         0         0
         0         0         0         0         0         0         0         0
         0         0         0         0         0         0         0         0
         0         0         0         0         0         0         0         0
         0         0         0         0         0         0         0         0
         0         0         0         0         0         0         0         0
         0         0         0         0         0         0         0         0
         0         0         0         0         0         0         0         0
         0         0         0         0         0         0         0         0
         0         0         0         0         0         0         0         0
         0         0         0         0         0         0         0         0
         0         0         0         0         0         0         0         0
         0         0         0         0         0         0         0         0
         0         0         0         0         0         0         0         0
         0         0         0         0         0         0         0         0
         0         0         0         0         0         0         0         0
         0         0         0         0         0         0         0         0
         0         0         0         0         0         0         0         0
         0         0         0         0         0         0         0         0
         0         0         0         0         0         0         0         0
         0         0         0         0         0         0         0         0
         0         0         0         0         0         0         0         0
         0         0         0         0         0         0         0         0
         0         0         0         0         0         0         0         0
         0         0         0         0         0         0         0         0
         0         0         0         0         0         0         0         0
         0         0         0         0         0         0         0         0
         0         0         0         0         0         0         0         0
         0         0         0         0         0         0         0         0
         0         0         0         0         0         0         0         0
         0         0         0         0         0         0         0         0
         0         0         0         0         0         0         0         0
         0         0         0         0         0         0         0         0
         0         0         0         0         0         0         0         0
         0         0         0         0         0         0         0         0
         0         0         0         0         0         0         0         0
         0         0         0         0         0         0         0         0
         0         0         0         0         0         0         0         0
         0         0         0         0         0         0         0         0
         0         0         0         0         0         0         0         0
         0         0         0         0         0         0         0         0
         0         0         0         0         0         0         0         0
         0         0         0         0         0         0         0         0
         0         0         0         0         0         0         0         0
         0         0         0         0         0         0         0         0
         0         0         0         0         0         0         0         0
         0         0         0         0         0         0         0         0
         0         0         0         0         0         0         0         0
         0         0         0         0         0         0         0         0
         0         0         0         0         0         0         0         0
         0         0         0         0         0         0         0         0
         0         0         0         0         0         0         0         0
         0         0         0         0         0         0         0         0
         0         0         0         0         0         0         0         0
         0         0         0         0         0         0         0         0
         0         0         0         0         0         0         0         0
         0         0         0         0         0         0         0         0
         0         0         0         0         0         0         0         0
         0         0         0         0         0         0         0         0
         0         0         0         0         0         0         0         0
         0         0         0         0         0         0         0         0
         0         0         0         0         0         0         0         0
         0         0         0         0         0         0         0         0
         0         0         0         0         0         0         0         0
         0         0         0         0         0         0         0         0
         0         0         0         0         0         0         0         0
         0         0         0         0         0         0         0         0
         0         0         0         0         0         0         0         0
         0         0         0         0         0         0         0         0
         0         0         0         0         0         0         0         0
         0         0         0         0         0         0         0         0
         0         0         0         0         0         0         0         0
         0         0         0         0         0         0         0         0
         0         0         0         0         0         0         0         0
         0         0         0         0         0         0         0         0
         0         0         0         0         0         0         0         0
         0         0         0         0         0         0         0         0
         0         0         0         0         0         0         0         0
         0         0         0         0         0         0         0         0
         0         0         0         0         0         0         0         0
         0         0         0         0         0         0         0         0
         0         0         0         0         0         0         0         0
         0         0         0         0         0         0         0         0
         0         0         0         0         0         0         0         0
         0         0         0         0         0         0         0         0
         0         0         0         0         0         0         0         0
         0         0         0         0         0         0         0         0
         0         0         0         0         0         0         0         0
         0         0         0         0         0         0         0         0
         0         0         0         0         0         0         0         0
         0         0         0         0         0         0         0         0
         0         0         0         0         0         0         0         0
         0         0         0         0         0         0         0         0
         0         0         0         0         0         0         0         0
         0         0         0         0         0         0         0         0
         0         0         0         0         0         0         0         0
         0         0         0         0         0         0         0         0
         0         0         0         0         0         0         0         0
         0         0         0         0         0         0         0         0
         0         0         0         0         0         0         0         0
         0         0         0         0         0         0         0         0
         0         0         0         0         0         0         0         0
         0         0         0         0         0         0         0         0
         0         0         0         0         0         0         0         0
         0         0         0         0         0         0         0         0
         0         0         0         0         0         0         0         0
         0         0         0         0         0         0         0         0
         0         0         0         0         0         0         0         0
         0         0         0         0         0         0         0         0
         0         0         0         0         0         0         0         0
         0         0         0         0         0         0         0         0
         0         0         0         0         0         0         0         0
         0         0         0         0         0         0         0         0
         0         0         0         0         0         0         0         0
         0         0         0         0         0         0         0         0
         0         0         0         0         0         0         0         0
         0         0         0         0         0         0         0         0
         0         0         0         0         0         0         0         0
         0         0         0         0         0         0         0         0
         0         0         0         0         0         0         0         0
         0         0         0         0         0         0         0         0
         0         0         0         0         0         0         0         0
         0         0         0         0         0         0         0         0
         0         0         0         0         0         0         0         0
         0         0         0         0         0         0         0         0
         0         0         0         0         0         0         0         0
         0         0         0         0         0         0         0         0
         0         0         0         0         0         0         0         0
         0         0         0         0         0         0         0         0
         0         0         0         0         0         0         0         0
         0         0         0         0         0         0         0         0
         0         0         0         0         0         0         0         0
         0         0         0         0         0         0         0         0
         0         0         0         0         0         0         0         0
         0         0         0         0         0         0         0         0
         0         0         0         0         0         0         0         0
         0         0         0         0         0         0         0         0
         0         0         0         0         0         0         0         0
         0         0         0         0         0         0         0         0
         0         0         0         0         0         0         0         0
         0         0         0         0         0         0         0         0
         0         0         0         0         0         0         0         0
         0         0         0         0         0         0         0         0
         0         0         0         0         0         0         0         0
         0         0         0         0         0         0         0         0
         0         0         0         0         0         0         0         0
         0         0         0         0         0         0         0         0
         0         0         0         0         0         0         0         0
         0         0         0         0         0         0         0         0
         0         0         0         0         0         0         0         0
         0         0         0         0         0         0         0         0
         0         0         0         0         0         0         0         0
         0         0         0         0         0         0         0         0
         0         0         0         0         0         0         0         0
         0         0         0         0         0         0         0         0
         0         0         0         0         0         0         0         0
         0         0         0         0         0         0         0         0
         0         0         0         0         0         0         0         0
         0         0         0         0         0         0         0         0
         0         0         0         0         0         0         0         0
         0         0         0         0         0         0         0         0
         0         0         0         0         0         0         0         0
         0         0         0         0         0         0         0         0
         0         0         0         0         0         0         0         0
         0         0         0         0         0         0         0         0
         0         0         0         0         0         0         0         0
         0         0         0         0         0         0         0         0
         0         0         0         0         0         0         0         0
         0         0         0         0         0         0         0         0
         0         0         0         0         0         0         0         0
         0         0         0         0         0         0         0         0
         0         0         0         0         0         0         0         0
         0         0         0         0         0         0         0         0
         0         0         0         0         0         0         0         0
         0         0         0         0         0         0         0         0
         0         0         0         0         0         0         0         0
         0         0         0         0         0         0         0         0
         0         0         0         0         0         0         0         0
         0         0         0         0         0         0         0         0
         0         0         0         0         0         0         0         0
         0         0         0         0         0         0         0         0
         0         0         0         0         0         0         0         0
         0         0         0         0         0         0         0         0
         0         0         0         0         0         0         0         0
         0         0         0         0         0         0         0         0
         0         0         0         0         0         0         0         0
         0         0         0         0         0         0         0         0
         0         0         0         0         0         0         0         0
         0         0         0         0         0         0         0         0
         0         0         0         0         0         0         0         0
         0         0         0         0         0         0         0         0
         0         0         0         0         0         0         0         0
         0         0         0         0         0         0         0         0
         0         0         0         0         0         0         0         0
         0         0         0         0         0         0         0         0
         0         0         0         0         0         0         0         0
         0         0         0         0         0         0         0         0
         0         0         0         0         0         0         0         0
         0         0         0         0         0         0         0         0
         0         0         0         0         0         0         0         0
         0         0         0         0         0         0         0         0
         0         0         0         0         0         0         0         0
         0         0         0         0         0         0         0         0
         0         0         0         0         0         0         0         0
         0         0         0         0         0         0         0         0
         0         0         0         0         0         0         0         0
         0         0         0         0         0         0         0         0
         0         0         0         0         0         0         0         0
         0         0         0         0         0         0         0         0
         0         0         0         0         0         0         0         0
         0         0         0         0         0         0         0         0
         0         0         0         0         0         0         0         0
         0         0         0         0         0         0         0         0
         0         0         0         0         0         0         0         0
         0         0         0         0         0         0         0         0
         0         0         0         0         0         0         0         0
         0         0         0         0         0         0         0         0
         0         0         0         0         0         0         0         0
         0         0         0         0         0         0         0         0
         0         0         0         0         0         0         0         0
         0         0         0         0         0         0         0         0
         0         0         0         0         0         0         0         0
         0         0         0         0         0         0         0         0
         0         0         0         0         0         0         0         0
         0         0         0         0         0         0         0         0
         0         0         0         0         0         0         0         0
         0         0         0         0         0         0         0         0
         0         0         0         0         0         0         0         0
         0         0         0         0         0         0         0         0
         0         0         0         0         0         0         0         0
         0         0         0         0         0         0         0         0
         0         0         0         0         0         0         0         0
         0         0         0         0         0         0         0         0
         0         0         0         0         0         0         0         0
         0         0         0         0         0         0         0         0
         0         0         0         0         0         0         0         0
         0         0         0         0         0         0         0         0
         0         0         0         0         0         0         0         0
         0         0         0         0         0         0         0         0
         0         0         0         0         0         0         0         0
         0         0         0         0         0         0         0         0
         0         0         0         0         0         0         0         0
         0         0         0         0         0         0         0         0
         0         0         0         0         0         0         0         0
         0         0         0         0         0         0         0         0
         0         0         0         0         0         0         0         0
         0         0         0         0         0         0         0         0
         0         0         0         0         0         0         0         0
         0         0         0         0         0         0         0         0
         0         0         0         0         0         0         0         0
         0         0         0         0         0         0         0         0
         0         0         0         0         0         0         0         0
         0         0         0         0         0         0         0         0
         0         0         0         0         0         0         0         0
         0         0         0         0         0         0         0         0
         0         0         0         0         0         0         0         0
         0         0         0         0         0         0         0         0
         0         0         0         0         0         0         0         0
         0         0         0         0         0         0         0         0
         0         0         0         0         0         0         0         0
         0         0         0         0         0         0         0         0
         0         0         0         0         0         0         0         0
         0         0         0         0         0         0         0         0
         0         0         0         0         0         0         0         0
         0         0         0         0         0         0         0         0
         0         0         0         0         0         0         0         0
         0         0         0         0         0         0         0         0
         0         0         0         0         0         0         0         0
         0         0         0         0         0         0         0         0
         0         0         0         0         0         0         0         0
         0         0         0         0         0         0         0         0
         0         0         0         0         0         0         0         0
         0         0         0         0         0         0         0         0
         0         0         0         0         0         0         0         0
         0         0         0         0         0         0         0         0
         0         0         0         0         0         0         0         0
         0         0         0         0         0         0         0         0
         0         0         0         0         0         0         0         0
         0         0         0         0         0         0         0         0
         0         0         0         0         0         0         0         0
         0         0         0         0         0         0         0         0
         0         0         0         0         0         0         0         0
         0         0         0         0         0         0         0         0
         0         0         0         0         0         0         0         0
         0         0         0         0         0         0         0         0
         0         0         0         0         0         0         0         0
         0         0         0         0         0         0         0         0
         0         0         0         0         0         0         0         0
         0         0         0         0         0         0         0         0
         0         0         0         0         0         0         0         0
         0         0         0         0         0         0         0         0
         0         0         0         0         0         0         0         0
         0         0         0         0         0         0         0         0
         0         0         0         0         0         0         0         0
         0         0         0         0         0         0         0         0
         0         0         0         0         0         0         0         0
         0         0         0         0         0         0         0         0
         0         0         0         0         0         0         0         0
         0         0         0         0         0         0         0         0
         0         0         0         0         0         0         0         0
         0         0         0         0         0         0         0         0
         0         0         0         0         0         0         0         0
         0         0         0         0         0         0         0         0
         0         0         0         0         0         0         0         0
         0         0         0         0         0         0         0         0
         0         0         0         0         0         0         0         0
         0         0         0         0         0         0         0         0
         0         0         0         0         0         0         0         0
         0         0         0         0         0         0         0         0
         0         0         0         0         0         0         0         0
         0         0         0         0         0         0         0         0
         0         0         0         0         0         0         0         0
         0         0         0         0         0         0         0         0
         0         0         0         0         0         0         0         0
         0         0         0         0         0         0         0         0
         0         0         0         0         0         0         0         0
         0         0         0         0         0         0         0         0
         0         0         0         0         0         0         0         0
         0         0         0         0         0         0         0         0
         0         0         0         0         0         0         0         0
         0         0         0         0         0         0         0         0
         0         0         0         0         0         0         0         0
         0         0         0         0         0         0         0         0
         0         0         0         0         0         0         0         0
         0         0         0         0         0         0         0         0
         0         0         0         0         0         0         0         0
         0         0         0         0         0         0         0         0
         0         0         0         0         0         0         0         0
         0         0         0         0         0         0         0         0
         0         0         0         0         0         0         0         0
         0         0         0         0         0         0         0         0
         0         0         0         0         0         0         0         0
         0         0         0         0         0         0         0         0
         0         0         0         0         0         0         0         0
         0         0         0         0         0         0         0         0
         0         0         0         0         0         0         0         0
         0         0         0         0         0         0         0         0
         0         0         0         0         0         0         0         0
         0         0         0         0         0         0         0         0
         0         0         0         0         0         0         0         0
         0         0         0         0         0         0         0         0
         0         0         0         0         0         0         0         0
         0         0         0         0         0         0         0         0
         0         0         0         0         0         0         0         0
         0         0         0         0         0         0         0         0
         0         0         0         0         0         0         0         0
         0         0         0         0         0         0         0         0
         0         0         0         0         0         0         0         0
         0         0         0         0         0         0         0         0
         0         0         0         0         0         0         0         0
         0         0         0         0         0         0         0         0
         0         0         0         0         0         0         0         0
         0         0         0         0         0         0         0         0
         0         0         0         0         0         0         0         0
         0         0         0         0         0         0         0         0
         0         0         0         0         0         0         0         0
         0         0         0         0         0         0         0         0
         0         0         0         0         0         0         0         0
         0         0         0         0         0         0         0         0
         0         0         0         0         0         0         0         0
         0         0         0         0         0         0         0         0
         0         0         0         0         0         0         0         0
         0         0         0         0         0         0         0         0
         0         0         0         0         0         0         0         0
         0         0         0         0         0         0         0         0
         0         0         0         0         0         0         0         0
         0         0         0         0         0         0         0         0
         0         0         0         0         0         0         0         0
         0         0         0         0         0         0         0         0
         0         0         0         0         0         0         0         0
         0         0         0         0         0         0         0         0
         0         0         0         0         0         0         0         0
         0         0         0         0         0         0         0         0
         0         0         0         0         0         0         0         0
         0         0         0         0         0         0         0         0
         0         0         0         0         0         0         0         0
         0         0         0         0         0         0         0         0
         0         0         0         0         0         0         0         0
         0         0         0         0         0         0         0         0
         0         0         0         0         0         0         0         0
         0         0         0         0         0         0         0         0
         0         0         0         0         0         0         0         0
         0         0         0         0         0         0         0         0
         0         0         0         0         0         0         0         0
         0         0         0         0         0         0         0         0
         0         0         0         0         0         0         0         0
         0         0         0         0         0         0         0         0
         0         0         0         0         0         0         0         0
         0         0         0         0         0         0         0         0
         0         0         0         0         0         0         0         0
         0         0         0         0         0         0         0         0
         0         0         0         0         0         0         0         0
         0         0         0         0         0         0         0         0
         0         0         0         0         0         0         0         0
         0         0         0         0         0         0         0         0
         0         0         0         0         0         0         0         0
         0         0         0         0         0         0         0         0
         0         0         0         0         0         0         0         0
         0         0         0         0         0         0         0         0
         0         0         0         0         0         0         0         0
         0         0         0         0         0         0         0         0
         0         0         0         0         0         0         0         0
         0         0         0         0         0         0         0         0
         0         0         0         0         0         0         0         0
         0         0         0         0         0         0         0         0
         0         0         0         0         0         0         0         0
         0         0         0         0         0         0         0         0
         0         0         0         0         0         0         0         0
         0         0         0         0         0         0         0         0
         0         0         0         0         0         0         0         0
         0         0         0         0         0         0         0         0
         0         0         0         0         0         0         0         0
         0         0         0         0         0         0         0         0
         0         0         0         0         0         0         0         0
         0         0         0         0         0         0         0         0
         0         0         0         0         0         0         0         0
         0         0         0         0         0         0         0         0
         0         0         0         0         0         0         0         0
         0         0         0         0         0         0         0         0
         0         0         0         0         0         0         0         0
         0         0         0         0         0         0         0         0
         0         0         0         0         0         0         0         0
         0         0         0         0         0         0         0         0
         0         0         0         0         0         0         0         0
         0         0         0         0         0         0         0         0
         0         0         0         0         0         0         0         0
         0         0         0         0         0         0         0         0
         0         0         0         0         0         0         0         0
         0         0         0         0         0         0         0         0
         0         0         0         0         0         0         0         0
         0         0         0         0         0         0         0         0
         0         0         0         0         0         0         0         0
         0         0         0         0         0         0         0         0
         0         0         0         0         0         0         0         0
         0         0         0         0         0         0         0         0
         0         0         0         0         0         0         0         0
         0         0         0         0         0         0         0         0
         0         0         0         0         0         0         0         0
         0         0         0         0         0         0         0         0
         0         0         0         0         0         0         0         0
         0         0         0         0         0         0         0         0
         0         0         0         0         0         0         0         0
         0         0         0         0         0         0         0         0
         0         0         0         0         0         0         0         0
         0         0         0         0         0         0         0         0
         0         0         0         0         0         0         0         0
         0         0         0         0         0         0         0         0
         0         0         0         0         0         0         0         0
         0         0         0         0         0         0         0         0
         0         0         0         0         0         0         0         0
         0         0         0         0         0         0         0         0
         0         0         0         0         0         0         0         0
         0         0         0         0         0         0         0         0
         0         0         0         0         0         0         0         0
         0         0         0         0         0         0         0         0
         0         0         0         0         0         0         0         0
         0         0         0         0         0         0         0         0
         0         0         0         0         0         0         0         0
         0         0         0         0         0         0         0         0
         0         0         0         0         0         0         0         0
         0         0         0         0         0         0         0         0
         0         0         0         0         0         0         0         0
         0         0         0         0         0         0         0         0
         0         0         0         0         0         0         0         0
         0         0         0         0         0         0         0         0
         0         0         0         0         0         0         0         0
         0         0         0         0         0         0         0         0
         0         0         0         0         0         0         0         0
         0         0         0         0         0         0         0         0
         0         0         0         0         0         0         0         0
         0         0         0         0         0         0         0         0
         0         0         0         0         0         0         0         0
         0         0         0         0         0         0         0         0
         0         0         0         0         0         0         0         0
         0         0         0         0         0         0         0         0
         0         0         0         0         0         0         0         0
         0         0         0         0         0         0         0         0
         0         0         0         0         0         0         0         0
         0         0         0         0         0         0         0         0
         0         0         0         0         0         0         0         0
         0         0         0         0         0         0         0         0
         0         0         0         0         0         0         0         0
         0         0         0         0         0         0         0         0
         0         0         0         0         0         0         0         0
         0         0         0         0         0         0         0         0
         0         0         0         0         0         0         0         0
         0         0         0         0         0         0         0         0
         0         0         0         0         0         0         0         0
         0         0         0         0         0         0         0         0
         0         0         0         0         0         0         0         0
         0         0         0         0         0         0         0         0
         0         0         0         0         0         0         0         0
         0         0         0         0         0         0         0         0
         0         0         0         0         0         0         0         0
         0         0         0         0         0         0         0         0
         0         0         0         0         0         0         0         0
         0         0         0         0         0         0         0         0
         0         0         0         0         0         0         0         0
         0         0         0         0         0         0         0         0
         0         0         0         0         0         0         0         0
         0         0         0         0         0         0         0         0
         0         0         0         0         0         0         0         0
         0         0         0         0         0         0         0         0
         0         0         0         0         0         0         0         0
         0         0         0         0         0         0         0         0
         0         0         0         0         0         0         0         0
         0         0         0         0         0         0         0         0
         0         0         0         0         0         0         0         0
         0         0         0         0         0         0         0         0
         0         0         0         0         0         0         0         0
         0         0         0         0         0         0         0         0
         0         0         0         0         0         0         0         0
         0         0         0         0         0         0         0         0
         0         0         0         0         0         0         0         0
         0         0         0         0         0         0         0         0
         0         0         0         0         0         0         0         0
         0         0         0         0         0         0         0         0
         0         0         0         0         0         0         0         0
         0         0         0         0         0         0         0         0
         0         0         0         0         0         0         0         0
         0         0         0         0         0         0         0         0
         0         0         0         0         0         0         0         0
         0         0         0         0         0         0         0         0
         0         0         0         0         0         0         0         0
         0         0         0         0         0         0         0         0
         0         0         0         0         0         0         0         0
         0         0         0         0         0         0         0         0
         0         0         0         0         0         0         0         0
         0         0         0         0         0         0         0         0
         0         0         0         0         0         0         0         0
         0         0         0         0         0         0         0         0
         0         0         0         0         0         0         0         0
         0         0         0         0         0         0         0         0
         0         0         0         0         0         0         0         0
         0         0         0         0         0         0         0         0
         0         0         0         0         0         0         0         0
         0         0         0         0         0         0         0         0
         0         0         0         0         0         0         0         0
         0         0         0         0         0         0         0         0
         0         0         0         0         0         0         0         0
         0         0         0         0         0         0         0         0
         0         0         0         0         0         0         0         0
         0         0         0         0         0         0         0         0
         0         0         0         0         0         0         0         0
         0         0         0         0         0         0         0         0
         0         0         0         0         0         0         0         0
         0         0         0         0         0         0         0         0
         0         0         0         0         0         0         0         0
         0         0         0         0         0         0         0         0
         0         0         0         0         0         0         0         0
         0         0         0         0         0         0         0         0
         0         0         0         0         0         0         0         0
         0         0         0         0         0         0         0         0
         0         0         0         0         0         0         0         0
         0         0         0         0         0         0         0         0
         0         0         0         0         0         0         0         0
         0         0         0         0         0         0         0         0
         0         0         0         0         0         0         0         0
         0         0         0         0         0         0         0         0
         0         0         0         0         0         0         0         0
         0         0         0         0         0         0         0         0
         0         0         0         0         0         0         0         0
         0         0         0         0         0         0         0         0
         0         0         0         0         0         0         0         0
         0         0         0         0         0         0         0         0
         0         0         0         0         0         0         0         0
         0         0         0         0         0         0         0         0
         0         0         0         0         0         0         0         0
         0         0         0         0         0         0         0         0
         0         0         0         0         0         0         0         0
         0         0         0         0         0         0         0         0
         0         0         0         0         0         0         0         0
         0         0         0         0         0         0         0         0
         0         0         0         0         0         0         0         0
         0         0         0         0         0         0         0         0
         0         0         0         0         0         0         0         0
         0         0         0         0         0         0         0         0
         0         0         0         0         0         0         0         0
         0         0         0         0         0         0         0         0
         0         0         0         0         0         0         0         0
         0         0         0         0         0         0         0         0
         0         0         0         0         0         0         0         0
         0         0         0         0         0         0         0         0
         0         0         0         0         0         0         0         0
         0         0         0         0         0         0         0         0
         0         0         0         0         0         0         0         0
         0         0         0         0         0         0         0         0
         0         0         0         0         0         0         0         0
         0         0         0         0         0         0         0         0
         0         0         0         0         0         0         0         0
         0         0         0         0         0         0         0         0
         0         0         0         0         0         0         0         0
         0         0         0         0         0         0         0         0
         0         0         0         0         0         0         0         0
         0         0         0         0         0         0         0         0
         0         0         0         0         0         0         0         0
         0         0         0         0         0         0         0         0
         0         0         0         0         0         0         0         0
         0         0         0         0         0         0         0         0
         0         0         0         0         0         0         0         0
         0         0         0         0         0         0         0         0
         0         0         0         0         0         0         0         0
         0         0         0         0         0         0         0         0
         0         0         0         0         0         0         0         0
         0         0         0         0         0         0         0         0
         0         0         0         0         0         0         0         0
         0         0         0         0         0         0         0         0
         0         0         0         0         0         0         0         0
         0         0         0         0         0         0         0         0
         0         0         0         0         0         0         0         0
         0         0         0         0         0         0         0         0
         0         0         0         0         0         0         0         0
         0         0         0         0         0         0         0         0
         0         0         0         0         0         0         0         0
         0         0         0         0         0         0         0         0
         0         0         0         0         0         0         0         0
         0         0         0         0         0         0         0         0
         0         0         0         0         0         0         0         0
         0         0         0         0         0         0         0         0
         0         0         0         0         0         0         0         0
         0         0         0         0         0         0         0         0
         0         0         0         0         0         0         0         0
         0         0         0         0         0         0         0         0
         0         0         0         0         0         0         0         0
         0         0         0         0         0         0         0         0
         0         0         0         0         0         0         0         0
         0         0         0         0         0         0         0         0
         0         0         0         0         0         0         0         0
         0         0         0         0         0         0         0         0
         0         0         0         0         0         0         0         0
         0         0         0         0         0         0         0         0
         0         0         0         0         0         0         0         0
         0         0         0         0         0         0         0         0
         0         0         0         0         0         0         0         0
         0         0         0         0         0         0         0         0
         0         0         0         0         0         0         0         0
         0         0         0         0         0         0         0         0
         0         0         0         0         0         0         0         0
         0         0         0         0         0         0         0         0
         0         0         0         0         0         0         0         0
         0         0         0         0         0         0         0         0
         0         0         0         0         0         0         0         0
         0         0         0         0         0         0         0         0
         0         0         0         0         0         0         0         0
         0         0         0         0         0         0         0         0
         0         0         0         0         0         0         0         0
         0         0         0         0         0         0         0         0
         0         0         0         0         0         0         0         0
         0         0         0         0         0         0         0         0
         0         0         0         0         0         0         0         0
         0         0         0         0         0         0         0         0
         0         0         0         0         0         0         0         0
         0         0         0         0         0         0         0         0
         0         0         0         0         0         0         0         0
         0         0         0         0         0         0         0         0
         0         0         0         0         0         0         0         0
         0         0         0         0         0         0         0         0
         0         0         0         0         0         0         0         0
         0         0         0         0         0         0         0         0
         0         0         0         0         0         0         0         0
         0         0         0         0         0         0         0         0
         0         0         0         0         0         0         0         0
         0         0         0         0         0         0         0         0
         0         0         0         0         0         0         0         0
         0         0         0         0         0         0         0         0
         0         0         0         0         0         0         0         0
         0         0         0         0         0         0         0         0
         0         0         0         0         0         0         0         0
         0         0         0         0         0         0         0         0
         0         0         0         0         0         0         0         0
         0         0         0         0         0         0         0         0
         0         0         0         0         0         0         0         0
         0         0         0         0         0         0         0         0
         0         0         0         0         0         0         0         0
         0         0         0         0         0         0         0         0
         0         0         0         0         0         0         0         0
         0         0         0         0         0         0         0         0
         0         0         0         0         0         0         0         0
         0         0         0         0         0         0         0         0
         0         0         0         0         0         0         0         0
         0         0         0         0         0         0         0         0
         0         0         0         0         0         0         0         0
         0         0         0         0         0         0         0         0
         0         0         0         0         0         0         0         0
         0         0         0         0         0         0         0         0
         0         0         0         0         0         0         0         0
         0         0         0         0         0         0         0         0
         0         0         0         0         0         0         0         0
         0         0         0         0         0         0         0         0
         0         0         0         0         0         0         0         0
         0         0         0         0         0         0         0         0
         0         0         0         0         0         0         0         0
         0         0         0         0         0         0         0         0
         0         0         0         0         0         0         0         0
         0         0         0         0         0         0         0         0
         0         0         0         0         0         0         0         0
         0         0         0         0         0         0         0         0
         0         0         0         0         0         0         0         0
         0         0         0         0         0         0         0         0
         0         0         0         0         0         0         0         0
         0         0         0         0         0         0         0         0
         0         0         0         0         0         0         0         0
         0         0         0         0         0         0         0         0
         0         0         0         0         0         0         0         0
         0         0         0         0         0         0         0         0
         0         0         0         0         0         0         0         0
         0         0         0         0         0         0         0         0
         0         0         0         0         0         0         0         0
         0         0         0         0         0         0         0         0
         0         0         0         0         0         0         0         0
         0         0         0         0         0         0         0         0
         0         0         0         0         0         0         0         0
         0         0         0         0         0         0         0         0
         0         0         0         0         0         0         0         0
         0         0         0         0         0         0         0         0
         0         0         0         0         0         0         0         0
         0         0         0         0         0         0         0         0
         0         0         0         0         0         0         0         0
         0         0         0         0         0         0         0         0
         0         0         0         0         0         0         0         0
         0         0         0         0         0         0         0         0
         0         0         0         0         0         0         0         0
         0         0         0         0         0         0         0         0
         0         0         0         0         0         0         0         0
         0         0         0         0         0         0         0         0
         0         0         0         0         0         0         0         0
         0         0         0         0         0         0         0         0
         0         0         0         0         0         0         0         0
         0         0         0         0         0         0         0         0
         0         0         0         0         0         0         0         0
         0         0         0         0         0         0         0         0
         0         0         0         0         0         0         0         0
         0         0         0         0         0         0         0         0
         0         0         0         0         0         0         0         0
         0         0         0         0         0         0         0         0
         0         0         0         0         0         0         0         0
         0         0         0         0         0         0         0         0
         0         0         0         0         0         0         0         0
         0         0         0         0         0         0         0         0
         0         0         0         0         0         0         0         0
         0         0         0         0         0         0         0         0
         0         0         0         0         0         0         0         0
         0         0         0         0         0         0         0         0
         0         0         0         0         0         0         0         0
         0         0         0         0         0         0         0         0
         0         0         0         0         0         0         0         0
         0         0         0         0         0         0         0         0
         0         0         0         0         0         0         0         0
         0         0         0         0         0         0         0         0
         0         0         0         0         0         0         0         0
         0         0         0         0         0         0         0         0
         0         0         0         0         0         0         0         0
         0         0         0         0         0         0         0         0
         0         0         0         0         0         0         0         0
         0         0         0         0         0         0         0         0
         0         0         0         0         0         0         0         0
         0         0         0         0         0         0         0         0
         0         0         0         0         0         0         0         0
         0         0         0         0         0         0         0         0
         0         0         0         0         0         0         0         0
         0         0         0         0         0         0         0         0
         0         0         0         0         0         0         0         0
         0         0         0         0         0         0         0         0
         0         0         0         0         0         0         0         0
         0         0         0         0         0         0         0         0
         0         0         0         0         0         0         0         0
         0         0         0         0         0         0         0         0
         0         0         0         0         0         0         0         0
         0         0         0         0         0         0         0         0
         0         0         0         0         0         0         0         0
         0         0         0         0         0         0         0         0
         0         0         0         0         0         0         0         0
         0         0         0         0         0         0         0         0
         0         0         0         0         0         0         0         0
         0         0         0         0         0         0         0         0
         0         0         0         0         0         0         0         0
         0         0         0         0         0         0         0         0
         0         0         0         0         0         0         0         0
         0         0         0         0         0         0         0         0
         0         0         0         0         0         0         0         0
         0         0         0         0         0         0         0         0
         0         0         0         0         0         0         0         0
         0         0         0         0         0         0         0         0
         0         0         0         0         0         0         0         0
         0         0         0         0         0         0         0         0
         0         0         0         0         0         0         0         0
         0         0         0         0         0         0         0         0
         0         0         0         0         0         0         0         0
         0         0         0         0         0         0         0         0
         0         0         0         0         0         0         0         0
         0         0         0         0         0         0         0         0
         0         0         0         0         0         0         0         0
         0         0         0         0         0         0         0         0
         0         0         0         0         0         0         0         0
         0         0         0         0         0         0         0         0
         0         0         0         0         0         0         0         0
         0         0         0         0         0         0         0         0
         0         0         0         0         0         0         0         0
         0         0         0         0         0         0         0         0
         0         0         0         0         0         0         0         0
         0         0         0         0         0         0         0         0
         0         0         0         0         0         0         0         0
         0         0         0         0         0         0         0         0
         0         0         0         0         0         0         0         0
         0         0         0         0         0         0         0         0
         0         0         0         0         0         0         0         0
         0         0         0         0         0         0         0         0
         0         0         0         0         0         0         0         0
         0         0         0         0         0         0         0         0
         0         0         0         0         0         0         0         0
         0         0         0         0         0         0         0         0
         0         0         0         0         0         0         0         0
         0         0         0         0         0         0         0         0
         0         0         0         0         0         0         0         0
         0         0         0         0         0         0         0         0
         0         0         0         0         0         0         0         0
         0         0         0         0         0         0         0         0
         0         0         0         0         0         0         0         0
         0         0         0         0         0         0         0         0
         0         0         0         0         0         0         0         0
         0         0         0         0         0         0         0         0
         0         0         0         0         0         0         0         0
         0         0         0         0         0         0         0         0
         0         0         0         0         0         0         0         0
         0         0         0         0         0         0         0         0
         0         0         0         0         0         0         0         0
         0         0         0         0         0         0         0         0
         0         0         0         0         0         0         0         0
         0         0         0         0         0         0         0         0
         0         0         0         0         0         0         0         0
         0         0         0         0         0         0         0         0
         0         0         0         0         0         0         0         0
         0         0         0         0         0         0         0         0
         0         0         0         0         0         0         0         0
         0         0         0         0         0         0         0         0
         0         0         0         0         0         0         0         0
         0         0         0         0         0         0         0         0
         0         0         0         0         0         0         0         0
         0         0         0         0         0         0         0         0
         0         0         0         0         0         0         0         0
         0         0         0         0         0         0         0         0
         0         0         0         0         0         0         0         0
         0         0         0         0         0         0         0         0
         0         0         0         0         0         0         0         0
         0         0         0         0         0         0         0         0
         0         0         0         0         0         0         0         0
         0         0         0         0         0         0         0         0
         0         0         0         0         0         0         0         0
         0         0         0         0         0         0         0         0
         0         0         0         0         0         0         0         0
         0         0         0         0         0         0         0         0
         0         0         0         0         0         0         0         0
         0         0         0         0         0         0         0         0
         0         0         0         0         0         0         0         0
         0         0         0         0         0         0         0         0
         0         0         0         0         0         0         0         0
         0         0         0         0         0         0         0         0
         0         0         0         0         0         0         0         0
         0         0         0         0         0         0         0         0
         0         0         0         0         0         0         0         0
         0         0         0         0         0         0         0         0
         0         0         0         0         0         0         0         0
         0         0         0         0         0         0         0         0
         0         0         0         0         0         0         0         0
         0         0         0         0         0         0         0         0
         0         0         0         0         0         0         0         0
         0         0         0         0         0         0         0         0
         0         0         0         0         0         0         0         0
         0         0         0         0         0         0         0         0
         0         0         0         0         0         0         0         0
         0         0         0         0         0         0         0         0
         0         0         0         0         0         0         0         0
         0         0         0         0         0         0         0         0
         0         0         0         0         0         0         0         0
         0         0         0         0         0         0         0         0
         0         0         0         0         0         0         0         0
         0         0         0         0         0         0         0         0
         0         0         0         0         0         0         0         0
         0         0         0         0         0         0         0         0
         0         0         0         0         0         0         0         0
         0         0         0         0         0         0         0         0
         0         0         0         0         0         0         0         0
         0         0         0         0         0         0         0         0
         0         0         0         0         0         0         0         0
         0         0         0         0         0         0         0         0
         0         0         0         0         0         0         0         0
         0         0         0         0         0         0         0         0
         0         0         0         0         0         0         0         0
         0         0         0         0         0         0         0         0
         0         0         0         0         0         0         0         0
         0         0         0         0         0         0         0         0
         0         0         0         0         0         0         0         0
         0         0         0         0         0         0         0         0
         0         0         0         0         0         0         0         0
         0         0         0         0         0         0         0         0
         0         0         0         0         0         0         0         0
         0         0         0         0         0         0         0         0
         0         0         0         0         0         0         0         0
         0         0         0         0         0         0         0         0
         0         0         0         0         0         0         0         0
         0         0         0         0         0         0         0         0
         0         0         0         0         0         0         0         0
         0         0         0         0         0         0         0         0
         0         0         0         0         0         0         0         0
         0         0         0         0         0         0         0         0
         0         0         0         0         0         0         0         0
         0         0         0         0         0         0         0         0
         0         0         0         0         0         0         0         0
         0         0         0         0         0         0         0         0
         0         0         0         0         0         0         0         0
         0         0         0         0         0         0         0         0
         0         0         0         0         0         0         0         0
         0         0         0         0         0         0         0         0
         0         0         0         0         0         0         0         0
         0         0         0         0         0         0         0         0
         0         0         0         0         0         0         0         0
         0         0         0         0         0         0         0         0
         0         0         0         0         0         0         0         0
         0         0         0         0         0         0         0         0
         0         0         0         0         0         0         0         0
         0         0         0         0         0         0         0         0
         0         0         0         0         0         0         0         0
         0         0         0         0         0         0         0         0
         0         0         0         0         0         0         0         0
         0         0         0         0         0         0         0         0
         0         0         0         0         0         0         0         0
         0         0         0         0         0         0         0         0
         0         0         0         0         0         0         0         0
         0         0         0         0         0         0         0         0
         0         0         0         0         0         0         0         0
         0         0         0         0         0         0         0         0
         0         0         0         0         0         0         0         0
         0         0         0         0         0         0         0         0
         0         0         0         0         0         0         0         0
         0         0         0         0         0         0         0         0
         0         0         0         0         0         0         0         0
         0         0         0         0         0         0         0         0
         0         0         0         0         0         0         0         0
         0         0         0         0         0         0         0         0
         0         0         0         0         0         0         0         0
         0         0         0         0         0         0         0         0
         0         0         0         0         0         0         0         0
         0         0         0         0         0         0         0         0
         0         0         0         0         0         0         0         0
         0         0         0         0         0         0         0         0
         0         0         0         0         0         0         0         0
         0         0         0         0         0         0         0         0
         0         0         0         0         0         0         0         0
         0         0         0         0         0         0         0         0
         0         0         0         0         0         0         0         0
         0         0         0         0         0         0         0         0
         0         0         0         0         0         0         0         0
         0         0         0         0         0         0         0         0
         0         0         0         0         0         0         0         0
         0         0         0         0         0         0         0         0
         0         0         0         0         0         0         0         0
         0         0         0         0         0         0         0         0
         0         0         0         0         0         0         0         0
         0         0         0         0         0         0         0         0
         0         0         0         0         0         0         0         0
         0         0         0         0         0         0         0         0
         0         0         0         0         0         0         0         0
         0         0         0         0         0         0         0         0
         0         0         0         0         0         0         0         0
         0         0         0         0         0         0         0         0
         0         0         0         0         0         0         0         0
         0         0         0         0         0         0         0         0
         0         0         0         0         0         0         0         0
         0         0         0         0         0         0         0         0
         0         0         0         0         0         0         0         0
         0         0         0         0         0         0         0         0
         0         0         0         0         0         0         0         0
         0         0         0         0         0         0         0         0
         0         0         0         0         0         0         0         0
         0         0         0         0         0         0         0         0
         0         0         0         0         0         0         0         0
         0         0         0         0         0         0         0         0
         0         0         0         0         0         0         0         0
         0         0         0         0         0         0         0         0
         0         0         0         0         0         0         0         0
         0         0         0         0         0         0         0         0
         0         0         0         0         0         0         0         0
         0         0         0         0         0         0         0         0
         0         0         0         0         0         0         0         0
         0         0         0         0         0         0         0         0
         0         0         0         0         0         0         0         0
         0         0         0         0         0         0         0         0
         0         0         0         0         0         0         0         0
         0         0         0         0         0         0         0         0
         0         0         0         0         0         0         0         0
         0         0         0         0         0         0         0         0
         0         0         0         0         0         0         0         0
         0         0         0         0         0         0         0         0
         0         0         0         0         0         0         0         0
         0         0         0         0         0         0         0         0
         0         0         0         0         0         0         0         0
         0         0         0         0         0         0         0         0
         0         0         0         0         0         0         0         0
         0         0         0         0         0         0         0         0
         0         0         0         0         0         0         0         0
         0         0         0         0         0         0         0         0
         0         0         0         0         0         0         0         0
         0         0         0         0         0         0         0         0
         0         0         0         0         0         0         0         0
         0         0         0         0         0         0         0         0
         0         0         0         0         0         0         0         0
         0         0         0         0         0         0         0         0
         0         0         0         0         0         0         0         0
         0         0         0         0         0         0         0         0
         0         0         0         0         0         0         0         0
         0         0         0         0         0         0         0         0
         0         0         0         0         0         0         0         0
         0         0         0         0         0         0         0         0
         0         0         0         0         0         0         0         0
         0         0         0         0         0         0         0         0
         0         0         0         0         0         0         0         0
         0         0         0         0         0         0         0         0
         0         0         0         0         0         0         0         0
         0         0         0         0         0         0         0         0
         0         0         0         0         0         0         0         0
         0         0         0         0         0         0         0         0
         0         0         0         0         0         0         0         0
         0         0         0         0         0         0         0         0
         0         0         0         0         0         0         0         0
         0         0         0         0         0         0         0         0
         0         0         0         0         0         0         0         0
         0         0         0         0         0         0         0         0
         0         0         0         0         0         0         0         0
         0         0         0         0         0         0         0         0
         0         0         0         0         0         0         0         0
         0         0         0         0         0         0         0         0
         0         0         0         0         0         0         0         0
         0         0         0         0         0         0         0         0
         0         0         0         0         0         0         0         0
         0         0         0         0         0         0         0         0
         0         0         0         0         0         0         0         0
         0         0         0         0         0         0         0         0
         0         0         0         0         0         0         0         0
         0         0         0         0         0         0         0         0
         0         0         0         0         0         0         0         0
         0         0         0         0         0         0         0         0
         0         0         0         0         0         0         0         0
         0         0         0         0         0         0         0         0
         0         0         0         0         0         0         0         0
         0         0         0         0         0         0         0         0
         0         0         0         0         0         0         0         0
         0         0         0         0         0         0         0         0
         0         0         0         0         0         0         0         0
         0         0         0         0         0         0         0         0
         0         0         0         0         0         0         0         0
         0         0         0         0         0         0         0         0
         0         0         0         0         0         0         0         0
         0         0         0         0         0         0         0         0
         0         0         0         0         0         0         0         0
         0         0         0         0         0         0         0         0
         0         0         0         0         0         0         0         0
         0         0         0         0         0         0         0         0
         0         0         0         0         0         0         0         0
         0         0         0         0         0         0         0         0
         0         0         0         0         0         0         0         0
         0         0         0         0         0         0         0         0
         0         0         0         0         0         0         0         0
         0         0         0         0         0         0         0         0
         0         0         0         0         0         0         0         0
         0         0         0         0         0         0         0         0
         0         0         0         0         0         0         0         0
         0         0         0         0         0         0         0         0
         0         0         0         0         0         0         0         0
         0         0         0         0         0         0         0         0
         0         0         0         0         0         0         0         0
         0         0         0         0         0         0         0         0
         0         0         0         0         0         0         0         0
         0         0         0         0         0         0         0         0
         0         0         0         0         0         0         0         0
         0         0         0         0         0         0         0         0
         0         0         0         0         0         0         0         0
         0         0         0         0         0         0         0         0
         0         0         0         0         0         0         0         0
         0         0         0         0         0         0         0         0
         0         0         0         0         0         0         0         0
         0         0         0         0         0         0         0         0
         0         0         0         0         0         0         0         0
         0         0         0         0         0         0         0         0
         0         0         0         0         0         0         0         0
         0         0         0         0         0         0         0         0
         0         0         0         0         0         0         0         0
         0         0         0         0         0         0         0         0
         0         0         0         0         0         0         0         0
         0         0         0         0         0         0         0         0
         0         0         0         0         0         0         0         0
         0         0         0         0         0         0         0         0
         0         0         0         0         0         0         0         0
         0         0         0         0         0         0         0         0
         0         0         0         0         0         0         0         0
         0         0         0         0         0         0         0         0
         0         0         0         0         0         0         0         0
         0         0         0         0         0         0         0         0
         0         0         0         0         0         0         0         0
         0         0         0         0         0         0         0         0
         0         0         0         0         0         0         0         0
         0         0         0         0         0         0         0         0
         0         0         0         0         0         0         0         0
         0         0         0         0         0         0         0         0
         0         0         0         0         0         0         0         0
         0         0         0         0         0         0         0         0
         0         0         0         0         0         0         0         0
         0         0         0         0         0         0         0         0
         0         0         0         0         0         0         0         0
         0         0         0         0         0         0         0         0
         0         0         0         0         0         0         0         0
         0         0         0         0         0         0         0         0
         0         0         0         0         0         0         0         0
         0         0         0         0         0         0         0         0
         0         0         0         0         0         0         0         0
         0         0         0         0         0         0         0         0
         0         0         0         0         0         0         0         0
         0         0         0         0         0         0         0         0
         0         0         0         0         0         0         0         0
         0         0         0         0         0         0         0         0
         0         0         0         0         0         0         0         0
         0         0         0         0         0         0         0         0
         0         0         0         0         0         0         0         0
         0         0         0         0         0         0         0         0
         0         0         0         0         0         0         0         0
         0         0         0         0         0         0         0         0
         0         0         0         0         0         0         0         0
         0         0         0         0         0         0         0         0
         0         0         0         0         0         0         0         0
         0         0         0         0         0         0         0         0
         0         0         0         0         0         0         0         0
         0         0         0         0         0         0         0         0
         0         0         0         0         0         0         0         0
         0         0         0         0         0         0         0         0
         0         0         0         0         0         0         0         0
         0         0         0         0         0         0         0         0
         0         0         0         0         0         0         0         0
         0         0         0         0         0         0         0         0
         0         0         0         0         0         0         0         0
         0         0         0         0         0         0         0         0
         0         0         0         0         0         0         0         0
         0         0         0         0         0         0         0         0
         0         0         0         0         0         0         0         0
         0         0         0         0         0         0

      1009         0 !NGRP NST2
         0         2         0        20         2         0        40         2         0
        60         2         0        80         2         0       100         2         0
       120         2         0       140         2         0       160         2         0
       180         2         0       200         2         0       220         2         0
       240         2         0       260         2         0       280         2         0
       300         2         0       320         2         0       340         2         0
       360         2         0       380         2         0       400         2         0
       420         2         0       440         2         0       460         2         0
       480         2         0       500         2         0       520         2         0
       540         2         0       560         2         0       580         2         0
       600         2         0       620         2         0       640         2         0
       660         2         0       680         2         0       700         2         0
       720         2         0       740         2         0       760         2         0
       780         2         0       800         2         0       820         2         0
       840         2         0       860         2         0       880         2         0
       900         2         0       920         2         0       940         2         0
       960         2         0       980         2         0      1000         2         0
      1020         2         0      1040         2         0      1060         2         0
      1080         2         0      1100         2         0      1120         2         0
      1140         2         0      1160         2         0      1180         2         0
      1200         2         0      1220         2         0      1240         2         0
      1260         2         0      1280         2         0      1300         2         0
      1320         2         0      1340         2         0      1360         2         0
      1380         2         0      1400         2         0      1420         2         0
      1440         2         0      1460         2         0      1480         2         0
      1500         2         0      1520         2         0      1540         2         0
      1560         2         0      1580         2         0      1600         2         0
      1620         2         0      1640         2         0      1660         2         0
      1680         2         0      1700         2         0      1720         2         0
      1740         2         0      1760         2         0      1780         2         0
      1800         2         0      1820         2         0      1840         2         0
      1860         2         0      1880         2         0      1900         2         0
      1920         2         0      1940         2         0      1960         2         0
      1980         2         0      2000         2         0      2020         2         0
      2040         2         0      2060         2         0      2080         2         0
      2100         2         0      2120         2         0      2140         2         0
      2160         2         0      2180         2         0      2200         2         0
      2220         2         0      2240         2         0      2260         2         0
      2280         2         0      2300         2         0      2320         2         0
      2340         2         0      2360         2         0      2380         2         0
      2400         2         0      2420         2         0      2440         2         0
      2460         2         0      2480         2         0      2500         2         0
      2520         2         0      2540         2         0      2560         2         0
      2580         2         0      2600         2         0      2620         2         0
      2640         2         0      2660         2         0      2680         2         0
      2700         2         0      2720         2         0      2740         2         0
      2760         2         0      2780         2         0      2800         2         0
      2820         2         0      2840         2         0      2860         2         0
      2880         2         0      2900         2         0      2920         2         0
      2940         2         0      2960         2         0      2980         2         0
      3000         2         0      3020         2         0      3040         2         0
      3060         2         0      3080         2         0      3100         2         0
      3120         2         0      3140         2         0      3156         2         0
      3172         2         0      3188         2         0      3204         2         0
      3220         2         0      3236         2         0      3252         2         0
      3268         2         0      3284         2         0      3300         2         0
      3316         2         0      3332         2         0      3348         2         0
      3364         2         0      3380         2         0      3396         2         0
      3412         2         0      3428         2         0      3444         2         0
      3460         2         0      3476         2         0      3492         2         0
      3508         2         0      3524         2         0      3540         2         0
      3556         2         0      3572         2         0      3588         2         0
      3604         2         0      3620         2         0      3636         2         0
      3652         2         0      3668         2         0      3684         2         0
      3700         2         0      3716         2         0      3732         2         0
      3748         2         0      3764         2         0      3780         2         0
      3796         2         0      3812         2         0      3828         2         0
      3844         2         0      3860         2         0      3876         2         0
      3892         2         0      3908         2         0      3924         2         0
      3940         2         0      3956         2         0      3972         2         0
      3988         2         0      4004         2         0      4020         2         0
      4036         2         0      4052         2         0      4068         2         0
      4084         2         0      4100         2         0      4116         2         0
      4132         2         0      4148         2         0      4164         2         0
      4180         2         0      4196         2         0      4212         2         0
      4228         2         0      4244         2         0      4260         2         0
      4276         2         0      4292         2         0      4308         2         0
      4324         2         0      4340         2         0      4356         2         0
      4372         2         0      4388         2         0      4404         2         0
      4420         2         0      4436         2         0      4452         2         0
      4468         2         0      4484         2         0      4500         2         0
      4516         2         0      4532         2         0      4548         2         0
      4564         2         0      4580         2         0      4596         2         0
      4612         2         0      4628         2         0      4644         2         0
      4660         2         0      4676         2         0      4692         2         0
      4708         2         0      4724         2         0      4740         2         0
      4756         2         0      4772         2         0      4788         2         0
      4804         2         0      4820         2         0      4836         2         0
      4852         2         0      4868         2         0      4884         2         0
      4900         2         0      4916         2         0      4932         2         0
      4948         2         0      4964         2         0      4980         2         0
      4996         2         0      5012         2         0      5028         2         0
      5044         2         0      5060         2         0      5076         2         0
      5092         2         0      5108         2         0      5124         2         0
      5140         2         0      5156         2         0      5172         2         0
      5188         2         0      5204         2         0      5220         2         0
      5236         2         0      5252         2         0      5268         2         0
      5284         2         0      5300         2         0      5316         2         0
      5332         2         0      5348         2         0      5364         2         0
      5380         2         0      5396         2         0      5412         2         0
      5428         2         0      5444         2         0      5460         2         0
      5476         2         0      5492         2         0      5508         2         0
      5524         2         0      5540         1         0      5560         1         0
      5580         1         0      5600         1         0      5620         1         0
      5640         1         0      5660         1         0      5680         1         0
      5700         1         0      5720         1         0      5740         1         0
      5760         1         0      5780         1         0      5800         1         0
      5820         1         0      5840         1         0      5860         1         0
      5880         1         0      5900         1         0      5920         1         0
      5940         1         0      5960         1         0      5980         1         0
      6000         1         0      6020         1         0      6040         1         0
      6060         1         0      6080         1         0      6100         1         0
      6120         1         0      6140         1         0      6160         1         0
      6180         1         0      6200         1         0      6220         1         0
      6240         1         0      6260         1         0      6280         1         0
      6300         1         0      6320         1         0      6340         1         0
      6360         1         0      6380         1         0      6400         1         0
      6420         1         0      6440         1         0      6460         1         0
      6480         1         0      6500         1         0      6520         1         0
      6540         1         0      6560         1         0      6580         1         0
      6600         1         0      6620         1         0      6640         1         0
      6660         1         0      6680         1         0      6700         1         0
      6720         1         0      6740         1         0      6760         1         0
      6780         1         0      6800         1         0      6820         1         0
      6840         1         0      6860         1         0      6880         1         0
      6900         1         0      6920         1         0      6940         1         0
      6960         1         0      6980         1         0      7000         1         0
      7020         1         0      7040         1         0      7060         1         0
      7080         1         0      7100         1         0      7120         1         0
      7140         1         0      7160         1         0      7180         1         0
      7200         1         0      7220         1         0      7240         1         0
      7260         1         0      7280         1         0      7300         1         0
      7320         1         0      7340         1         0      7360         1         0
      7380         1         0      7400         1         0      7420         1         0
      7440         1         0      7460         1         0      7480         1         0
      7500         1         0      7520         1         0      7540         1         0
      7560         1         0      7580         1         0      7600         1         0
      7620         1         0      7640         1         0      7660         1         0
      7680         1         0      7700         1         0      7720         1         0
      7740         1         0      7760         1         0      7780         1         0
      7800         1         0      7820         1         0      7840         1         0
      7860         1         0      7880         1         0      7900         1         0
      7920         1         0      7940         1         0      7960         1         0
      7980         1         0      8000         1         0      8020         1         0
      8040         1         0      8060         1         0      8080         1         0
      8100         1         0      8120         1         0      8140         1         0
      8160         1         0      8180         1         0      8200         1         0
      8220         1         0      8240         1         0      8260         1         0
      8280         1         0      8300         1         0      8320         1         0
      8340         1         0      8360         1         0      8380         1         0
      8400         1         0      8420         1         0      8440         1         0
      8460         1         0      8480         1         0      8500         1         0
      8520         1         0      8540         1         0      8560         1         0
      8580         1         0      8600         1         0      8620         1         0
      8640         1         0      8660         1         0      8680         1         0
      8700         1         0      8720         1         0      8740         1         0
      8760         1         0      8780         1         0      8800         1         0
      8820         1         0      8840         1         0      8860         1         0
      8880         1         0      8900         1         0      8920         1         0
      8940         1         0      8960         1         0      8980         1         0
      9000         1         0      9020         1         0      9040         1         0
      9060         1         0      9080         1         0      9100         1         0
      9120         1         0      9140         1         0      9160         1         0
      9180         1         0      9200         1         0      9220         1         0
      9240         1         0      9260         1         0      9280         1         0
      9300         1         0      9320         1         0      9340         1         0
      9360         1         0      9380         1         0      9400         1         0
      9420         1         0      9440         1         0      9460         1         0
      9480         1         0      9500         1         0      9520         1         0
      9540         1         0      9560         1         0      9580         1         0
      9600         1         0      9620         1         0      9640         1         0
      9660         1         0      9680         1         0      9700         1         0
      9720         1         0      9740         1         0      9760         1         0
      9780         1         0      9800         1         0      9820         1         0
      9840         1         0      9860         1         0      9880         1         0
      9900         1         0      9920         1         0      9940         1         0
      9960         1         0      9980         1         0     10000         1         0
     10020         1         0     10040         1         0     10060         1         0
     10080         1         0     10100         1         0     10120         1         0
     10140         1         0     10160         1         0     10180         1         0
     10200         1         0     10220         1         0     10240         1         0
     10260         1         0     10280         1         0     10300         1         0
     10320         1         0     10340         1         0     10360         1         0
     10380         1         0     10400         1         0     10420         1         0
     10440         1         0     10460         1         0     10480         1         0
     10500         1         0     10520         1         0     10540         1         0
     10560         1         0     10580         1         0     10600         1         0
     10620         1         0     10640         1         0     10660         1         0
     10680         1         0     10700         1         0     10720         1         0
     10740         1         0     10760         1         0     10780         1         0
     10800         1         0     10820         1         0     10840         1         0
     10860         1         0     10880         1         0     10900         1         0
     10920         1         0     10940         1         0     10960         1         0
     10980         1         0     11000         1         0     11020         1         0
     11040         1         0     11060         1         0     11080         1         0
     11100         1         0     11120         1         0     11140         1         0
     11160         1         0     11180         1         0     11200         1         0
     11220         1         0     11240         1         0     11260         1         0
     11280         1         0     11300         1         0     11320         1         0
     11340         1         0     11360         1         0     11380         1         0
     11400         1         0     11420         1         0     11440         1         0
     11460         1         0     11480         1         0     11500         1         0
     11520         1         0     11540         1         0     11560         1         0
     11580         1         0     11600         1         0     11620         1         0
     11640         1         0     11660         1         0     11680         1         0
     11700         1         0     11720         1         0     11740         1         0
     11760         1         0     11780         1         0     11800         1         0
     11820         1         0     11840         1         0     11860         1         0
     11880         1         0     11900         1         0     11920         1         0
     11940         1         0     11960         1         0     11980         1         0
     12000         1         0     12020         1         0     12040         1         0
     12060         1         0     12080         1         0     12100         1         0
     12120         1         0     12140         1         0     12160         1         0
     12180         1         0     12200         1         0     12220         1         0
     12240         1         0     12260         1         0     12280         1         0
     12300         1         0     12320         1         0     12340         1         0
     12360         1         0     12380         1         0     12400         1         0
     12420         1         0     12440         1         0     12460         1         0
     12480         1         0     12500         1         0     12520         1         0
     12540         1         0     12556         1         0     12572         1         0
     12588         1         0     12604         1         0     12620         1         0
     12636         1         0     12652         1         0     12668         1         0
     12684         1         0     12700         1         0     12716         1         0
     12732         1         0     12748         1         0     12764         1         0
     12780         1         0     12796         1         0     12812         1         0
     12828         1         0     12844         1         0     12860         1         0
     12876         1         0     12892         1         0     12908         1         0
     12924         1         0     12940         1         0     12956         1         0
     12972         1         0     12988         1         0     13004         1         0
     13020         1         0     13036         1         0     13052         1         0
     13068         1         0     13084         1         0     13100         1         0
     13116         1         0     13132         1         0     13148         1         0
     13164         1         0     13180         1         0     13196         1         0
     13212         1         0     13228         1         0     13244         1         0
     13260         1         0     13276         1         0     13292         1         0
     13308         1         0     13324         1         0     13340         1         0
     13356         1         0     13372         1         0     13388         1         0
     13404         1         0     13420         1         0     13436         1         0
     13452         1         0     13468         1         0     13484         1         0
     13500         1         0     13516         1         0     13532         1         0
     13548         1         0     13564         1         0     13580         1         0
     13596         1         0     13612         1         0     13628         1         0
     13644         1         0     13660         1         0     13676         1         0
     13692         1         0     13708         1         0     13724         1         0
     13740         1         0     13756         1         0     13772         1         0
     13788         1         0     13804         1         0     13820         1         0
     13836         1         0     13852         1         0     13868         1         0
     13884         1         0     13900         1         0     13916         1         0
     13932         1         0     13948         1         0     13964         1         0
     13980         1         0     13996         1         0     14012         1         0
     14028         1         0     14044         1         0     14060         1         0
     14076         1         0     14092         1         0     14108         1         0
     14124         1         0     14140         1         0     14156         1         0
     14172         1         0     14188         1         0     14204         1         0
     14220         1         0     14236         1         0     14252         1         0
     14268         1         0     14284         1         0     14300         1         0
     14316         1         0     14332         1         0     14348         1         0
     14364         1         0     14380         1         0     14396         1         0
     14412         1         0     14428         1         0     14444         1         0
     14460         1         0     14476         1         0     14492         1         0
     14508         1         0     14524         1         0     14540         1         0
     14556         1         0     14572         1         0     14588         1         0
     14604         1         0     14620         1         0     14636         1         0
     14652         1         0     14668         1         0     14684         1         0
     14700         1         0     14716         1         0     14732         1         0
     14748         1         0     14764         1         0     14780         1         0
     14796         1         0     14812         1         0     14828         1         0
     14844         1         0     14860         1         0     14876         1         0
     14892         1         0     14908         1         0     14924         1         0
     14940         1         0     14956         1         0     14972         1         0
     14988         1         0     15004         1         0     15020         1         0
     15036         1         0     15052         1         0     15068         1         0
     15084         1         0     15100         1         0     15116         1         0
     15132         1         0     15148         1         0     15164         1         0
     15180         1         0     15196         1         0     15212         1         0
     15228         1         0     15244         1         0     15260         1         0
     15276         1         0     15292         1         0     15308         1         0
     15324         1         0     15340         1         0     15356         1         0
     15372         1         0     15388         1         0     15404         1         0
     15420         1         0     15436         1         0     15452         1         0
     15468         1         0     15484         1         0     15500         1         0
     15516         1         0     15532         1         0     15548         1         0
     15564         1         0     15580         1         0     15596         1         0
     15612         1         0     15628         1         0     15644         1         0
     15660         1         0     15676         1         0     15692         1         0
     15708         1         0     15724         1         0     15740         1         0
     15756         1         0     15772         1         0     15788         1         0
     15804         1         0     15820         1         0     15836         1         0
     15852         1         0     15868         1         0     15884         1         0
     15900         1         0     15916         1         0     15932         1         0
     15948         1         0     15964         1         0     15980         1         0
     15996         1         0     16012         1         0     16028         1         0
     16044         1         0     16060         1         0     16076         1         0
     16092         1         0     16108         1         0     16124         1         0
     16140         1         0     16156         1         0     16172         1         0
     16188         1         0     16204         1         0     16220         1         0
     16236         1         0     16252         1         0     16268         1         0
     16284         1         0     16300         1         0     16316         1         0
     16332         1         0     16348         1         0     16364         1         0
     16380         1         0     16396         1         0     16412         1         0
     16428         1         0     16444         1         0     16460         1         0
     16476         1         0     16492         1         0     16508         1         0
     16524         1         0     16540         1         0     16556         1         0
     16572         1         0     16588         1         0     16604         1         0
     16620         1         0     16636         1         0     16652         1         0
     16668         1         0     16684         1         0     16700         1         0
     16716         1         0     16732         1         0     16748         1         0
     16764         1         0     16780         1         0     16796         1         0
     16812         1         0     16828         1         0     16844         1         0
     16860         1         0     16876         1         0     16892         1         0
     16908         1         0     16924         1         0     16940         1         0
     16956         1         0     16972         1         0     16988         1         0
     17004         1         0     17020         1         0     17036         1         0
     17052         1         0     17068         1         0     17084         1         0
     17100         1         0     17116         1         0     17132         1         0
     17148         1         0     17164         1         0     17180         1         0
     17196         1         0     17212         1         0     17228         1         0
     17244         1         0     17260         1         0     17276         1         0
     17292         1         0     17308         1         0     17324         1         0
     17340         1         0     17356         1         0     17372         1         0
     17388         1         0     17404         1         0     17420         1         0
     17436         1         0     17452         1         0     17468         1         0
     17484         1         0     17500         1         0     17516         1         0
     17532         1         0     17548         1         0     17564         1         0
     17580         1         0     17596         1         0     17612         1         0
     17628         1         0     17644         1         0     17660         1         0
     17676         1         0     17692         1         0     17708         1         0
     17724         1         0     17740         1         0     17756         1         0
     17772         1         0     17788         1         0     17804         1         0
     17820         1         0     17836         1         0     17852         1         0
     17868         1         0     17884         1         0     17900         1         0
     17916         1         0     17932         1         0     17948         1         0
     17964         1         0     17980         1         0     17996         1         0
     18012         1         0     18028         1         0     18044         1         0
     18060         1         0     18076         1         0     18092         1         0
     18108         1         0     18124         1         0     18140         2         0
     18225         2         0

      1009 !MOLNT
         1         1         1         1         1         1         1         1
         1         1         1         1         1         1         1         1
         1         1         1         1         2         2         2         2
         2         2         2         2         2         2         2         2
         2         2         2         2         2         2         2         2
         3         3         3         3         3         3         3         3
         3         3         3         3         3         3         3         3
         3         3         3         3         4         4         4         4
         4         4         4         4         4         4         4         4
         4         4         4         4         4         4         4         4
         5         5         5         5         5         5         5         5
         5         5         5         5         5         5         5         5
         5         5         5         5         6         6         6         6
         6         6         6         6         6         6         6         6
         6         6         6         6         6         6         6         6
         7         7         7         7         7         7         7         7
         7         7         7         7         7         7         7         7
         7         7         7         7         8         8         8         8
         8         8         8         8         8         8         8         8
         8         8         8         8         8         8         8         8
         9         9         9         9         9         9         9         9
         9         9         9         9         9         9         9         9
         9         9         9         9        10        10        10        10
        10        10        10        10        10        10        10        10
        10        10        10        10        10        10        10        10
        11        11        11        11        11        11        11        11
        11        11        11        11        11        11        11        11
        11        11        11        11        12        12        12        12
        12        12        12        12        12        12        12        12
        12        12        12        12        12        12        12        12
        13        13        13        13        13        13        13        13
        13        13        13        13        13        13        13        13
        13        13        13        13        14        14        14        14
        14        14        14        14        14        14        14        14
        14        14        14        14        14        14        14        14
        15        15        15        15        15        15        15        15
        15        15        15        15        15        15        15        15
        15        15        15        15        16        16        16        16
        16        16        16        16        16        16        16        16
        16        16        16        16        16        16        16        16
        17        17        17        17        17        17        17        17
        17        17        17        17        17        17        17        17
        17        17        17        17        18        18        18        18
        18        18        18        18        18        18        18        18
        18        18        18        18        18        18        18        18
        19        19        19        19        19        19        19        19
        19        19        19        19        19        19        19        19
        19        19        19        19        20        20        20        20
        20        20        20        20        20        20        20        20
        20        20        20        20        20        20        20        20
        21        21        21        21        21        21        21        21
        21        21        21        21        21        21        21        21
        21        21        21        21        22        22        22        22
        22        22        22        22        22        22        22        22
        22        22        22        22        22        22        22        22
        23        23        23        23        23        23        23        23
        23        23        23        23        23        23        23        23
        23        23        23        23        24        24        24        24
        24        24        24        24        24        24        24        24
        24        24        24        24        24        24        24        24
        25        25        25        25        25        25        25        25
        25        25        25        25        25        25        25        25
        25        25        25        25        26        26        26        26
        26        26        26        26        26        26        26        26
        26        26        26        26        26        26        26        26
        27        27        27        27        27        27        27        27
        27        27        27        27        27        27        27        27
        27        27        27        27        28        28        28        28
        28        28        28        28        28        28        28        28
        28        28        28        28        28        28        28        28
        29        29        29        29        29        29        29        29
        29        29        29        29        29        29        29        29
        29        29        29        29        30        30        30        30
        30        30        30        30        30        30        30        30
        30        30        30        30        30        30        30        30
        31        31        31        31        31        31        31        31
        31        31        31        31        31        31        31        31
        31        31        31        31        32        32        32        32
        32        32        32        32        32        32        32        32
        32        32        32        32        32        32        32        32
        33        33        33        33        33        33        33        33
        33        33        33        33        33        33        33        33
        33        33        33        33        34        34        34        34
        34        34        34        34        34        34        34        34
        34        34        34        34        34        34        34        34
        35        35        35        35        35        35        35        35
        35        35        35        35        35        35        35        35
        35        35        35        35        36        36        36        36
        36        36        36        36        36        36        36        36
        36        36        36        36        36        36        36        36
        37        37        37        37        37        37        37        37
        37        37        37        37        37        37        37        37
        37        37        37        37        38        38        38        38
        38        38        38        38        38        38        38        38
        38        38        38        38        38        38        38        38
        39        39        39        39        39        39        39        39
        39        39        39        39        39        39        39        39
        39        39        39        39        40        40        40        40
        40        40        40        40        40        40        40        40
        40        40        40        40        40        40        40        40
        41        41        41        41        41        41        41        41
        41        41        41        41        41        41        41        41
        41        41        41        41        42        42        42        42
        42        42        42        42        42        42        42        42
        42        42        42        42        42        42        42        42
        43        43        43        43        43        43        43        43
        43        43        43        43        43        43        43        43
        43        43        43        43        44        44        44        44
        44        44        44        44        44        44        44        44
        44        44        44        44        44        44        44        44
        45        45        45        45        45        45        45        45
        45        45        45        45        45        45        45        45
        45        45        45        45        46        46        46        46
        46        46        46        46        46        46        46        46
        46        46        46        46        46        46        46        46
        47        47        47        47        47        47        47        47
        47        47        47        47        47        47        47        47
        47        47        47        47        48        48        48        48
        48        48        48        48        48        48        48        48
        48        48        48        48        48        48        48        48
        49        49        49        49        49        49        49        49
        49        49        49        49        49        49        49        49
        49        49        49        49        50        50        50        50
        50        50        50        50        50        50        50        50
        50        50        50        50        50        50        50        50
        51        51        51        51        51        51        51        51
        51        51        51        51        51        51        51        51
        51        51        51        51        52        52        52        52
        52        52        52        52        52        52        52        52
        52        52        52        52        52        52        52        52
        53        53        53        53        53        53        53        53
        53        53        53        53        53        53        53        53
        53        53        53        53        54        54        54        54
        54        54        54        54        54        54        54        54
        54        54        54        54        54        54        54        54
        55        55        55        55        55        55        55        55
        55        55        55        55        55        55        55        55
        55        55        55        55        56        56        56        56
        56        56        56        56        56        56        56        56
        56        56        56        56        56        56        56        56
        57        57        57        57        57        57        57        57
        57        57        57        57        57        57        57        57
        57        57        57        57        58        58        58        58
        58        58        58        58        58        58        58        58
        58        58        58        58        58        58        58        58
        59        59        59        59        59        59        59        59
        59        59        59        59        59        59        59        59
        59        59        59        59        60        60        60        60
        60        60        60        60        60        60        60        60
        60        60        60        60        60        60        60        60
        61        61        61        61        61        61        61        61
        61        61        61        61        61        61        61        61
        61        61        61        61        62        62        62        62
        62        62        62        62        62        62        62        62
        62        62        62        62        62        62        62        62
        63        63        63        63        63        63        63        63
        63        63        63        63        63        63        63        63
        63        63        63        63        64        64        64        64
        64        64        64        64        64        64        64        64
        64        64        64        64        64        64        64        64
        65        65        65        65        65        65        65        65
        65        65        65        65        65        65        65        65
        65        65        65        65        66        66        66        66
        66        66        66        66        66        66        66        66
        66        66        66        66        66        66        66        66
        67        67        67        67        67        67        67        67
        67        67        67        67        67        67        67        67
        67        67        67        67        68        68        68        68
        68        68        68        68        68        68        68        68
        68        68        68        68        68        68        68        68
        69        69        69        69        69        69        69        69
        69        69        69        69        69        69        69        69
        69        69        69        69        70        70        70        70
        70        70        70        70        70        70        70        70
        70        70        70        70        70        70        70        70
        71        71        71        71        71        71        71        71
        71        71        71        71        71        71        71        71
        71        71        71        71        72        72        72        72
        72        72        72        72        72        72        72        72
        72        72        72        72        72        72        72        72
        73        73        73        73        73        73        73        73
        73        73        73        73        73        73        73        73
        73        73        73        73        74        74        74        74
        74        74        74        74        74        74        74        74
        74        74        74        74        74        74        74        74
        75        75        75        75        75        75        75        75
        75        75        75        75        75        75        75        75
        75        75        75        75        76        76        76        76
        76        76        76        76        76        76        76        76
        76        76        76        76        76        76        76        76
        77        77        77        77        77        77        77        77
        77        77        77        77        77        77        77        77
        77        77        77        77        78        78        78        78
        78        78        78        78        78        78        78        78
        78        78        78        78        78        78        78        78
        79        79        79        79        79        79        79        79
        79        79        79        79        79        79        79        79
        79        79        79        79        80        80        80        80
        80        80        80        80        80        80        80        80
        80        80        80        80        80        80        80        80
        81        81        81        81        81        81        81        81
        81        81        81        81        81        81        81        81
        81        81        81        81        82        82        82        82
        82        82        82        82        82        82        82        82
        82        82        82        82        82        82        82        82
        83        83        83        83        83        83        83        83
        83        83        83        83        83        83        83        83
        83        83        83        83        84        84        84        84
        84        84        84        84        84        84        84        84
        84        84        84        84        84        84        84        84
        85        85        85        85        85        85        85        85
        85        85        85        85        85        85        85        85
        85        85        85        85        86        86        86        86
        86        86        86        86        86        86        86        86
        86        86        86        86        86        86        86        86
        87        87        87        87        87        87        87        87
        87        87        87        87        87        87        87        87
        87        87        87        87        88        88        88        88
        88        88        88        88        88        88        88        88
        88        88        88        88        88        88        88        88
        89        89        89        89        89        89        89        89
        89        89        89        89        89        89        89        89
        89        89        89        89        90        90        90        90
        90        90        90        90        90        90        90        90
        90        90        90        90        90        90        90        90
        91        91        91        91        91        91        91        91
        91        91        91        91        91        91        91        91
        91        91        91        91        92        92        92        92
        92        92        92        92        92        92        92        92
        92        92        92        92        92        92        92        92
        93        93        93        93        93        93        93        93
        93        93        93        93        93        93        93        93
        93        93        93        93        94        94        94        94
        94        94        94        94        94        94        94        94
        94        94        94        94        94        94        94        94
        95        95        95        95        95        95        95        95
        95        95        95        95        95        95        95        95
        95        95        95        95        96        96        96        96
        96        96        96        96        96        96        96        96
        96        96        96        96        96        96        96        96
        97        97        97        97        97        97        97        97
        97        97        97        97        97        97        97        97
        97        97        97        97        98        98        98        98
        98        98        98        98        98        98        98        98
        98        98        98        98        98        98        98        98
        99        99        99        99        99        99        99        99
        99        99        99        99        99        99        99        99
        99        99        99        99       100       100       100       100
       100       100       100       100       100       100       100       100
       100       100       100       100       100       100       100       100
       101       101       101       101       101       101       101       101
       101       101       101       101       101       101       101       101
       101       101       101       101       102       102       102       102
       102       102       102       102       102       102       102       102
       102       102       102       102       102       102       102       102
       103       103       103       103       103       103       103       103
       103       103       103       103       103       103       103       103
       103       103       103       103       104       104       104       104
       104       104       104       104       104       104       104       104
       104       104       104       104       104       104       104       104
       105       105       105       105       105       105       105       105
       105       105       105       105       105       105       105       105
       105       105       105       105       106       106       106       106
       106       106       106       106       106       106       106       106
       106       106       106       106       106       106       106       106
       107       107       107       107       107       107       107       107
       107       107       107       107       107       107       107       107
       107       107       107       107       108       108       108       108
       108       108       108       108       108       108       108       108
       108       108       108       108       108       108       108       108
       109       109       109       109       109       109       109       109
       109       109       109       109       109       109       109       109
       109       109       109       109       110       110       110       110
       110       110       110       110       110       110       110       110
       110       110       110       110       110       110       110       110
       111       111       111       111       111       111       111       111
       111       111       111       111       111       111       111       111
       111       111       111       111       112       112       112       112
       112       112       112       112       112       112       112       112
       112       112       112       112       112       112       112       112
       113       113       113       113       113       113       113       113
       113       113       113       113       113       113       113       113
       113       113       113       113       114       114       114       114
       114       114       114       114       114       114       114       114
       114       114       114       114       114       114       114       114
       115       115       115       115       115       115       115       115
       115       115       115       115       115       115       115       115
       115       115       115       115       116       116       116       116
       116       116       116       116       116       116       116       116
       116       116       116       116       116       116       116       116
       117       117       117       117       117       117       117       117
       117       117       117       117       117       117       117       117
       117       117       117       117       118       118       118       118
       118       118       118       118       118       118       118       118
       118       118       118       118       118       118       118       118
       119       119       119       119       119       119       119       119
       119       119       119       119       119       119       119       119
       119       119       119       119       120       120       120       120
       120       120       120       120       120       120       120       120
       120       120       120       120       120       120       120       120
       121       121       121       121       121       121       121       121
       121       121       121       121       121       121       121       121
       121       121       121       121       122       122       122       122
       122       122       122       122       122       122       122       122
       122       122       122       122       122       122       122       122
       123       123       123       123       123       123       123       123
       123       123       123       123       123       123       123       123
       123       123       123       123       124       124       124       124
       124       124       124       124       124       124       124       124
       124       124       124       124       124       124       124       124
       125       125       125       125       125       125       125       125
       125       125       125       125       125       125       125       125
       125       125       125       125       126       126       126       126
       126       126       126       126       126       126       126       126
       126       126       126       126       126       126       126       126
       127       127       127       127       127       127       127       127
       127       127       127       127       127       127       127       127
       127       127       127       127       128       128       128       128
       128       128       128       128       128       128       128       128
       128       128       128       128       128       128       128       128
       129       129       129       129       129       129       129       129
       129       129       129       129       129       129       129       129
       129       129       129       129       130       130       130       130
       130       130       130       130       130       130       130       130
       130       130       130       130       130       130       130       130
       131       131       131       131       131       131       131       131
       131       131       131       131       131       131       131       131
       131       131       131       131       132       132       132       132
       132       132       132       132       132       132       132       132
       132       132       132       132       132       132       132       132
       133       133       133       133       133       133       133       133
       133       133       133       133       133       133       133       133
       133       133       133       133       134       134       134       134
       134       134       134       134       134       134       134       134
       134       134       134       134       134       134       134       134
       135       135       135       135       135       135       135       135
       135       135       135       135       135       135       135       135
       135       135       135       135       136       136       136       136
       136       136       136       136       136       136       136       136
       136       136       136       136       136       136       136       136
       137       137       137       137       137       137       137       137
       137       137       137       137       137       137       137       137
       137       137       137       137       138       138       138       138
       138       138       138       138       138       138       138       138
       138       138       138       138       138       138       138       138
       139       139       139       139       139       139       139       139
       139       139       139       139       139       139       139       139
       139       139       139       139       140       140       140       140
       140       140       140       140       140       140       140       140
       140       140       140       140       140       140       140       140
       141       141       141       141       141       141       141       141
       141       141       141       141       141       141       141       141
       141       141       141       141       142       142       142       142
       142       142       142       142       142       142       142       142
       142       142       142       142       142       142       142       142
       143       143       143       143       143       143       143       143
       143       143       143       143       143       143       143       143
       143       143       143       143       144       144       144       144
       144       144       144       144       144       144       144       144
       144       144       144       144       144       144       144       144
       145       145       145       145       145       145       145       145
       145       145       145       145       145       145       145       145
       145       145       145       145       146       146       146       146
       146       146       146       146       146       146       146       146
       146       146       146       146       146       146       146       146
       147       147       147       147       147       147       147       147
       147       147       147       147       147       147       147       147
       147       147       147       147       148       148       148       148
       148       148       148       148       148       148       148       148
       148       148       148       148       148       148       148       148
       149       149       149       149       149       149       149       149
       149       149       149       149       149       149       149       149
       149       149       149       149       150       150       150       150
       150       150       150       150       150       150       150       150
       150       150       150       150       150       150       150       150
       151       151       151       151       151       151       151       151
       151       151       151       151       151       151       151       151
       151       151       151       151       152       152       152       152
       152       152       152       152       152       152       152       152
       152       152       152       152       152       152       152       152
       153       153       153       153       153       153       153       153
       153       153       153       153       153       153       153       153
       153       153       153       153       154       154       154       154
       154       154       154       154       154       154       154       154
       154       154       154       154       154       154       154       154
       155       155       155       155       155       155       155       155
       155       155       155       155       155       155       155       155
       155       155       155       155       156       156       156       156
       156       156       156       156       156       156       156       156
       156       156       156       156       156       156       156       156
       157       157       157       157       157       157       157       157
       157       157       157       157       157       157       157       157
       157       157       157       157       158       158       158       158
       158       158       158       158       158       158       158       158
       158       158       158       158       159       159       159       159
       159       159       159       159       159       159       159       159
       159       159       159       159       160       160       160       160
       160       160       160       160       160       160       160       160
       160       160       160       160       161       161       161       161
       161       161       161       161       161       161       161       161
       161       161       161       161       162       162       162       162
       162       162       162       162       162       162       162       162
       162       162       162       162       163       163       163       163
       163       163       163       163       163       163       163       163
       163       163       163       163       164       164       164       164
       164       164       164       164       164       164       164       164
       164       164       164       164       165       165       165       165
       165       165       165       165       165       165       165       165
       165       165       165       165       166       166       166       166
       166       166       166       166       166       166       166       166
       166       166       166       166       167       167       167       167
       167       167       167       167       167       167       167       167
       167       167       167       167       168       168       168       168
       168       168       168       168       168       168       168       168
       168       168       168       168       169       169       169       169
       169       169       169       169       169       169       169       169
       169       169       169       169       170       170       170       170
       170       170       170       170       170       170       170       170
       170       170       170       170       171       171       171       171
       171       171       171       171       171       171       171       171
       171       171       171       171       172       172       172       172
       172       172       172       172       172       172       172       172
       172       172       172       172       173       173       173       173
       173       173       173       173       173       173       173       173
       173       173       173       173       174       174       174       174
       174       174       174       174       174       174       174       174
       174       174       174       174       175       175       175       175
       175       175       175       175       175       175       175       175
       175       175       175       175       176       176       176       176
       176       176       176       176       176       176       176       176
       176       176       176       176       177       177       177       177
       177       177       177       177       177       177       177       177
       177       177       177       177       178       178       178       178
       178       178       178       178       178       178       178       178
       178       178       178       178       179       179       179       179
       179       179       179       179       179       179       179       179
       179       179       179       179       180       180       180       180
       180       180       180       180       180       180       180       180
       180       180       180       180       181       181       181       181
       181       181       181       181       181       181       181       181
       181       181       181       181       182       182       182       182
       182       182       182       182       182       182       182       182
       182       182       182       182       183       183       183       183
       183       183       183       183       183       183       183       183
       183       183       183       183       184       184       184       184
       184       184       184       184       184       184       184       184
       184       184       184       184       185       185       185       185
       185       185       185       185       185       185       185       185
       185       185       185       185       186       186       186       186
       186       186       186       186       186       186       186       186
       186       186       186       186       187       187       187       187
       187       187       187       187       187       187       187       187
       187       187       187       187       188       188       188       188
       188       188       188       188       188       188       188       188
       188       188       188       188       189       189       189       189
       189       189       189       189       189       189       189       189
       189       189       189       189       190       190       190       190
       190       190       190       190       190       190       190       190
       190       190       190       190       191       191       191       191
       191       191       191       191       191       191       191       191
       191       191       191       191       192       192       192       192
       192       192       192       192       192       192       192       192
       192       192       192       192       193       193       193       193
       193       193       193       193       193       193       193       193
       193       193       193       193       194       194       194       194
       194       194       194       194       194       194       194       194
       194       194       194       194       195       195       195       195
       195       195       195       195       195       195       195       195
       195       195       195       195       196       196       196       196
       196       196       196       196       196       196       196       196
       196       196       196       196       197       197       197       197
       197       197       197       197       197       197       197       197
       197       197       197       197       198       198       198       198
       198       198       198       198       198       198       198       198
       198       198       198       198       199       199       199       199
       199       199       199       199       199       199       199       199
       199       199       199       199       200       200       200       200
       200       200       200       200       200       200       200       200
       200       200       200       200       201       201       201       201
       201       201       201       201       201       201       201       201
       201       201       201       201       202       202       202       202
       202       202       202       202       202       202       202       202
       202       202       202       202       203       203       203       203
       203       203       203       203       203       203       203       203
       203       203       203       203       204       204       204       204
       204       204       204       204       204       204       204       204
       204       204       204       204       205       205       205       205
       205       205       205       205       205       205       205       205
       205       205       205       205       206       206       206       206
       206       206       206       206       206       206       206       206
       206       206       206       206       207       207       207       207
       207       207       207       207       207       207       207       207
       207       207       207       207       208       208       208       208
       208       208       208       208       208       208       208       208
       208       208       208       208       209       209       209       209
       209       209       209       209       209       209       209       209
       209       209       209       209       210       210       210       210
       210       210       210       210       210       210       210       210
       210       210       210       210       211       211       211       211
       211       211       211       211       211       211       211       211
       211       211       211       211       212       212       212       212
       212       212       212       212       212       212       212       212
       212       212       212       212       213       213       213       213
       213       213       213       213       213       213       213       213
       213       213       213       213       214       214       214       214
       214       214       214       214       214       214       214       214
       214       214       214       214       215       215       215       215
       215       215       215       215       215       215       215       215
       215       215       215       215       216       216       216       216
       216       216       216       216       216       216       216       216
       216       216       216       216       217       217       217       217
       217       217       217       217       217       217       217       217
       217       217       217       217       218       218       218       218
       218       218       218       218       218       218       218       218
       218       218       218       218       219       219       219       219
       219       219       219       219       219       219       219       219
       219       219       219       219       220       220       220       220
       220       220       220       220       220       220       220       220
       220       220       220       220       221       221       221       221
       221       221       221       221       221       221       221       221
       221       221       221       221       222       222       222       222
       222       222       222       222       222       222       222       222
       222       222       222       222       223       223       223       223
       223       223       223       223       223       223       223       223
       223       223       223       223       224       224       224       224
       224       224       224       224       224       224       224       224
       224       224       224       224       225       225       225       225
       225       225       225       225       225       225       225       225
       225       225       225       225       226       226       226       226
       226       226       226       226       226       226       226       226
       226       226       226       226       227       227       227       227
       227       227       227       227       227       227       227       227
       227       227       227       227       228       228       228       228
       228       228       228       228       228       228       228       228
       228       228       228       228       229       229       229       229
       229       229       229       229       229       229       229       229
       229       229       229       229       230       230       230       230
       230       230       230       230       230       230       230       230
       230       230       230       230       231       231       231       231
       231       231       231       231       231       231       231       231
       231       231       231       231       232       232       232       232
       232       232       232       232       232       232       232       232
       232       232       232       232       233       233       233       233
       233       233       233       233       233       233       233       233
       233       233       233       233       234       234       234       234
       234       234       234       234       234       234       234       234
       234       234       234       234       235       235       235       235
       235       235       235       235       235       235       235       235
       235       235       235       235       236       236       236       236
       236       236       236       236       236       236       236       236
       236       236       236       236       237       237       237       237
       237       237       237       237       237       237       237       237
       237       237       237       237       238       238       238       238
       238       238       238       238       238       238       238       238
       238       238       238       238       239       239       239       239
       239       239       239       239       239       239       239       239
       239       239       239       239       240       240       240       240
       240       240       240       240       240       240       240       240
       240       240       240       240       241       241       241       241
       241       241       241       241       241       241       241       241
       241       241       241       241       242       242       242       242
       242       242       242       242       242       242       242       242
       242       242       242       242       243       243       243       243
       243       243       243       243       243       243       243       243
       243       243       243       243       244       244       244       244
       244       244       244       244       244       244       244       244
       244       244       244       244       245       245       245       245
       245       245       245       245       245       245       245       245
       245       245       245       245       246       246       246       246
       246       246       246       246       246       246       246       246
       246       246       246       246       247       247       247       247
       247       247       247       247       247       247       247       247
       247       247       247       247       248       248       248       248
       248       248       248       248       248       248       248       248
       248       248       248       248       249       249       249       249
       249       249       249       249       249       249       249       249
       249       249       249       249       250       250       250       250
       250       250       250       250       250       250       250       250
       250       250       250       250       251       251       251       251
       251       251       251       251       251       251       251       251
       251       251       251       251       252       252       252       252
       252       252       252       252       252       252       252       252
       252       252       252       252       253       253       253       253
       253       253       253       253       253       253       253       253
       253       253       253       253       254       254       254       254
       254       254       254       254       254       254       254       254
       254       254       254       254       255       255       255       255
       255       255       255       255       255       255       255       255
       255       255       255       255       256       256       256       256
       256       256       256       256       256       256       256       256
       256       256       256       256       257       257       257       257
       257       257       257       257       257       257       257       257
       257       257       257       257       258       258       258       258
       258       258       258       258       258       258       258       258
       258       258       258       258       259       259       259       259
       259       259       259       259       259       259       259       259
       259       259       259       259       260       260       260       260
       260       260       260       260       260       260       260       260
       260       260       260       260       261       261       261       261
       261       261       261       261       261       261       261       261
       261       261       261       261       262       262       262       262
       262       262       262       262       262       262       262       262
       262       262       262       262       263       263       263       263
       263       263       263       263       263       263       263       263
       263       263       263       263       264       264       264       264
       264       264       264       264       264       264       264       264
       264       264       264       264       265       265       265       265
       265       265       265       265       265       265       265       265
       265       265       265       265       266       266       266       266
       266       266       266       266       266       266       266       266
       266       266       266       266       267       267       267       267
       267       267       267       267       267       267       267       267
       267       267       267       267       268       268       268       268
       268       268       268       268       268       268       268       268
       268       268       268       268       269       269       269       269
       269       269       269       269       269       269       269       269
       269       269       269       269       270       270       270       270
       270       270       270       270       270       270       270       270
       270       270       270       270       271       271       271       271
       271       271       271       271       271       271       271       271
       271       271       271       271       272       272       272       272
       272       272       272       272       272       272       272       272
       272       272       272       272       273       273       273       273
       273       273       273       273       273       273       273       273
       273       273       273       273       274       274       274       274
       274       274       274       274       274       274       274       274
       274       274       274       274       275       275       275       275
       275       275       275       275       275       275       275       275
       275       275       275       275       276       276       276       276
       276       276       276       276       276       276       276       276
       276       276       276       276       277       277       277       277
       277       277       277       277       277       277       277       277
       277       277       277       277       278       278       278       278
       278       278       278       278       278       278       278       278
       278       278       278       278       279       279       279       279
       279       279       279       279       279       279       279       279
       279       279       279       279       280       280       280       280
       280       280       280       280       280       280       280       280
       280       280       280       280       281       281       281       281
       281       281       281       281       281       281       281       281
       281       281       281       281       282       282       282       282
       282       282       282       282       282       282       282       282
       282       282       282       282       283       283       283       283
       283       283       283       283       283       283       283       283
       283       283       283       283       284       284       284       284
       284       284       284       284       284       284       284       284
       284       284       284       284       285       285       285       285
       285       285       285       285       285       285       285       285
       285       285       285       285       286       286       286       286
       286       286       286       286       286       286       286       286
       286       286       286       286       287       287       287       287
       287       287       287       287       287       287       287       287
       287       287       287       287       288       288       288       288
       288       288       288       288       288       288       288       288
       288       288       288       288       289       289       289       289
       289       289       289       289       289       289       289       289
       289       289       289       289       290       290       290       290
       290       290       290       290       290       290       290       290
       290       290       290       290       291       291       291       291
       291       291       291       291       291       291       291       291
       291       291       291       291       292       292       292       292
       292       292       292       292       292       292       292       292
       292       292       292       292       293       293       293       293
       293       293       293       293       293       293       293       293
       293       293       293       293       294       294       294       294
       294       294       294       294       294       294       294       294
       294       294       294       294       295       295       295       295
       295       295       295       295       295       295       295       295
       295       295       295       295       296       296       296       296
       296       296       296       296       296       296       296       296
       296       296       296       296       297       297       297       297
       297       297       297       297       297       297       297       297
       297       297       297       297       298       298       298       298
       298       298       298       298       298       298       298       298
       298       298       298       298       299       299       299       299
       299       299       299       299       299       299       299       299
       299       299       299       299       300       300       300       300
       300       300       300       300       300       300       300       300
       300       300       300       300       301       301       301       301
       301       301       301       301       301       301       301       301
       301       301       301       301       302       302       302       302
       302       302       302       302       302       302       302       302
       302       302       302       302       303       303       303       303
       303       303       303       303       303       303       303       303
       303       303       303       303       304       304       304       304
       304       304       304       304       304       304       304       304
       304       304       304       304       305       305       305       305
       305       305       305       305       305       305       305       305
       305       305       305       305       306       306       306       306
       306       306       306       306       306       306       306       306
       306       306       306       306       307       307       307       307
       307       307       307       307       307       307       307       307
       307       307       307       307       308       308       308       308
       308       308       308       308       308       308       308       308
       308       308       308       308       308       308       308       308
       309       309       309       309       309       309       309       309
       309       309       309       309       309       309       309       309
       309       309       309       309       310       310       310       310
       310       310       310       310       310       310       310       310
       310       310       310       310       310       310       310       310
       311       311       311       311       311       311       311       311
       311       311       311       311       311       311       311       311
       311       311       311       311       312       312       312       312
       312       312       312       312       312       312       312       312
       312       312       312       312       312       312       312       312
       313       313       313       313       313       313       313       313
       313       313       313       313       313       313       313       313
       313       313       313       313       314       314       314       314
       314       314       314       314       314       314       314       314
       314       314       314       314       314       314       314       314
       315       315       315       315       315       315       315       315
       315       315       315       315       315       315       315       315
       315       315       315       315       316       316       316       316
       316       316       316       316       316       316       316       316
       316       316       316       316       316       316       316       316
       317       317       317       317       317       317       317       317
       317       317       317       317       317       317       317       317
       317       317       317       317       318       318       318       318
       318       318       318       318       318       318       318       318
       318       318       318       318       318       318       318       318
       319       319       319       319       319       319       319       319
       319       319       319       319       319       319       319       319
       319       319       319       319       320       320       320       320
       320       320       320       320       320       320       320       320
       320       320       320       320       320       320       320       320
       321       321       321       321       321       321       321       321
       321       321       321       321       321       321       321       321
       321       321       321       321       322       322       322       322
       322       322       322       322       322       322       322       322
       322       322       322       322       322       322       322       322
       323       323       323       323       323       323       323       323
       323       323       323       323       323       323       323       323
       323       323       323       323       324       324       324       324
       324       324       324       324       324       324       324       324
       324       324       324       324       324       324       324       324
       325       325       325       325       325       325       325       325
       325       325       325       325       325       325       325       325
       325       325       325       325       326       326       326       326
       326       326       326       326       326       326       326       326
       326       326       326       326       326       326       326       326
       327       327       327       327       327       327       327       327
       327       327       327       327       327       327       327       327
       327       327       327       327       328       328       328       328
       328       328       328       328       328       328       328       328
       328       328       328       328       328       328       328       328
       329       329       329       329       329       329       329       329
       329       329       329       329       329       329       329       329
       329       329       329       329       330       330       330       330
       330       330       330       330       330       330       330       330
       330       330       330       330       330       330       330       330
       331       331       331       331       331       331       331       331
       331       331       331       331       331       331       331       331
       331       331       331       331       332       332       332       332
       332       332       332       332       332       332       332       332
       332       332       332       332       332       332       332       332
       333       333       333       333       333       333       333       333
       333       333       333       333       333       333       333       333
       333       333       333       333       334       334       334       334
       334       334       334       334       334       334       334       334
       334       334       334       334       334       334       334       334
       335       335       335       335       335       335       335       335
       335       335       335       335       335       335       335       335
       335       335       335       335       336       336       336       336
       336       336       336       336       336       336       336       336
       336       336       336       336       336       336       336       336
       337       337       337       337       337       337       337       337
       337       337       337       337       337       337       337       337
       337       337       337       337       338       338       338       338
       338       338       338       338       338       338       338       338
       338       338       338       338       338       338       338       338
       339       339       339       339       339       339       339       339
       339       339       339       339       339       339       339       339
       339       339       339       339       340       340       340       340
       340       340       340       340       340       340       340       340
       340       340       340       340       340       340       340       340
       341       341       341       341       341       341       341       341
       341       341       341       341       341       341       341       341
       341       341       341       341       342       342       342       342
       342       342       342       342       342       342       342       342
       342       342       342       342       342       342       342       342
       343       343       343       343       343       343       343       343
       343       343       343       343       343       343       343       343
       343       343       343       343       344       344       344       344
       344       344       344       344       344       344       344       344
       344       344       344       344       344       344       344       344
       345       345       345       345       345       345       345       345
       345       345       345       345       345       345       345       345
       345       345       345       345       346       346       346       346
       346       346       346       346       346       346       346       346
       346       346       346       346       346       346       346       346
       347       347       347       347       347       347       347       347
       347       347       347       347       347       347       347       347
       347       347       347       347       348       348       348       348
       348       348       348       348       348       348       348       348
       348       348       348       348       348       348       348       348
       349       349       349       349       349       349       349       349
       349       349       349       349       349       349       349       349
       349       349       349       349       350       350       350       350
       350       350       350       350       350       350       350       350
       350       350       350       350       350       350       350       350
       351       351       351       351       351       351       351       351
       351       351       351       351       351       351       351       351
       351       351       351       351       352       352       352       352
       352       352       352       352       352       352       352       352
       352       352       352       352       352       352       352       352
       353       353       353       353       353       353       353       353
       353       353       353       353       353       353       353       353
       353       353       353       353       354       354       354       354
       354       354       354       354       354       354       354       354
       354       354       354       354       354       354       354       354
       355       355       355       355       355       355       355       355
       355       355       355       355       355       355       355       355
       355       355       355       355       356       356       356       356
       356       356       356       356       356       356       356       356
       356       356       356       356       356       356       356       356
       357       357       357       357       357       357       357       357
       357       357       357       357       357       357       357       357
       357       357       357       357       358       358       358       358
       358       358       358       358       358       358       358       358
       358       358       358       358       358       358       358       358
       359       359       359       359       359       359       359       359
       359       359       359       359       359       359       359       359
       359       359       359       359       360       360       360       360
       360       360       360       360       360       360       360       360
       360       360       360       360       360       360       360       360
       361       361       361       361       361       361       361       361
       361       361       361       361       361       361       361       361
       361       361       361       361       362       362       362       362
       362       362       362       362       362       362       362       362
       362       362       362       362       362       362       362       362
       363       363       363       363       363       363       363       363
       363       363       363       363       363       363       363       363
       363       363       363       363       364       364       364       364
       364       364       364       364       364       364       364       364
       364       364       364       364       364       364       364       364
       365       365       365       365       365       365       365       365
       365       365       365       365       365       365       365       365
       365       365       365       365       366       366       366       366
       366       366       366       366       366       366       366       366
       366       366       366       366       366       366       366       366
       367       367       367       367       367       367       367       367
       367       367       367       367       367       367       367       367
       367       367       367       367       368       368       368       368
       368       368       368       368       368       368       368       368
       368       368       368       368       368       368       368       368
       369       369       369       369       369       369       369       369
       369       369       369       369       369       369       369       369
       369       369       369       369       370       370       370       370
       370       370       370       370       370       370       370       370
       370       370       370       370       370       370       370       370
       371       371       371       371       371       371       371       371
       371       371       371       371       371       371       371       371
       371       371       371       371       372       372       372       372
       372       372       372       372       372       372       372       372
       372       372       372       372       372       372       372       372
       373       373       373       373       373       373       373       373
       373       373       373       373       373       373       373       373
       373       373       373       373       374       374       374       374
       374       374       374       374       374       374       374       374
       374       374       374       374       374       374       374       374
       375       375       375       375       375       375       375       375
       375       375       375       375       375       375       375       375
       375       375       375       375       376       376       376       376
       376       376       376       376       376       376       376       376
       376       376       376       376       376       376       376       376
       377       377       377       377       377       377       377       377
       377       377       377       377       377       377       377       377
       377       377       377       377       378       378       378       378
       378       378       378       378       378       378       378       378
       378       378       378       378       378       378       378       378
       379       379       379       379       379       379       379       379
       379       379       379       379       379       379       379       379
       379       379       379       379       380       380       380       380
       380       380       380       380       380       380       380       380
       380       380       380       380       380       380       380       380
       381       381       381       381       381       381       381       381
       381       381       381       381       381       381       381       381
       381       381       381       381       382       382       382       382
       382       382       382       382       382       382       382       382
       382       382       382       382       382       382       382       382
       383       383       383       383       383       383       383       383
       383       383       383       383       383       383       383       383
       383       383       383       383       384       384       384       384
       384       384       384       384       384       384       384       384
       384       384       384       384       384       384       384       384
       385       385       385       385       385       385       385       385
       385       385       385       385       385       385       385       385
       385       385       385       385       386       386       386       386
       386       386       386       386       386       386       386       386
       386       386       386       386       386       386       386       386
       387       387       387       387       387       387       387       387
       387       387       387       387       387       387       387       387
       387       387       387       387       388       388       388       388
       388       388       388       388       388       388       388       388
       388       388       388       388       388       388       388       388
       389       389       389       389       389       389       389       389
       389       389       389       389       389       389       389       389
       389       389       389       389       390       390       390       390
       390       390       390       390       390       390       390       390
       390       390       390       390       390       390       390       390
       391       391       391       391       391       391       391       391
       391       391       391       391       391       391       391       391
       391       391       391       391       392       392       392       392
       392       392       392       392       392       392       392       392
       392       392       392       392       392       392       392       392
       393       393       393       393       393       393       393       393
       393       393       393       393       393       393       393       393
       393       393       393       393       394       394       394       394
       394       394       394       394       394       394       394       394
       394       394       394       394       394       394       394       394
       395       395       395       395       395       395       395       395
       395       395       395       395       395       395       395       395
       395       395       395       395       396       396       396       396
       396       396       396       396       396       396       396       396
       396       396       396       396       396       396       396       396
       397       397       397       397       397       397       397       397
       397       397       397       397       397       397       397       397
       397       397       397       397       398       398       398       398
       398       398       398       398       398       398       398       398
       398       398       398       398       398       398       398       398
       399       399       399       399       399       399       399       399
       399       399       399       399       399       399       399       399
       399       399       399       399       400       400       400       400
       400       400       400       400       400       400       400       400
       400       400       400       400       400       400       400       400
       401       401       401       401       401       401       401       401
       401       401       401       401       401       401       401       401
       401       401       401       401       402       402       402       402
       402       402       402       402       402       402       402       402
       402       402       402       402       402       402       402       402
       403       403       403       403       403       403       403       403
       403       403       403       403       403       403       403       403
       403       403       403       403       404       404       404       404
       404       404       404       404       404       404       404       404
       404       404       404       404       404       404       404       404
       405       405       405       405       405       405       405       405
       405       405       405       405       405       405       405       405
       405       405       405       405       406       406       406       406
       406       406       406       406       406       406       406       406
       406       406       406       406       406       406       406       406
       407       407       407       407       407       407       407       407
       407       407       407       407       407       407       407       407
       407       407       407       407       408       408       408       408
       408       408       408       408       408       408       408       408
       408       408       408       408       408       408       408       408
       409       409       409       409       409       409       409       409
       409       409       409       409       409       409       409       409
       409       409       409       409       410       410       410       410
       410       410       410       410       410       410       410       410
       410       410       410       410       410       410       410       410
       411       411       411       411       411       411       411       411
       411       411       411       411       411       411       411       411
       411       411       411       411       412       412       412       412
       412       412       412       412       412       412       412       412
       412       412       412       412       412       412       412       412
       413       413       413       413       413       413       413       413
       413       413       413       413       413       413       413       413
       413       413       413       413       414       414       414       414
       414       414       414       414       414       414       414       414
       414       414       414       414       414       414       414       414
       415       415       415       415       415       415       415       415
       415       415       415       415       415       415       415       415
       415       415       415       415       416       416       416       416
       416       416       416       416       416       416       416       416
       416       416       416       416       416       416       416       416
       417       417       417       417       417       417       417       417
       417       417       417       417       417       417       417       417
       417       417       417       417       418       418       418       418
       418       418       418       418       418       418       418       418
       418       418       418       418       418       418       418       418
       419       419       419       419       419       419       419       419
       419       419       419       419       419       419       419       419
       419       419       419       419       420       420       420       420
       420       420       420       420       420       420       420       420
       420       420       420       420       420       420       420       420
       421       421       421       421       421       421       421       421
       421       421       421       421       421       421       421       421
       421       421       421       421       422       422       422       422
       422       422       422       422       422       422       422       422
       422       422       422       422       422       422       422       422
       423       423       423       423       423       423       423       423
       423       423       423       423       423       423       423       423
       423       423       423       423       424       424       424       424
       424       424       424       424       424       424       424       424
       424       424       424       424       424       424       424       424
       425       425       425       425       425       425       425       425
       425       425       425       425       425       425       425       425
       425       425       425       425       426       426       426       426
       426       426       426       426       426       426       426       426
       426       426       426       426       426       426       426       426
       427       427       427       427       427       427       427       427
       427       427       427       427       427       427       427       427
       427       427       427       427       428       428       428       428
       428       428       428       428       428       428       428       428
       428       428       428       428       428       428       428       428
       429       429       429       429       429       429       429       429
       429       429       429       429       429       429       429       429
       429       429       429       429       430       430       430       430
       430       430       430       430       430       430       430       430
       430       430       430       430       430       430       430       430
       431       431       431       431       431       431       431       431
       431       431       431       431       431       431       431       431
       431       431       431       431       432       432       432       432
       432       432       432       432       432       432       432       432
       432       432       432       432       432       432       432       432
       433       433       433       433       433       433       433       433
       433       433       433       433       433       433       433       433
       433       433       433       433       434       434       434       434
       434       434       434       434       434       434       434       434
       434       434       434       434       434       434       434       434
       435       435       435       435       435       435       435       435
       435       435       435       435       435       435       435       435
       435       435       435       435       436       436       436       436
       436       436       436       436       436       436       436       436
       436       436       436       436       436       436       436       436
       437       437       437       437       437       437       437       437
       437       437       437       437       437       437       437       437
       437       437       437       437       438       438       438       438
       438       438       438       438       438       438       438       438
       438       438       438       438       438       438       438       438
       439       439       439       439       439       439       439       439
       439       439       439       439       439       439       439       439
       439       439       439       439       440       440       440       440
       440       440       440       440       440       440       440       440
       440       440       440       440       440       440       440       440
       441       441       441       441       441       441       441       441
       441       441       441       441       441       441       441       441
       441       441       441       441       442       442       442       442
       442       442       442       442       442       442       442       442
       442       442       442       442       442       442       442       442
       443       443       443       443       443       443       443       443
       443       443       443       443       443       443       443       443
       443       443       443       443       444       444       444       444
       444       444       444       444       444       444       444       444
       444       444       444       444       444       444       444       444
       445       445       445       445       445       445       445       445
       445       445       445       445       445       445       445       445
       445       445       445       445       446       446       446       446
       446       446       446       446       446       446       446       446
       446       446       446       446       446       446       446       446
       447       447       447       447       447       447       447       447
       447       447       447       447       447       447       447       447
       447       447       447       447       448       448       448       448
       448       448       448       448       448       448       448       448
       448       448       448       448       448       448       448       448
       449       449       449       449       449       449       449       449
       449       449       449       449       449       449       449       449
       449       449       449       449       450       450       450       450
       450       450       450       450       450       450       450       450
       450       450       450       450       450       450       450       450
       451       451       451       451       451       451       451       451
       451       451       451       451       451       451       451       451
       451       451       451       451       452       452       452       452
       452       452       452       452       452       452       452       452
       452       452       452       452       452       452       452       452
       453       453       453       453       453       453       453       453
       453       453       453       453       453       453       453       453
       453       453       453       453       454       454       454       454
       454       454       454       454       454       454       454       454
       454       454       454       454       454       454       454       454
       455       455       455       455       455       455       455       455
       455       455       455       455       455       455       455       455
       455       455       455       455       456       456       456       456
       456       456       456       456       456       456       456       456
       456       456       456       456       456       456       456       456
       457       457       457       457       457       457       457       457
       457       457       457       457       457       457       457       457
       457       457       457       457       458       458       458       458
       458       458       458       458       458       458       458       458
       458       458       458       458       458       458       458       458
       459       459       459       459       459       459       459       459
       459       459       459       459       459       459       459       459
       459       459       459       459       460       460       460       460
       460       460       460       460       460       460       460       460
       460       460       460       460       460       460       460       460
       461       461       461       461       461       461       461       461
       461       461       461       461       461       461       461       461
       461       461       461       461       462       462       462       462
       462       462       462       462       462       462       462       462
       462       462       462       462       462       462       462       462
       463       463       463       463       463       463       463       463
       463       463       463       463       463       463       463       463
       463       463       463       463       464       464       464       464
       464       464       464       464       464       464       464       464
       464       464       464       464       464       464       464       464
       465       465       465       465       465       465       465       465
       465       465       465       465       465       465       465       465
       465       465       465       465       466       466       466       466
       466       466       466       466       466       466       466       466
       466       466       466       466       466       466       466       466
       467       467       467       467       467       467       467       467
       467       467       467       467       467       467       467       467
       467       467       467       467       468       468       468       468
       468       468       468       468       468       468       468       468
       468       468       468       468       468       468       468       468
       469       469       469       469       469       469       469       469
       469       469       469       469       469       469       469       469
       469       469       469       469       470       470       470       470
       470       470       470       470       470       470       470       470
       470       470       470       470       470       470       470       470
       471       471       471       471       471       471       471       471
       471       471       471       471       471       471       471       471
       471       471       471       471       472       472       472       472
       472       472       472       472       472       472       472       472
       472       472       472       472       472       472       472       472
       473       473       473       473       473       473       473       473
       473       473       473       473       473       473       473       473
       473       473       473       473       474       474       474       474
       474       474       474       474       474       474       474       474
       474       474       474       474       474       474       474       474
       475       475       475       475       475       475       475       475
       475       475       475       475       475       475       475       475
       475       475       475       475       476       476       476       476
       476       476       476       476       476       476       476       476
       476       476       476       476       476       476       476       476
       477       477       477       477       477       477       477       477
       477       477       477       477       477       477       477       477
       477       477       477       477       478       478       478       478
       478       478       478       478       478       478       478       478
       478       478       478       478       478       478       478       478
       479       479       479       479       479       479       479       479
       479       479       479       479       479       479       479       479
       479       479       479       479       480       480       480       480
       480       480       480       480       480       480       480       480
       480       480       480       480       480       480       480       480
       481       481       481       481       481       481       481       481
       481       481       481       481       481       481       481       481
       481       481       481       481       482       482       482       482
       482       482       482       482       482       482       482       482
       482       482       482       482       482       482       482       482
       483       483       483       483       483       483       483       483
       483       483       483       483       483       483       483       483
       483       483       483       483       484       484       484       484
       484       484       484       484       484       484       484       484
       484       484       484       484       484       484       484       484
       485       485       485       485       485       485       485       485
       485       485       485       485       485       485       485       485
       485       485       485       485       486       486       486       486
       486       486       486       486       486       486       486       486
       486       486       486       486       486       486       486       486
       487       487       487       487       487       487       487       487
       487       487       487       487       487       487       487       487
       487       487       487       487       488       488       488       488
       488       488       488       488       488       488       488       488
       488       488       488       488       488       488       488       488
       489       489       489       489       489       489       489       489
       489       489       489       489       489       489       489       489
       489       489       489       489       490       490       490       490
       490       490       490       490       490       490       490       490
       490       490       490       490       490       490       490       490
       491       491       491       491       491       491       491       491
       491       491       491       491       491       491       491       491
       491       491       491       491       492       492       492       492
       492       492       492       492       492       492       492       492
       492       492       492       492       492       492       492       492
       493       493       493       493       493       493       493       493
       493       493       493       493       493       493       493       493
       493       493       493       493       494       494       494       494
       494       494       494       494       494       494       494       494
       494       494       494       494       494       494       494       494
       495       495       495       495       495       495       495       495
       495       495       495       495       495       495       495       495
       495       495       495       495       496       496       496       496
       496       496       496       496       496       496       496       496
       496       496       496       496       496       496       496       496
       497       497       497       497       497       497       497       497
       497       497       497       497       497       497       497       497
       497       497       497       497       498       498       498       498
       498       498       498       498       498       498       498       498
       498       498       498       498       498       498       498       498
       499       499       499       499       499       499       499       499
       499       499       499       499       499       499       499       499
       499       499       499       499       500       500       500       500
       500       500       500       500       500       500       500       500
       500       500       500       500       500       500       500       500
       501       501       501       501       501       501       501       501
       501       501       501       501       501       501       501       501
       501       501       501       501       502       502       502       502
       502       502       502       502       502       502       502       502
       502       502       502       502       502       502       502       502
       503       503       503       503       503       503       503       503
       503       503       503       503       503       503       503       503
       503       503       503       503       504       504       504       504
       504       504       504       504       504       504       504       504
       504       504       504       504       504       504       504       504
       505       505       505       505       505       505       505       505
       505       505       505       505       505       505       505       505
       505       505       505       505       506       506       506       506
       506       506       506       506       506       506       506       506
       506       506       506       506       506       506       506       506
       507       507       507       507       507       507       507       507
       507       507       507       507       507       507       507       507
       507       507       507       507       508       508       508       508
       508       508       508       508       508       508       508       508
       508       508       508       508       508       508       508       508
       509       509       509       509       509       509       509       509
       509       509       509       509       509       509       509       509
       509       509       509       509       510       510       510       510
       510       510       510       510       510       510       510       510
       510       510       510       510       510       510       510       510
       511       511       511       511       511       511       511       511
       511       511       511       511       511       511       511       511
       511       511       511       511       512       512       512       512
       512       512       512       512       512       512       512       512
       512       512       512       512       512       512       512       512
       513       513       513       513       513       513       513       513
       513       513       513       513       513       513       513       513
       513       513       513       513       514       514       514       514
       514       514       514       514       514       514       514       514
       514       514       514       514       514       514       514       514
       515       515       515       515       515       515       515       515
       515       515       515       515       515       515       515       515
       515       515       515       515       516       516       516       516
       516       516       516       516       516       516       516       516
       516       516       516       516       516       516       516       516
       517       517       517       517       517       517       517       517
       517       517       517       517       517       517       517       517
       517       517       517       517       518       518       518       518
       518       518       518       518       518       518       518       518
       518       518       518       518       518       518       518       518
       519       519       519       519       519       519       519       519
       519       519       519       519       519       519       519       519
       519       519       519       519       520       520       520       520
       520       520       520       520       520       520       520       520
       520       520       520       520       520       520       520       520
       521       521       521       521       521       521       521       521
       521       521       521       521       521       521       521       521
       521       521       521       521       522       522       522       522
       522       522       522       522       522       522       522       522
       522       522       522       522       522       522       522       522
       523       523       523       523       523       523       523       523
       523       523       523       523       523       523       523       523
       523       523       523       523       524       524       524       524
       524       524       524       524       524       524       524       524
       524       524       524       524       524       524       524       524
       525       525       525       525       525       525       525       525
       525       525       525       525       525       525       525       525
       525       525       525       525       526       526       526       526
       526       526       526       526       526       526       526       526
       526       526       526       526       526       526       526       526
       527       527       527       527       527       527       527       527
       527       527       527       527       527       527       527       527
       527       527       527       527       528       528       528       528
       528       528       528       528       528       528       528       528
       528       528       528       528       528       528       528       528
       529       529       529       529       529       529       529       529
       529       529       529       529       529       529       529       529
       529       529       529       529       530       530       530       530
       530       530       530       530       530       530       530       530
       530       530       530       530       530       530       530       530
       531       531       531       531       531       531       531       531
       531       531       531       531       531       531       531       531
       531       531       531       531       532       532       532       532
       532       532       532       532       532       532       532       532
       532       532       532       532       532       532       532       532
       533       533       533       533       533       533       533       533
       533       533       533       533       533       533       533       533
       533       533       533       533       534       534       534       534
       534       534       534       534       534       534       534       534
       534       534       534       534       534       534       534       534
       535       535       535       535       535       535       535       535
       535       535       535       535       535       535       535       535
       535       535       535       535       536       536       536       536
       536       536       536       536       536       536       536       536
       536       536       536       536       536       536       536       536
       537       537       537       537       537       537       537       537
       537       537       537       537       537       537       537       537
       537       537       537       537       538       538       538       538
       538       538       538       538       538       538       538       538
       538       538       538       538       538       538       538       538
       539       539       539       539       539       539       539       539
       539       539       539       539       539       539       539       539
       539       539       539       539       540       540       540       540
       540       540       540       540       540       540       540       540
       540       540       540       540       540       540       540       540
       541       541       541       541       541       541       541       541
       541       541       541       541       541       541       541       541
       541       541       541       541       542       542       542       542
       542       542       542       542       542       542       542       542
       542       542       542       542       542       542       542       542
       543       543       543       543       543       543       543       543
       543       543       543       543       543       543       543       543
       543       543       543       543       544       544       544       544
       544       544       544       544       544       544       544       544
       544       544       544       544       544       544       544       544
       545       545       545       545       545       545       545       545
       545       545       545       545       545       545       545       545
       545       545       545       545       546       546       546       546
       546       546       546       546       546       546       546       546
       546       546       546       546       546       546       546       546
       547       547       547       547       547       547       547       547
       547       547       547       547       547       547       547       547
       547       547       547       547       548       548       548       548
       548       548       548       548       548       548       548       548
       548       548       548       548       548       548       548       548
       549       549       549       549       549       549       549       549
       549       549       549       549       549       549       549       549
       549       549       549       549       550       550       550       550
       550       550       550       550       550       550       550       550
       550       550       550       550       550       550       550       550
       551       551       551       551       551       551       551       551
       551       551       551       551       551       551       551       551
       551       551       551       551       552       552       552       552
       552       552       552       552       552       552       552       552
       552       552       552       552       552       552       552       552
       553       553       553       553       553       553       553       553
       553       553       553       553       553       553       553       553
       553       553       553       553       554       554       554       554
       554       554       554       554       554       554       554       554
       554       554       554       554       554       554       554       554
       555       555       555       555       555       555       555       555
       555       555       555       555       555       555       555       555
       555       555       555       555       556       556       556       556
       556       556       556       556       556       556       556       556
       556       556       556       556       556       556       556       556
       557       557       557       557       557       557       557       557
       557       557       557       557       557       557       557       557
       557       557       557       557       558       558       558       558
       558       558       558       558       558       558       558       558
       558       558       558       558       558       558       558       558
       559       559       559       559       559       559       559       559
       559       559       559       559       559       559       559       559
       559       559       559       559       560       560       560       560
       560       560       560       560       560       560       560       560
       560       560       560       560       560       560       560       560
       561       561       561       561       561       561       561       561
       561       561       561       561       561       561       561       561
       561       561       561       561       562       562       562       562
       562       562       562       562       562       562       562       562
       562       562       562       562       562       562       562       562
       563       563       563       563       563       563       563       563
       563       563       563       563       563       563       563       563
       563       563       563       563       564       564       564       564
       564       564       564       564       564       564       564       564
       564       564       564       564       564       564       564       564
       565       565       565       565       565       565       565       565
       565       565       565       565       565       565       565       565
       565       565       565       565       566       566       566       566
       566       566       566       566       566       566       566       566
       566       566       566       566       566       566       566       566
       567       567       567       567       567       567       567       567
       567       567       567       567       567       567       567       567
       567       567       567       567       568       568       568       568
       568       568       568       568       568       568       568       568
       568       568       568       568       568       568       568       568
       569       569       569       569       569       569       569       569
       569       569       569       569       569       569       569       569
       569       569       569       569       570       570       570       570
       570       570       570       570       570       570       570       570
       570       570       570       570       570       570       570       570
       571       571       571       571       571       571       571       571
       571       571       571       571       571       571       571       571
       571       571       571       571       572       572       572       572
       572       572       572       572       572       572       572       572
       572       572       572       572       572       572       572       572
       573       573       573       573       573       573       573       573
       573       573       573       573       573       573       573       573
       573       573       573       573       574       574       574       574
       574       574       574       574       574       574       574       574
       574       574       574       574       574       574       574       574
       575       575       575       575       575       575       575       575
       575       575       575       575       575       575       575       575
       575       575       575       575       576       576       576       576
       576       576       576       576       576       576       576       576
       576       576       576       576       576       576       576       576
       577       577       577       577       577       577       577       577
       577       577       577       577       577       577       577       577
       577       577       577       577       578       578       578       578
       578       578       578       578       578       578       578       578
       578       578       578       578       578       578       578       578
       579       579       579       579       579       579       579       579
       579       579       579       579       579       579       579       579
       579       579       579       579       580       580       580       580
       580       580       580       580       580       580       580       580
       580       580       580       580       580       580       580       580
       581       581       581       581       581       581       581       581
       581       581       581       581       581       581       581       581
       581       581       581       581       582       582       582       582
       582       582       582       582       582       582       582       582
       582       582       582       582       582       582       582       582
       583       583       583       583       583       583       583       583
       583       583       583       583       583       583       583       583
       583       583       583       583       584       584       584       584
       584       584       584       584       584       584       584       584
       584       584       584       584       584       584       584       584
       585       585       585       585       585       585       585       585
       585       585       585       585       585       585       585       585
       585       585       585       585       586       586       586       586
       586       586       586       586       586       586       586       586
       586       586       586       586       586       586       586       586
       587       587       587       587       587       587       587       587
       587       587       587       587       587       587       587       587
       587       587       587       587       588       588       588       588
       588       588       588       588       588       588       588       588
       588       588       588       588       588       588       588       588
       589       589       589       589       589       589       589       589
       589       589       589       589       589       589       589       589
       589       589       589       589       590       590       590       590
       590       590       590       590       590       590       590       590
       590       590       590       590       590       590       590       590
       591       591       591       591       591       591       591       591
       591       591       591       591       591       591       591       591
       591       591       591       591       592       592       592       592
       592       592       592       592       592       592       592       592
       592       592       592       592       592       592       592       592
       593       593       593       593       593       593       593       593
       593       593       593       593       593       593       593       593
       593       593       593       593       594       594       594       594
       594       594       594       594       594       594       594       594
       594       594       594       594       594       594       594       594
       595       595       595       595       595       595       595       595
       595       595       595       595       595       595       595       595
       595       595       595       595       596       596       596       596
       596       596       596       596       596       596       596       596
       596       596       596       596       596       596       596       596
       597       597       597       597       597       597       597       597
       597       597       597       597       597       597       597       597
       597       597       597       597       598       598       598       598
       598       598       598       598       598       598       598       598
       598       598       598       598       598       598       598       598
       599       599       599       599       599       599       599       599
       599       599       599       599       599       599       599       599
       599       599       599       599       600       600       600       600
       600       600       600       600       600       600       600       600
       600       600       600       600       600       600       600       600
       601       601       601       601       601       601       601       601
       601       601       601       601       601       601       601       601
       601       601       601       601       602       602       602       602
       602       602       602       602       602       602       602       602
       602       602       602       602       602       602       602       602
       603       603       603       603       603       603       603       603
       603       603       603       603       603       603       603       603
       603       603       603       603       604       604       604       604
       604       604       604       604       604       604       604       604
       604       604       604       604       604       604       604       604
       605       605       605       605       605       605       605       605
       605       605       605       605       605       605       605       605
       605       605       605       605       606       606       606       606
       606       606       606       606       606       606       606       606
       606       606       606       606       606       606       606       606
       607       607       607       607       607       607       607       607
       607       607       607       607       607       607       607       607
       607       607       607       607       608       608       608       608
       608       608       608       608       608       608       608       608
       608       608       608       608       608       608       608       608
       609       609       609       609       609       609       609       609
       609       609       609       609       609       609       609       609
       609       609       609       609       610       610       610       610
       610       610       610       610       610       610       610       610
       610       610       610       610       610       610       610       610
       611       611       611       611       611       611       611       611
       611       611       611       611       611       611       611       611
       611       611       611       611       612       612       612       612
       612       612       612       612       612       612       612       612
       612       612       612       612       612       612       612       612
       613       613       613       613       613       613       613       613
       613       613       613       613       613       613       613       613
       613       613       613       613       614       614       614       614
       614       614       614       614       614       614       614       614
       614       614       614       614       614       614       614       614
       615       615       615       615       615       615       615       615
       615       615       615       615       615       615       615       615
       615       615       615       615       616       616       616       616
       616       616       616       616       616       616       616       616
       616       616       616       616       616       616       616       616
       617       617       617       617       617       617       617       617
       617       617       617       617       617       617       617       617
       617       617       617       617       618       618       618       618
       618       618       618       618       618       618       618       618
       618       618       618       618       618       618       618       618
       619       619       619       619       619       619       619       619
       619       619       619       619       619       619       619       619
       619       619       619       619       620       620       620       620
       620       620       620       620       620       620       620       620
       620       620       620       620       620       620       620       620
       621       621       621       621       621       621       621       621
       621       621       621       621       621       621       621       621
       621       621       621       621       622       622       622       622
       622       622       622       622       622       622       622       622
       622       622       622       622       622       622       622       622
       623       623       623       623       623       623       623       623
       623       623       623       623       623       623       623       623
       623       623       623       623       624       624       624       624
       624       624       624       624       624       624       624       624
       624       624       624       624       624       624       624       624
       625       625       625       625       625       625       625       625
       625       625       625       625       625       625       625       625
       625       625       625       625       626       626       626       626
       626       626       626       626       626       626       626       626
       626       626       626       626       626       626       626       626
       627       627       627       627       627       627       627       627
       627       627       627       627       627       627       627       627
       627       627       627       627       628       628       628       628
       628       628       628       628       628       628       628       628
       628       628       628       628       628       628       628       628
       629       629       629       629       629       629       629       629
       629       629       629       629       629       629       629       629
       629       629       629       629       630       630       630       630
       630       630       630       630       630       630       630       630
       630       630       630       630       630       630       630       630
       631       631       631       631       631       631       631       631
       631       631       631       631       631       631       631       631
       631       631       631       631       632       632       632       632
       632       632       632       632       632       632       632       632
       632       632       632       632       632       632       632       632
       633       633       633       633       633       633       633       633
       633       633       633       633       633       633       633       633
       633       633       633       633       634       634       634       634
       634       634       634       634       634       634       634       634
       634       634       634       634       634       634       634       634
       635       635       635       635       635       635       635       635
       635       635       635       635       635       635       635       635
       635       635       635       635       636       636       636       636
       636       636       636       636       636       636       636       636
       636       636       636       636       636       636       636       636
       637       637       637       637       637       637       637       637
       637       637       637       637       637       637       637       637
       637       637       637       637       638       638       638       638
       638       638       638       638       638       638       638       638
       638       638       638       638       638       638       638       638
       639       639       639       639       639       639       639       639
       639       639       639       639       639       639       639       639
       639       639       639       639       640       640       640       640
       640       640       640       640       640       640       640       640
       640       640       640       640       640       640       640       640
       641       641       641       641       641       641       641       641
       641       641       641       641       641       641       641       641
       641       641       641       641       642       642       642       642
       642       642       642       642       642       642       642       642
       642       642       642       642       642       642       642       642
       643       643       643       643       643       643       643       643
       643       643       643       643       643       643       643       643
       643       643       643       643       644       644       644       644
       644       644       644       644       644       644       644       644
       644       644       644       644       644       644       644       644
       645       645       645       645       645       645       645       645
       645       645       645       645       645       645       645       645
       645       645       645       645       646       646       646       646
       646       646       646       646       646       646       646       646
       646       646       646       646       646       646       646       646
       647       647       647       647       647       647       647       647
       647       647       647       647       647       647       647       647
       647       647       647       647       648       648       648       648
       648       648       648       648       648       648       648       648
       648       648       648       648       648       648       648       648
       649       649       649       649       649       649       649       649
       649       649       649       649       649       649       649       649
       649       649       649       649       650       650       650       650
       650       650       650       650       650       650       650       650
       650       650       650       650       650       650       650       650
       651       651       651       651       651       651       651       651
       651       651       651       651       651       651       651       651
       651       651       651       651       652       652       652       652
       652       652       652       652       652       652       652       652
       652       652       652       652       652       652       652       652
       653       653       653       653       653       653       653       653
       653       653       653       653       653       653       653       653
       653       653       653       653       654       654       654       654
       654       654       654       654       654       654       654       654
       654       654       654       654       654       654       654       654
       655       655       655       655       655       655       655       655
       655       655       655       655       655       655       655       655
       655       655       655       655       656       656       656       656
       656       656       656       656       656       656       656       656
       656       656       656       656       656       656       656       656
       657       657       657       657       657       657       657       657
       657       657       657       657       657       657       657       657
       657       657       657       657       658       658       658       658
       658       658       658       658       658       658       658       658
       658       658       658       658       659       659       659       659
       659       659       659       659       659       659       659       659
       659       659       659       659       660       660       660       660
       660       660       660       660       660       660       660       660
       660       660       660       660       661       661       661       661
       661       661       661       661       661       661       661       661
       661       661       661       661       662       662       662       662
       662       662       662       662       662       662       662       662
       662       662       662       662       663       663       663       663
       663       663       663       663       663       663       663       663
       663       663       663       663       664       664       664       664
       664       664       664       664       664       664       664       664
       664       664       664       664       665       665       665       665
       665       665       665       665       665       665       665       665
       665       665       665       665       666       666       666       666
       666       666       666       666       666       666       666       666
       666       666       666       666       667       667       667       667
       667       667       667       667       667       667       667       667
       667       667       667       667       668       668       668       668
       668       668       668       668       668       668       668       668
       668       668       668       668       669       669       669       669
       669       669       669       669       669       669       669       669
       669       669       669       669       670       670       670       670
       670       670       670       670       670       670       670       670
       670       670       670       670       671       671       671       671
       671       671       671       671       671       671       671       671
       671       671       671       671       672       672       672       672
       672       672       672       672       672       672       672       672
       672       672       672       672       673       673       673       673
       673       673       673       673       673       673       673       673
       673       673       673       673       674       674       674       674
       674       674       674       674       674       674       674       674
       674       674       674       674       675       675       675       675
       675       675       675       675       675       675       675       675
       675       675       675       675       676       676       676       676
       676       676       676       676       676       676       676       676
       676       676       676       676       677       677       677       677
       677       677       677       677       677       677       677       677
       677       677       677       677       678       678       678       678
       678       678       678       678       678       678       678       678
       678       678       678       678       679       679       679       679
       679       679       679       679       679       679       679       679
       679       679       679       679       680       680       680       680
       680       680       680       680       680       680       680       680
       680       680       680       680       681       681       681       681
       681       681       681       681       681       681       681       681
       681       681       681       681       682       682       682       682
       682       682       682       682       682       682       682       682
       682       682       682       682       683       683       683       683
       683       683       683       683       683       683       683       683
       683       683       683       683       684       684       684       684
       684       684       684       684       684       684       684       684
       684       684       684       684       685       685       685       685
       685       685       685       685       685       685       685       685
       685       685       685       685       686       686       686       686
       686       686       686       686       686       686       686       686
       686       686       686       686       687       687       687       687
       687       687       687       687       687       687       687       687
       687       687       687       687       688       688       688       688
       688       688       688       688       688       688       688       688
       688       688       688       688       689       689       689       689
       689       689       689       689       689       689       689       689
       689       689       689       689       690       690       690       690
       690       690       690       690       690       690       690       690
       690       690       690       690       691       691       691       691
       691       691       691       691       691       691       691       691
       691       691       691       691       692       692       692       692
       692       692       692       692       692       692       692       692
       692       692       692       692       693       693       693       693
       693       693       693       693       693       693       693       693
       693       693       693       693       694       694       694       694
       694       694       694       694       694       694       694       694
       694       694       694       694       695       695       695       695
       695       695       695       695       695       695       695       695
       695       695       695       695       696       696       696       696
       696       696       696       696       696       696       696       696
       696       696       696       696       697       697       697       697
       697       697       697       697       697       697       697       697
       697       697       697       697       698       698       698       698
       698       698       698       698       698       698       698       698
       698       698       698       698       699       699       699       699
       699       699       699       699       699       699       699       699
       699       699       699       699       700       700       700       700
       700       700       700       700       700       700       700       700
       700       700       700       700       701       701       701       701
       701       701       701       701       701       701       701       701
       701       701       701       701       702       702       702       702
       702       702       702       702       702       702       702       702
       702       702       702       702       703       703       703       703
       703       703       703       703       703       703       703       703
       703       703       703       703       704       704       704       704
       704       704       704       704       704       704       704       704
       704       704       704       704       705       705       705       705
       705       705       705       705       705       705       705       705
       705       705       705       705       706       706       706       706
       706       706       706       706       706       706       706       706
       706       706       706       706       707       707       707       707
       707       707       707       707       707       707       707       707
       707       707       707       707       708       708       708       708
       708       708       708       708       708       708       708       708
       708       708       708       708       709       709       709       709
       709       709       709       709       709       709       709       709
       709       709       709       709       710       710       710       710
       710       710       710       710       710       710       710       710
       710       710       710       710       711       711       711       711
       711       711       711       711       711       711       711       711
       711       711       711       711       712       712       712       712
       712       712       712       712       712       712       712       712
       712       712       712       712       713       713       713       713
       713       713       713       713       713       713       713       713
       713       713       713       713       714       714       714       714
       714       714       714       714       714       714       714       714
       714       714       714       714       715       715       715       715
       715       715       715       715       715       715       715       715
       715       715       715       715       716       716       716       716
       716       716       716       716       716       716       716       716
       716       716       716       716       717       717       717       717
       717       717       717       717       717       717       717       717
       717       717       717       717       718       718       718       718
       718       718       718       718       718       718       718       718
       718       718       718       718       719       719       719       719
       719       719       719       719       719       719       719       719
       719       719       719       719       720       720       720       720
       720       720       720       720       720       720       720       720
       720       720       720       720       721       721       721       721
       721       721       721       721       721       721       721       721
       721       721       721       721       722       722       722       722
       722       722       722       722       722       722       722       722
       722       722       722       722       723       723       723       723
       723       723       723       723       723       723       723       723
       723       723       723       723       724       724       724       724
       724       724       724       724       724       724       724       724
       724       724       724       724       725       725       725       725
       725       725       725       725       725       725       725       725
       725       725       725       725       726       726       726       726
       726       726       726       726       726       726       726       726
       726       726       726       726       727       727       727       727
       727       727       727       727       727       727       727       727
       727       727       727       727       728       728       728       728
       728       728       728       728       728       728       728       728
       728       728       728       728       729       729       729       729
       729       729       729       729       729       729       729       729
       729       729       729       729       730       730       730       730
       730       730       730       730       730       730       730       730
       730       730       730       730       731       731       731       731
       731       731       731       731       731       731       731       731
       731       731       731       731       732       732       732       732
       732       732       732       732       732       732       732       732
       732       732       732       732       733       733       733       733
       733       733       733       733       733       733       733       733
       733       733       733       733       734       734       734       734
       734       734       734       734       734       734       734       734
       734       734       734       734       735       735       735       735
       735       735       735       735       735       735       735       735
       735       735       735       735       736       736       736       736
       736       736       736       736       736       736       736       736
       736       736       736       736       737       737       737       737
       737       737       737       737       737       737       737       737
       737       737       737       737       738       738       738       738
       738       738       738       738       738       738       738       738
       738       738       738       738       739       739       739       739
       739       739       739       739       739       739       739       739
       739       739       739       739       740       740       740       740
       740       740       740       740       740       740       740       740
       740       740       740       740       741       741       741       741
       741       741       741       741       741       741       741       741
       741       741       741       741       742       742       742       742
       742       742       742       742       742       742       742       742
       742       742       742       742       743       743       743       743
       743       743       743       743       743       743       743       743
       743       743       743       743       744       744       744       744
       744       744       744       744       744       744       744       744
       744       744       744       744       745       745       745       745
       745       745       745       745       745       745       745       745
       745       745       745       745       746       746       746       746
       746       746       746       746       746       746       746       746
       746       746       746       746       747       747       747       747
       747       747       747       747       747       747       747       747
       747       747       747       747       748       748       748       748
       748       748       748       748       748       748       748       748
       748       748       748       748       749       749       749       749
       749       749       749       749       749       749       749       749
       749       749       749       749       750       750       750       750
       750       750       750       750       750       750       750       750
       750       750       750       750       751       751       751       751
       751       751       751       751       751       751       751       751
       751       751       751       751       752       752       752       752
       752       752       752       752       752       752       752       752
       752       752       752       752       753       753       753       753
       753       753       753       753       753       753       753       753
       753       753       753       753       754       754       754       754
       754       754       754       754       754       754       754       754
       754       754       754       754       755       755       755       755
       755       755       755       755       755       755       755       755
       755       755       755       755       756       756       756       756
       756       756       756       756       756       756       756       756
       756       756       756       756       757       757       757       757
       757       757       757       757       757       757       757       757
       757       757       757       757       758       758       758       758
       758       758       758       758       758       758       758       758
       758       758       758       758       759       759       759       759
       759       759       759       759       759       759       759       759
       759       759       759       759       760       760       760       760
       760       760       760       760       760       760       760       760
       760       760       760       760       761       761       761       761
       761       761       761       761       761       761       761       761
       761       761       761       761       762       762       762       762
       762       762       762       762       762       762       762       762
       762       762       762       762       763       763       763       763
       763       763       763       763       763       763       763       763
       763       763       763       763       764       764       764       764
       764       764       764       764       764       764       764       764
       764       764       764       764       765       765       765       765
       765       765       765       765       765       765       765       765
       765       765       765       765       766       766       766       766
       766       766       766       766       766       766       766       766
       766       766       766       766       767       767       767       767
       767       767       767       767       767       767       767       767
       767       767       767       767       768       768       768       768
       768       768       768       768       768       768       768       768
       768       768       768       768       769       769       769       769
       769       769       769       769       769       769       769       769
       769       769       769       769       770       770       770       770
       770       770       770       770       770       770       770       770
       770       770       770       770       771       771       771       771
       771       771       771       771       771       771       771       771
       771       771       771       771       772       772       772       772
       772       772       772       772       772       772       772       772
       772       772       772       772       773       773       773       773
       773       773       773       773       773       773       773       773
       773       773       773       773       774       774       774       774
       774       774       774       774       774       774       774       774
       774       774       774       774       775       775       775       775
       775       775       775       775       775       775       775       775
       775       775       775       775       776       776       776       776
       776       776       776       776       776       776       776       776
       776       776       776       776       777       777       777       777
       777       777       777       777       777       777       777       777
       777       777       777       777       778       778       778       778
       778       778       778       778       778       778       778       778
       778       778       778       778       779       779       779       779
       779       779       779       779       779       779       779       779
       779       779       779       779       780       780       780       780
       780       780       780       780       780       780       780       780
       780       780       780       780       781       781       781       781
       781       781       781       781       781       781       781       781
       781       781       781       781       782       782       782       782
       782       782       782       782       782       782       782       782
       782       782       782       782       783       783       783       783
       783       783       783       783       783       783       783       783
       783       783       783       783       784       784       784       784
       784       784       784       784       784       784       784       784
       784       784       784       784       785       785       785       785
       785       785       785       785       785       785       785       785
       785       785       785       785       786       786       786       786
       786       786       786       786       786       786       786       786
       786       786       786       786       787       787       787       787
       787       787       787       787       787       787       787       787
       787       787       787       787       788       788       788       788
       788       788       788       788       788       788       788       788
       788       788       788       788       789       789       789       789
       789       789       789       789       789       789       789       789
       789       789       789       789       790       790       790       790
       790       790       790       790       790       790       790       790
       790       790       790       790       791       791       791       791
       791       791       791       791       791       791       791       791
       791       791       791       791       792       792       792       792
       792       792       792       792       792       792       792       792
       792       792       792       792       793       793       793       793
       793       793       793       793       793       793       793       793
       793       793       793       793       794       794       794       794
       794       794       794       794       794       794       794       794
       794       794       794       794       795       795       795       795
       795       795       795       795       795       795       795       795
       795       795       795       795       796       796       796       796
       796       796       796       796       796       796       796       796
       796       796       796       796       797       797       797       797
       797       797       797       797       797       797       797       797
       797       797       797       797       798       798       798       798
       798       798       798       798       798       798       798       798
       798       798       798       798       799       799       799       799
       799       799       799       799       799       799       799       799
       799       799       799       799       800       800       800       800
       800       800       800       800       800       800       800       800
       800       800       800       800       801       801       801       801
       801       801       801       801       801       801       801       801
       801       801       801       801       802       802       802       802
       802       802       802       802       802       802       802       802
       802       802       802       802       803       803       803       803
       803       803       803       803       803       803       803       803
       803       803       803       803       804       804       804       804
       804       804       804       804       804       804       804       804
       804       804       804       804       805       805       805       805
       805       805       805       805       805       805       805       805
       805       805       805       805       806       806       806       806
       806       806       806       806       806       806       806       806
       806       806       806       806       807       807       807       807
       807       807       807       807       807       807       807       807
       807       807       807       807       808       808       808       808
       808       808       808       808       808       808       808       808
       808       808       808       808       809       809       809       809
       809       809       809       809       809       809       809       809
       809       809       809       809       810       810       810       810
       810       810       810       810       810       810       810       810
       810       810       810       810       811       811       811       811
       811       811       811       811       811       811       811       811
       811       811       811       811       812       812       812       812
       812       812       812       812       812       812       812       812
       812       812       812       812       813       813       813       813
       813       813       813       813       813       813       813       813
       813       813       813       813       814       814       814       814
       814       814       814       814       814       814       814       814
       814       814       814       814       815       815       815       815
       815       815       815       815       815       815       815       815
       815       815       815       815       816       816       816       816
       816       816       816       816       816       816       816       816
       816       816       816       816       817       817       817       817
       817       817       817       817       817       817       817       817
       817       817       817       817       818       818       818       818
       818       818       818       818       818       818       818       818
       818       818       818       818       819       819       819       819
       819       819       819       819       819       819       819       819
       819       819       819       819       820       820       820       820
       820       820       820       820       820       820       820       820
       820       820       820       820       821       821       821       821
       821       821       821       821       821       821       821       821
       821       821       821       821       822       822       822       822
       822       822       822       822       822       822       822       822
       822       822       822       822       823       823       823       823
       823       823       823       823       823       823       823       823
       823       823       823       823       824       824       824       824
       824       824       824       824       824       824       824       824
       824       824       824       824       825       825       825       825
       825       825       825       825       825       825       825       825
       825       825       825       825       826       826       826       826
       826       826       826       826       826       826       826       826
       826       826       826       826       827       827       827       827
       827       827       827       827       827       827       827       827
       827       827       827       827       828       828       828       828
       828       828       828       828       828       828       828       828
       828       828       828       828       829       829       829       829
       829       829       829       829       829       829       829       829
       829       829       829       829       830       830       830       830
       830       830       830       830       830       830       830       830
       830       830       830       830       831       831       831       831
       831       831       831       831       831       831       831       831
       831       831       831       831       832       832       832       832
       832       832       832       832       832       832       832       832
       832       832       832       832       833       833       833       833
       833       833       833       833       833       833       833       833
       833       833       833       833       834       834       834       834
       834       834       834       834       834       834       834       834
       834       834       834       834       835       835       835       835
       835       835       835       835       835       835       835       835
       835       835       835       835       836       836       836       836
       836       836       836       836       836       836       836       836
       836       836       836       836       837       837       837       837
       837       837       837       837       837       837       837       837
       837       837       837       837       838       838       838       838
       838       838       838       838       838       838       838       838
       838       838       838       838       839       839       839       839
       839       839       839       839       839       839       839       839
       839       839       839       839       840       840       840       840
       840       840       840       840       840       840       840       840
       840       840       840       840       841       841       841       841
       841       841       841       841       841       841       841       841
       841       841       841       841       842       842       842       842
       842       842       842       842       842       842       842       842
       842       842       842       842       843       843       843       843
       843       843       843       843       843       843       843       843
       843       843       843       843       844       844       844       844
       844       844       844       844       844       844       844       844
       844       844       844       844       845       845       845       845
       845       845       845       845       845       845       845       845
       845       845       845       845       846       846       846       846
       846       846       846       846       846       846       846       846
       846       846       846       846       847       847       847       847
       847       847       847       847       847       847       847       847
       847       847       847       847       848       848       848       848
       848       848       848       848       848       848       848       848
       848       848       848       848       849       849       849       849
       849       849       849       849       849       849       849       849
       849       849       849       849       850       850       850       850
       850       850       850       850       850       850       850       850
       850       850       850       850       851       851       851       851
       851       851       851       851       851       851       851       851
       851       851       851       851       852       852       852       852
       852       852       852       852       852       852       852       852
       852       852       852       852       853       853       853       853
       853       853       853       853       853       853       853       853
       853       853       853       853       854       854       854       854
       854       854       854       854       854       854       854       854
       854       854       854       854       855       855       855       855
       855       855       855       855       855       855       855       855
       855       855       855       855       856       856       856       856
       856       856       856       856       856       856       856       856
       856       856       856       856       857       857       857       857
       857       857       857       857       857       857       857       857
       857       857       857       857       858       858       858       858
       858       858       858       858       858       858       858       858
       858       858       858       858       859       859       859       859
       859       859       859       859       859       859       859       859
       859       859       859       859       860       860       860       860
       860       860       860       860       860       860       860       860
       860       860       860       860       861       861       861       861
       861       861       861       861       861       861       861       861
       861       861       861       861       862       862       862       862
       862       862       862       862       862       862       862       862
       862       862       862       862       863       863       863       863
       863       863       863       863       863       863       863       863
       863       863       863       863       864       864       864       864
       864       864       864       864       864       864       864       864
       864       864       864       864       865       865       865       865
       865       865       865       865       865       865       865       865
       865       865       865       865       866       866       866       866
       866       866       866       866       866       866       866       866
       866       866       866       866       867       867       867       867
       867       867       867       867       867       867       867       867
       867       867       867       867       868       868       868       868
       868       868       868       868       868       868       868       868
       868       868       868       868       869       869       869       869
       869       869       869       869       869       869       869       869
       869       869       869       869       870       870       870       870
       870       870       870       870       870       870       870       870
       870       870       870       870       871       871       871       871
       871       871       871       871       871       871       871       871
       871       871       871       871       872       872       872       872
       872       872       872       872       872       872       872       872
       872       872       872       872       873       873       873       873
       873       873       873       873       873       873       873       873
       873       873       873       873       874       874       874       874
       874       874       874       874       874       874       874       874
       874       874       874       874       875       875       875       875
       875       875       875       875       875       875       875       875
       875       875       875       875       876       876       876       876
       876       876       876       876       876       876       876       876
       876       876       876       876       877       877       877       877
       877       877       877       877       877       877       877       877
       877       877       877       877       878       878       878       878
       878       878       878       878       878       878       878       878
       878       878       878       878       879       879       879       879
       879       879       879       879       879       879       879       879
       879       879       879       879       880       880       880       880
       880       880       880       880       880       880       880       880
       880       880       880       880       881       881       881       881
       881       881       881       881       881       881       881       881
       881       881       881       881       882       882       882       882
       882       882       882       882       882       882       882       882
       882       882       882       882       883       883       883       883
       883       883       883       883       883       883       883       883
       883       883       883       883       884       884       884       884
       884       884       884       884       884       884       884       884
       884       884       884       884       885       885       885       885
       885       885       885       885       885       885       885       885
       885       885       885       885       886       886       886       886
       886       886       886       886       886       886       886       886
       886       886       886       886       887       887       887       887
       887       887       887       887       887       887       887       887
       887       887       887       887       888       888       888       888
       888       888       888       888       888       888       888       888
       888       888       888       888       889       889       889       889
       889       889       889       889       889       889       889       889
       889       889       889       889       890       890       890       890
       890       890       890       890       890       890       890       890
       890       890       890       890       891       891       891       891
       891       891       891       891       891       891       891       891
       891       891       891       891       892       892       892       892
       892       892       892       892       892       892       892       892
       892       892       892       892       893       893       893       893
       893       893       893       893       893       893       893       893
       893       893       893       893       894       894       894       894
       894       894       894       894       894       894       894       894
       894       894       894       894       895       895       895       895
       895       895       895       895       895       895       895       895
       895       895       895       895       896       896       896       896
       896       896       896       896       896       896       896       896
       896       896       896       896       897       897       897       897
       897       897       897       897       897       897       897       897
       897       897       897       897       898       898       898       898
       898       898       898       898       898       898       898       898
       898       898       898       898       899       899       899       899
       899       899       899       899       899       899       899       899
       899       899       899       899       900       900       900       900
       900       900       900       900       900       900       900       900
       900       900       900       900       901       901       901       901
       901       901       901       901       901       901       901       901
       901       901       901       901       902       902       902       902
       902       902       902       902       902       902       902       902
       902       902       902       902       903       903       903       903
       903       903       903       903       903       903       903       903
       903       903       903       903       904       904       904       904
       904       904       904       904       904       904       904       904
       904       904       904       904       905       905       905       905
       905       905       905       905       905       905       905       905
       905       905       905       905       906       906       906       906
       906       906       906       906       906       906       906       906
       906       906       906       906       907       907       907       907
       907       907       907       907       907       907       907       907
       907       907       907       907       908       908       908       908
       908       908       908       908       908       908       908       908
       908       908       908       908       909       909       909       909
       909       909       909       909       909       909       909       909
       909       909       909       909       910       910       910       910
       910       910       910       910       910       910       910       910
       910       910       910       910       911       911       911       911
       911       911       911       911       911       911       911       911
       911       911       911       911       912       912       912       912
       912       912       912       912       912       912       912       912
       912       912       912       912       913       913       913       913
       913       913       913       913       913       913       913       913
       913       913       913       913       914       914       914       914
       914       914       914       914       914       914       914       914
       914       914       914       914       915       915       915       915
       915       915       915       915       915       915       915       915
       915       915       915       915       916       916       916       916
       916       916       916       916       916       916       916       916
       916       916       916       916       917       917       917       917
       917       917       917       917       917       917       917       917
       917       917       917       917       918       918       918       918
       918       918       918       918       918       918       918       918
       918       918       918       918       919       919       919       919
       919       919       919       919       919       919       919       919
       919       919       919       919       920       920       920       920
       920       920       920       920       920       920       920       920
       920       920       920       920       921       921       921       921
       921       921       921       921       921       921       921       921
       921       921       921       921       922       922       922       922
       922       922       922       922       922       922       922       922
       922       922       922       922       923       923       923       923
       923       923       923       923       923       923       923       923
       923       923       923       923       924       924       924       924
       924       924       924       924       924       924       924       924
       924       924       924       924       925       925       925       925
       925       925       925       925       925       925       925       925
       925       925       925       925       926       926       926       926
       926       926       926       926       926       926       926       926
       926       926       926       926       927       927       927       927
       927       927       927       927       927       927       927       927
       927       927       927       927       928       928       928       928
       928       928       928       928       928       928       928       928
       928       928       928       928       929       929       929       929
       929       929       929       929       929       929       929       929
       929       929       929       929       930       930       930       930
       930       930       930       930       930       930       930       930
       930       930       930       930       931       931       931       931
       931       931       931       931       931       931       931       931
       931       931       931       931       932       932       932       932
       932       932       932       932       932       932       932       932
       932       932       932       932       933       933       933       933
       933       933       933       933       933       933       933       933
       933       933       933       933       934       934       934       934
       934       934       934       934       934       934       934       934
       934       934       934       934       935       935       935       935
       935       935       935       935       935       935       935       935
       935       935       935       935       936       936       936       936
       936       936       936       936       936       936       936       936
       936       936       936       936       937       937       937       937
       937       937       937       937       937       937       937       937
       937       937       937       937       938       938       938       938
       938       938       938       938       938       938       938       938
       938       938       938       938       939       939       939       939
       939       939       939       939       939       939       939       939
       939       939       939       939       940       940       940       940
       940       940       940       940       940       940       940       940
       940       940       940       940       941       941       941       941
       941       941       941       941       941       941       941       941
       941       941       941       941       942       942       942       942
       942       942       942       942       942       942       942       942
       942       942       942       942       943       943       943       943
       943       943       943       943       943       943       943       943
       943       943       943       943       944       944       944       944
       944       944       944       944       944       944       944       944
       944       944       944       944       945       945       945       945
       945       945       945       945       945       945       945       945
       945       945       945       945       946       946       946       946
       946       946       946       946       946       946       946       946
       946       946       946       946       947       947       947       947
       947       947       947       947       947       947       947       947
       947       947       947       947       948       948       948       948
       948       948       948       948       948       948       948       948
       948       948       948       948       949       949       949       949
       949       949       949       949       949       949       949       949
       949       949       949       949       950       950       950       950
       950       950       950       950       950       950       950       950
       950       950       950       950       951       951       951       951
       951       951       951       951       951       951       951       951
       951       951       951       951       952       952       952       952
       952       952       952       952       952       952       952       952
       952       952       952       952       953       953       953       953
       953       953       953       953       953       953       953       953
       953       953       953       953       954       954       954       954
       954       954       954       954       954       954       954       954
       954       954       954       954       955       955       955       955
       955       955       955       955       955       955       955       955
       955       955       955       955       956       956       956       956
       956       956       956       956       956       956       956       956
       956       956       956       956       957       957       957       957
       957       957       957       957       957       957       957       957
       957       957       957       957       958       958       958       958
       958       958       958       958       958       958       958       958
       958       958       958       958       959       959       959       959
       959       959       959       959       959       959       959       959
       959       959       959       959       960       960       960       960
       960       960       960       960       960       960       960       960
       960       960       960       960       961       961       961       961
       961       961       961       961       961       961       961       961
       961       961       961       961       962       962       962       962
       962       962       962       962       962       962       962       962
       962       962       962       962       963       963       963       963
       963       963       963       963       963       963       963       963
       963       963       963       963       964       964       964       964
       964       964       964       964       964       964       964       964
       964       964       964       964       965       965       965       965
       965       965       965       965       965       965       965       965
       965       965       965       965       966       966       966       966
       966       966       966       966       966       966       966       966
       966       966       966       966       967       967       967       967
       967       967       967       967       967       967       967       967
       967       967       967       967       968       968       968       968
       968       968       968       968       968       968       968       968
       968       968       968       968       969       969       969       969
       969       969       969       969       969       969       969       969
       969       969       969       969       970       970       970       970
       970       970       970       970       970       970       970       970
       970       970       970       970       971       971       971       971
       971       971       971       971       971       971       971       971
       971       971       971       971       972       972       972       972
       972       972       972       972       972       972       972       972
       972       972       972       972       973       973       973       973
       973       973       973       973       973       973       973       973
       973       973       973       973       974       974       974       974
       974       974       974       974       974       974       974       974
       974       974       974       974       975       975       975       975
       975       975       975       975       975       975       975       975
       975       975       975       975       976       976       976       976
       976       976       976       976       976       976       976       976
       976       976       976       976       977       977       977       977
       977       977       977       977       977       977       977       977
       977       977       977       977       978       978       978       978
       978       978       978       978       978       978       978       978
       978       978       978       978       979       979       979       979
       979       979       979       979       979       979       979       979
       979       979       979       979       980       980       980       980
       980       980       980       980       980       980       980       980
       980       980       980       980       981       981       981       981
       981       981       981       981       981       981       981       981
       981       981       981       981       982       982       982       982
       982       982       982       982       982       982       982       982
       982       982       982       982       983       983       983       983
       983       983       983       983       983       983       983       983
       983       983       983       983       984       984       984       984
       984       984       984       984       984       984       984       984
       984       984       984       984       985       985       985       985
       985       985       985       985       985       985       985       985
       985       985       985       985       986       986       986       986
       986       986       986       986       986       986       986       986
       986       986       986       986       987       987       987       987
       987       987       987       987       987       987       987       987
       987       987       987       987       988       988       988       988
       988       988       988       988       988       988       988       988
       988       988       988       988       989       989       989       989
       989       989       989       989       989       989       989       989
       989       989       989       989       990       990       990       990
       990       990       990       990       990       990       990       990
       990       990       990       990       991       991       991       991
       991       991       991       991       991       991       991       991
       991       991       991       991       992       992       992       992
       992       992       992       992       992       992       992       992
       992       992       992       992       993       993       993       993
       993       993       993       993       993       993       993       993
       993       993       993       993       994       994       994       994
       994       994       994       994       994       994       994       994
       994       994       994       994       995       995       995       995
       995       995       995       995       995       995       995       995
       995       995       995       995       996       996       996       996
       996       996       996       996       996       996       996       996
       996       996       996       996       997       997       997       997
       997       997       997       997       997       997       997       997
       997       997       997       997       998       998       998       998
       998       998       998       998       998       998       998       998
       998       998       998       998       999       999       999       999
       999       999       999       999       999       999       999       999
       999       999       999       999      1000      1000      1000      1000
      1000      1000      1000      1000      1000      1000      1000      1000
      1000      1000      1000      1000      1001      1001      1001      1001
      1001      1001      1001      1001      1001      1001      1001      1001
      1001      1001      1001      1001      1002      1002      1002      1002
      1002      1002      1002      1002      1002      1002      1002      1002
      1002      1002      1002      1002      1003      1003      1003      1003
      1003      1003      1003      1003      1003      1003      1003      1003
      1003      1003      1003      1003      1004      1004      1004      1004
      1004      1004      1004      1004      1004      1004      1004      1004
      1004      1004      1004      1004      1005      1005      1005      1005
      1005      1005      1005      1005      1005      1005      1005      1005
      1005      1005      1005      1005      1006      1006      1006      1006
      1006      1006      1006      1006      1006      1006      1006      1006
      1006      1006      1006      1006      1007      1007      1007      1007
      1007      1007      1007      1007      1007      1007      1007      1007
      1007      1007      1007      1007      1008      1008      1008      1008
      1008      1008      1008      1008      1008      1008      1008      1008
      1008      1008      1008      1008      1008      1008      1008      1008
      1008      1008      1008      1008      1008      1008      1008      1008
      1008      1008      1008      1008      1008      1008      1008      1008
      1008      1008      1008      1008      1008      1008      1008      1008
      1008      1008      1008      1008      1008      1008      1008      1008
      1008      1008      1008      1008      1008      1008      1008      1008
      1008      1008      1008      1008      1008      1008      1008      1008
      1008      1008      1008      1008      1008      1008      1008      1008
      1008      1008      1008      1008      1008      1008      1008      1008
      1008      1009      1009      1009      1009      1009      1009      1009
      1009      1009      1009      1009      1009      1009      1009      1009
      1009      1009      1009      1009      1009      1009      1009      1009
      1009      1009      1009      1009      1009      1009      1009      1009
      1009      1009      1009      1009      1009      1009      1009      1009
      1009      1009      1009      1009      1009      1009      1009      1009
      1009      1009      1009      1009      1009      1009      1009      1009
      1009      1009      1009      1009      1009      1009      1009      1009
      1009      1009      1009      1009      1009      1009      1009      1009
      1009      1009      1009      1009      1009      1009      1009      1009
      1009      1009      1009      1009      1009      1009

      2547     10188 !NUMLP NUMLPH
         3         1   F  -0.30000     179.99000     179.99000
         3         5   F  -0.30000     179.99000     179.99000
         3         9   F  -0.30000     179.99000     179.99000
         3        13   F  -0.30000     179.99000     179.99000
         3        17   F  -0.30000     179.99000     179.99000
         3        21   F  -0.30000     179.99000     179.99000
         3        25   F  -0.30000     179.99000     179.99000
         3        29   F  -0.30000     179.99000     179.99000
         3        33   F  -0.30000     179.99000     179.99000
         3        37   F  -0.30000     179.99000     179.99000
         3        41   F  -0.30000     179.99000     179.99000
         3        45   F  -0.30000     179.99000     179.99000
         3        49   F  -0.30000     179.99000     179.99000
         3        53   F  -0.30000     179.99000     179.99000
         3        57   F  -0.30000     179.99000     179.99000
         3        61   F  -0.30000     179.99000     179.99000
         3        65   F  -0.30000     179.99000     179.99000
         3        69   F  -0.30000     179.99000     179.99000
         3        73   F  -0.30000     179.99000     179.99000
         3        77   F  -0.30000     179.99000     179.99000
         3        81   F  -0.30000     179.99000     179.99000
         3        85   F  -0.30000     179.99000     179.99000
         3        89   F  -0.30000     179.99000     179.99000
         3        93   F  -0.30000     179.99000     179.99000
         3        97   F  -0.30000     179.99000     179.99000
         3       101   F  -0.30000     179.99000     179.99000
         3       105   F  -0.30000     179.99000     179.99000
         3       109   F  -0.30000     179.99000     179.99000
         3       113   F  -0.30000     179.99000     179.99000
         3       117   F  -0.30000     179.99000     179.99000
         3       121   F  -0.30000     179.99000     179.99000
         3       125   F  -0.30000     179.99000     179.99000
         3       129   F  -0.30000     179.99000     179.99000
         3       133   F  -0.30000     179.99000     179.99000
         3       137   F  -0.30000     179.99000     179.99000
         3       141   F  -0.30000     179.99000     179.99000
         3       145   F  -0.30000     179.99000     179.99000
         3       149   F  -0.30000     179.99000     179.99000
         3       153   F  -0.30000     179.99000     179.99000
         3       157   F  -0.30000     179.99000     179.99000
         3       161   F  -0.30000     179.99000     179.99000
         3       165   F  -0.30000     179.99000     179.99000
         3       169   F  -0.30000     179.99000     179.99000
         3       173   F  -0.30000     179.99000     179.99000
         3       177   F  -0.30000     179.99000     179.99000
         3       181   F  -0.30000     179.99000     179.99000
         3       185   F  -0.30000     179.99000     179.99000
         3       189   F  -0.30000     179.99000     179.99000
         3       193   F  -0.30000     179.99000     179.99000
         3       197   F  -0.30000     179.99000     179.99000
         3       201   F  -0.30000     179.99000     179.99000
         3       205   F  -0.30000     179.99000     179.99000
         3       209   F  -0.30000     179.99000     179.99000
         3       213   F  -0.30000     179.99000     179.99000
         3       217   F  -0.30000     179.99000     179.99000
         3       221   F  -0.30000     179.99000     179.99000
         3       225   F  -0.30000     179.99000     179.99000
         3       229   F  -0.30000     179.99000     179.99000
         3       233   F  -0.30000     179.99000     179.99000
         3       237   F  -0.30000     179.99000     179.99000
         3       241   F  -0.30000     179.99000     179.99000
         3       245   F  -0.30000     179.99000     179.99000
         3       249   F  -0.30000     179.99000     179.99000
         3       253   F  -0.30000     179.99000     179.99000
         3       257   F  -0.30000     179.99000     179.99000
         3       261   F  -0.30000     179.99000     179.99000
         3       265   F  -0.30000     179.99000     179.99000
         3       269   F  -0.30000     179.99000     179.99000
         3       273   F  -0.30000     179.99000     179.99000
         3       277   F  -0.30000     179.99000     179.99000
         3       281   F  -0.30000     179.99000     179.99000
         3       285   F  -0.30000     179.99000     179.99000
         3       289   F  -0.30000     179.99000     179.99000
         3       293   F  -0.30000     179.99000     179.99000
         3       297   F  -0.30000     179.99000     179.99000
         3       301   F  -0.30000     179.99000     179.99000
         3       305   F  -0.30000     179.99000     179.99000
         3       309   F  -0.30000     179.99000     179.99000
         3       313   F  -0.30000     179.99000     179.99000
         3       317   F  -0.30000     179.99000     179.99000
         3       321   F  -0.30000     179.99000     179.99000
         3       325   F  -0.30000     179.99000     179.99000
         3       329   F  -0.30000     179.99000     179.99000
         3       333   F  -0.30000     179.99000     179.99000
         3       337   F  -0.30000     179.99000     179.99000
         3       341   F  -0.30000     179.99000     179.99000
         3       345   F  -0.30000     179.99000     179.99000
         3       349   F  -0.30000     179.99000     179.99000
         3       353   F  -0.30000     179.99000     179.99000
         3       357   F  -0.30000     179.99000     179.99000
         3       361   F  -0.30000     179.99000     179.99000
         3       365   F  -0.30000     179.99000     179.99000
         3       369   F  -0.30000     179.99000     179.99000
         3       373   F  -0.30000     179.99000     179.99000
         3       377   F  -0.30000     179.99000     179.99000
         3       381   F  -0.30000     179.99000     179.99000
         3       385   F  -0.30000     179.99000     179.99000
         3       389   F  -0.30000     179.99000     179.99000
         3       393   F  -0.30000     179.99000     179.99000
         3       397   F  -0.30000     179.99000     179.99000
         3       401   F  -0.30000     179.99000     179.99000
         3       405   F  -0.30000     179.99000     179.99000
         3       409   F  -0.30000     179.99000     179.99000
         3       413   F  -0.30000     179.99000     179.99000
         3       417   F  -0.30000     179.99000     179.99000
         3       421   F  -0.30000     179.99000     179.99000
         3       425   F  -0.30000     179.99000     179.99000
         3       429   F  -0.30000     179.99000     179.99000
         3       433   F  -0.30000     179.99000     179.99000
         3       437   F  -0.30000     179.99000     179.99000
         3       441   F  -0.30000     179.99000     179.99000
         3       445   F  -0.30000     179.99000     179.99000
         3       449   F  -0.30000     179.99000     179.99000
         3       453   F  -0.30000     179.99000     179.99000
         3       457   F  -0.30000     179.99000     179.99000
         3       461   F  -0.30000     179.99000     179.99000
         3       465   F  -0.30000     179.99000     179.99000
         3       469   F  -0.30000     179.99000     179.99000
         3       473   F  -0.30000     179.99000     179.99000
         3       477   F  -0.30000     179.99000     179.99000
         3       481   F  -0.30000     179.99000     179.99000
         3       485   F  -0.30000     179.99000     179.99000
         3       489   F  -0.30000     179.99000     179.99000
         3       493   F  -0.30000     179.99000     179.99000
         3       497   F  -0.30000     179.99000     179.99000
         3       501   F  -0.30000     179.99000     179.99000
         3       505   F  -0.30000     179.99000     179.99000
         3       509   F  -0.30000     179.99000     179.99000
         3       513   F  -0.30000     179.99000     179.99000
         3       517   F  -0.30000     179.99000     179.99000
         3       521   F  -0.30000     179.99000     179.99000
         3       525   F  -0.30000     179.99000     179.99000
         3       529   F  -0.30000     179.99000     179.99000
         3       533   F  -0.30000     179.99000     179.99000
         3       537   F  -0.30000     179.99000     179.99000
         3       541   F  -0.30000     179.99000     179.99000
         3       545   F  -0.30000     179.99000     179.99000
         3       549   F  -0.30000     179.99000     179.99000
         3       553   F  -0.30000     179.99000     179.99000
         3       557   F  -0.30000     179.99000     179.99000
         3       561   F  -0.30000     179.99000     179.99000
         3       565   F  -0.30000     179.99000     179.99000
         3       569   F  -0.30000     179.99000     179.99000
         3       573   F  -0.30000     179.99000     179.99000
         3       577   F  -0.30000     179.99000     179.99000
         3       581   F  -0.30000     179.99000     179.99000
         3       585   F  -0.30000     179.99000     179.99000
         3       589   F  -0.30000     179.99000     179.99000
         3       593   F  -0.30000     179.99000     179.99000
         3       597   F  -0.30000     179.99000     179.99000
         3       601   F  -0.30000     179.99000     179.99000
         3       605   F  -0.30000     179.99000     179.99000
         3       609   F  -0.30000     179.99000     179.99000
         3       613   F  -0.30000     179.99000     179.99000
         3       617   F  -0.30000     179.99000     179.99000
         3       621   F  -0.30000     179.99000     179.99000
         3       625   F  -0.30000     179.99000     179.99000
         3       629   F   0.35000     110.00000       0.00000
         3       633   F   0.35000     110.00000     180.00000
         3       637   F   0.35000     110.00000       0.00000
         3       641   F   0.35000     110.00000     180.00000
         3       645   F   0.35000     110.00000       0.00000
         3       649   F   0.35000     110.00000     180.00000
         3       653   F   0.35000     110.00000       0.00000
         3       657   F   0.35000     110.00000     180.00000
         3       661   F   0.35000     110.00000       0.00000
         3       665   F   0.35000     110.00000     180.00000
         3       669   F   0.35000     110.00000       0.00000
         3       673   F   0.35000     110.00000     180.00000
         3       677   F   0.35000     110.00000       0.00000
         3       681   F   0.35000     110.00000     180.00000
         3       685   F   0.35000     110.00000       0.00000
         3       689   F   0.35000     110.00000     180.00000
         3       693   F   0.35000     110.00000       0.00000
         3       697   F   0.35000     110.00000     180.00000
         3       701   F   0.35000     110.00000       0.00000
         3       705   F   0.35000     110.00000     180.00000
         3       709   F   0.35000     110.00000       0.00000
         3       713   F   0.35000     110.00000     180.00000
         3       717   F   0.35000     110.00000       0.00000
         3       721   F   0.35000     110.00000     180.00000
         3       725   F   0.35000     110.00000       0.00000
         3       729   F   0.35000     110.00000     180.00000
         3       733   F   0.35000     110.00000       0.00000
         3       737   F   0.35000     110.00000     180.00000
         3       741   F   0.35000     110.00000       0.00000
         3       745   F   0.35000     110.00000     180.00000
         3       749   F   0.35000     110.00000       0.00000
         3       753   F   0.35000     110.00000     180.00000
         3       757   F   0.35000     110.00000       0.00000
         3       761   F   0.35000     110.00000     180.00000
         3       765   F   0.35000     110.00000       0.00000
         3       769   F   0.35000     110.00000     180.00000
         3       773   F   0.35000     110.00000       0.00000
         3       777   F   0.35000     110.00000     180.00000
         3       781   F   0.35000     110.00000       0.00000
         3       785   F   0.35000     110.00000     180.00000
         3       789   F   0.35000     110.00000       0.00000
         3       793   F   0.35000     110.00000     180.00000
         3       797   F   0.35000     110.00000       0.00000
         3       801   F   0.35000     110.00000     180.00000
         3       805   F   0.35000     110.00000       0.00000
         3       809   F   0.35000     110.00000     180.00000
         3       813   F   0.35000     110.00000       0.00000
         3       817   F   0.35000     110.00000     180.00000
         3       821   F   0.35000     110.00000       0.00000
         3       825   F   0.35000     110.00000     180.00000
         3       829   F   0.35000     110.00000       0.00000
         3       833   F   0.35000     110.00000     180.00000
         3       837   F   0.35000     110.00000       0.00000
         3       841   F   0.35000     110.00000     180.00000
         3       845   F   0.35000     110.00000       0.00000
         3       849   F   0.35000     110.00000     180.00000
         3       853   F   0.35000     110.00000       0.00000
         3       857   F   0.35000     110.00000     180.00000
         3       861   F   0.35000     110.00000       0.00000
         3       865   F   0.35000     110.00000     180.00000
         3       869   F   0.35000     110.00000       0.00000
         3       873   F   0.35000     110.00000     180.00000
         3       877   F   0.35000     110.00000       0.00000
         3       881   F   0.35000     110.00000     180.00000
         3       885   F   0.35000     110.00000       0.00000
         3       889   F   0.35000     110.00000     180.00000
         3       893   F   0.35000     110.00000       0.00000
         3       897   F   0.35000     110.00000     180.00000
         3       901   F   0.35000     110.00000       0.00000
         3       905   F   0.35000     110.00000     180.00000
         3       909   F   0.35000     110.00000       0.00000
         3       913   F   0.35000     110.00000     180.00000
         3       917   F   0.35000     110.00000       0.00000
         3       921   F   0.35000     110.00000     180.00000
         3       925   F   0.35000     110.00000       0.00000
         3       929   F   0.35000     110.00000     180.00000
         3       933   F   0.35000     110.00000       0.00000
         3       937   F   0.35000     110.00000     180.00000
         3       941   F   0.35000     110.00000       0.00000
         3       945   F   0.35000     110.00000     180.00000
         3       949   F   0.35000     110.00000       0.00000
         3       953   F   0.35000     110.00000     180.00000
         3       957   F   0.35000     110.00000       0.00000
         3       961   F   0.35000     110.00000     180.00000
         3       965   F   0.35000     110.00000       0.00000
         3       969   F   0.35000     110.00000     180.00000
         3       973   F   0.35000     110.00000       0.00000
         3       977   F   0.35000     110.00000     180.00000
         3       981   F   0.35000     110.00000       0.00000
         3       985   F   0.35000     110.00000     180.00000
         3       989   F   0.35000     110.00000       0.00000
         3       993   F   0.35000     110.00000     180.00000
         3       997   F   0.35000     110.00000       0.00000
         3      1001   F   0.35000     110.00000     180.00000
         3      1005   F   0.35000     110.00000       0.00000
         3      1009   F   0.35000     110.00000     180.00000
         3      1013   F   0.35000     110.00000       0.00000
         3      1017   F   0.35000     110.00000     180.00000
         3      1021   F   0.35000     110.00000       0.00000
         3      1025   F   0.35000     110.00000     180.00000
         3      1029   F   0.35000     110.00000       0.00000
         3      1033   F   0.35000     110.00000     180.00000
         3      1037   F   0.35000     110.00000       0.00000
         3      1041   F   0.35000     110.00000     180.00000
         3      1045   F   0.35000     110.00000       0.00000
         3      1049   F   0.35000     110.00000     180.00000
         3      1053   F   0.35000     110.00000       0.00000
         3      1057   F   0.35000     110.00000     180.00000
         3      1061   F   0.35000     110.00000       0.00000
         3      1065   F   0.35000     110.00000     180.00000
         3      1069   F   0.35000     110.00000       0.00000
         3      1073   F   0.35000     110.00000     180.00000
         3      1077   F   0.35000     110.00000       0.00000
         3      1081   F   0.35000     110.00000     180.00000
         3      1085   F   0.35000     110.00000       0.00000
         3      1089   F   0.35000     110.00000     180.00000
         3      1093   F   0.35000     110.00000       0.00000
         3      1097   F   0.35000     110.00000     180.00000
         3      1101   F   0.35000     110.00000       0.00000
         3      1105   F   0.35000     110.00000     180.00000
         3      1109   F   0.35000     110.00000       0.00000
         3      1113   F   0.35000     110.00000     180.00000
         3      1117   F   0.35000     110.00000       0.00000
         3      1121   F   0.35000     110.00000     180.00000
         3      1125   F   0.35000     110.00000       0.00000
         3      1129   F   0.35000     110.00000     180.00000
         3      1133   F   0.35000     110.00000       0.00000
         3      1137   F   0.35000     110.00000     180.00000
         3      1141   F   0.35000     110.00000       0.00000
         3      1145   F   0.35000     110.00000     180.00000
         3      1149   F   0.35000     110.00000       0.00000
         3      1153   F   0.35000     110.00000     180.00000
         3      1157   F   0.35000     110.00000       0.00000
         3      1161   F   0.35000     110.00000     180.00000
         3      1165   F   0.35000     110.00000       0.00000
         3      1169   F   0.35000     110.00000     180.00000
         3      1173   F   0.35000     110.00000       0.00000
         3      1177   F   0.35000     110.00000     180.00000
         3      1181   F   0.35000     110.00000       0.00000
         3      1185   F   0.35000     110.00000     180.00000
         3      1189   F   0.35000     110.00000       0.00000
         3      1193   F   0.35000     110.00000     180.00000
         3      1197   F   0.35000     110.00000       0.00000
         3      1201   F   0.35000     110.00000     180.00000
         3      1205   F   0.35000     110.00000       0.00000
         3      1209   F   0.35000     110.00000     180.00000
         3      1213   F   0.35000     110.00000       0.00000
         3      1217   F   0.35000     110.00000     180.00000
         3      1221   F   0.35000     110.00000       0.00000
         3      1225   F   0.35000     110.00000     180.00000
         3      1229   F   0.35000     110.00000       0.00000
         3      1233   F   0.35000     110.00000     180.00000
         3      1237   F   0.35000     110.00000       0.00000
         3      1241   F   0.35000     110.00000     180.00000
         3      1245   F   0.35000     110.00000       0.00000
         3      1249   F   0.35000     110.00000     180.00000
         3      1253   F   0.35000     110.00000       0.00000
         3      1257   F   0.35000     110.00000     180.00000
         3      1261   F   0.35000     110.00000       0.00000
         3      1265   F   0.35000     110.00000     180.00000
         3      1269   F   0.35000     110.00000       0.00000
         3      1273   F   0.35000     110.00000     180.00000
         3      1277   F   0.35000     110.00000       0.00000
         3      1281   F   0.35000     110.00000     180.00000
         3      1285   F   0.35000     110.00000       0.00000
         3      1289   F   0.35000     110.00000     180.00000
         3      1293   F   0.35000     110.00000       0.00000
         3      1297   F   0.35000     110.00000     180.00000
         3      1301   F   0.35000     110.00000       0.00000
         3      1305   F   0.35000     110.00000     180.00000
         3      1309   F   0.35000     110.00000       0.00000
         3      1313   F   0.35000     110.00000     180.00000
         3      1317   F   0.35000     110.00000       0.00000
         3      1321   F   0.35000     110.00000     180.00000
         3      1325   F   0.35000     110.00000       0.00000
         3      1329   F   0.35000     110.00000     180.00000
         3      1333   F   0.35000     110.00000       0.00000
         3      1337   F   0.35000     110.00000     180.00000
         3      1341   F   0.35000     110.00000       0.00000
         3      1345   F   0.35000     110.00000     180.00000
         3      1349   F   0.35000     110.00000       0.00000
         3      1353   F   0.35000     110.00000     180.00000
         3      1357   F   0.35000     110.00000       0.00000
         3      1361   F   0.35000     110.00000     180.00000
         3      1365   F   0.35000     110.00000       0.00000
         3      1369   F   0.35000     110.00000     180.00000
         3      1373   F   0.35000     110.00000       0.00000
         3      1377   F   0.35000     110.00000     180.00000
         3      1381   F   0.35000     110.00000       0.00000
         3      1385   F   0.35000     110.00000     180.00000
         3      1389   F   0.35000     110.00000       0.00000
         3      1393   F   0.35000     110.00000     180.00000
         3      1397   F   0.35000     110.00000       0.00000
         3      1401   F   0.35000     110.00000     180.00000
         3      1405   F   0.35000     110.00000       0.00000
         3      1409   F   0.35000     110.00000     180.00000
         3      1413   F   0.35000     110.00000       0.00000
         3      1417   F   0.35000     110.00000     180.00000
         3      1421   F   0.35000     110.00000       0.00000
         3      1425   F   0.35000     110.00000     180.00000
         3      1429   F   0.35000     110.00000       0.00000
         3      1433   F   0.35000     110.00000     180.00000
         3      1437   F   0.35000     110.00000       0.00000
         3      1441   F   0.35000     110.00000     180.00000
         3      1445   F   0.35000     110.00000       0.00000
         3      1449   F   0.35000     110.00000     180.00000
         3      1453   F   0.35000     110.00000       0.00000
         3      1457   F   0.35000     110.00000     180.00000
         3      1461   F   0.35000     110.00000       0.00000
         3      1465   F   0.35000     110.00000     180.00000
         3      1469   F   0.35000     110.00000       0.00000
         3      1473   F   0.35000     110.00000     180.00000
         3      1477   F   0.35000     110.00000       0.00000
         3      1481   F   0.35000     110.00000     180.00000
         3      1485   F   0.35000     110.00000       0.00000
         3      1489   F   0.35000     110.00000     180.00000
         3      1493   F   0.35000     110.00000       0.00000
         3      1497   F   0.35000     110.00000     180.00000
         3      1501   F   0.35000     110.00000       0.00000
         3      1505   F   0.35000     110.00000     180.00000
         3      1509   F   0.35000     110.00000       0.00000
         3      1513   F   0.35000     110.00000     180.00000
         3      1517   F   0.35000     110.00000       0.00000
         3      1521   F   0.35000     110.00000     180.00000
         3      1525   F   0.35000     110.00000       0.00000
         3      1529   F   0.35000     110.00000     180.00000
         3      1533   F   0.35000     110.00000       0.00000
         3      1537   F   0.35000     110.00000     180.00000
         3      1541   F   0.35000     110.00000       0.00000
         3      1545   F   0.35000     110.00000     180.00000
         3      1549   F   0.35000     110.00000       0.00000
         3      1553   F   0.35000     110.00000     180.00000
         3      1557   F   0.35000     110.00000       0.00000
         3      1561   F   0.35000     110.00000     180.00000
         3      1565   F   0.35000     110.00000       0.00000
         3      1569   F   0.35000     110.00000     180.00000
         3      1573   F   0.35000     110.00000       0.00000
         3      1577   F   0.35000     110.00000     180.00000
         3      1581   F   0.35000     110.00000       0.00000
         3      1585   F   0.35000     110.00000     180.00000
         3      1589   F   0.35000     110.00000       0.00000
         3      1593   F   0.35000     110.00000     180.00000
         3      1597   F   0.35000     110.00000       0.00000
         3      1601   F   0.35000     110.00000     180.00000
         3      1605   F   0.35000     110.00000       0.00000
         3      1609   F   0.35000     110.00000     180.00000
         3      1613   F   0.35000     110.00000       0.00000
         3      1617   F   0.35000     110.00000     180.00000
         3      1621   F   0.35000     110.00000       0.00000
         3      1625   F   0.35000     110.00000     180.00000
         3      1629   F   0.35000     110.00000       0.00000
         3      1633   F   0.35000     110.00000     180.00000
         3      1637   F   0.35000     110.00000       0.00000
         3      1641   F   0.35000     110.00000     180.00000
         3      1645   F   0.35000     110.00000       0.00000
         3      1649   F   0.35000     110.00000     180.00000
         3      1653   F   0.35000     110.00000       0.00000
         3      1657   F   0.35000     110.00000     180.00000
         3      1661   F   0.35000     110.00000       0.00000
         3      1665   F   0.35000     110.00000     180.00000
         3      1669   F   0.35000     110.00000       0.00000
         3      1673   F   0.35000     110.00000     180.00000
         3      1677   F   0.35000     110.00000       0.00000
         3      1681   F   0.35000     110.00000     180.00000
         3      1685   F   0.35000     110.00000       0.00000
         3      1689   F   0.35000     110.00000     180.00000
         3      1693   F   0.35000     110.00000       0.00000
         3      1697   F   0.35000     110.00000     180.00000
         3      1701   F   0.35000     110.00000       0.00000
         3      1705   F   0.35000     110.00000     180.00000
         3      1709   F   0.35000     110.00000       0.00000
         3      1713   F   0.35000     110.00000     180.00000
         3      1717   F   0.35000     110.00000       0.00000
         3      1721   F   0.35000     110.00000     180.00000
         3      1725   F   0.35000     110.00000       0.00000
         3      1729   F   0.35000     110.00000     180.00000
         3      1733   F   0.35000     110.00000       0.00000
         3      1737   F   0.35000     110.00000     180.00000
         3      1741   F   0.35000     110.00000       0.00000
         3      1745   F   0.35000     110.00000     180.00000
         3      1749   F   0.35000     110.00000       0.00000
         3      1753   F   0.35000     110.00000     180.00000
         3      1757   F   0.35000     110.00000       0.00000
         3      1761   F   0.35000     110.00000     180.00000
         3      1765   F   0.35000     110.00000       0.00000
         3      1769   F   0.35000     110.00000     180.00000
         3      1773   F   0.35000     110.00000       0.00000
         3      1777   F   0.35000     110.00000     180.00000
         3      1781   F   0.35000     110.00000       0.00000
         3      1785   F   0.35000     110.00000     180.00000
         3      1789   F   0.35000     110.00000       0.00000
         3      1793   F   0.35000     110.00000     180.00000
         3      1797   F   0.35000     110.00000       0.00000
         3      1801   F   0.35000     110.00000     180.00000
         3      1805   F   0.35000     110.00000       0.00000
         3      1809   F   0.35000     110.00000     180.00000
         3      1813   F   0.35000     110.00000       0.00000
         3      1817   F   0.35000     110.00000     180.00000
         3      1821   F   0.35000     110.00000       0.00000
         3      1825   F   0.35000     110.00000     180.00000
         3      1829   F   0.35000     110.00000       0.00000
         3      1833   F   0.35000     110.00000     180.00000
         3      1837   F   0.35000     110.00000       0.00000
         3      1841   F   0.35000     110.00000     180.00000
         3      1845   F   0.35000     110.00000       0.00000
         3      1849   F   0.35000     110.00000     180.00000
         3      1853   F   0.35000     110.00000       0.00000
         3      1857   F   0.35000     110.00000     180.00000
         3      1861   F   0.35000     110.00000       0.00000
         3      1865   F   0.35000     110.00000     180.00000
         3      1869   F   0.35000     110.00000       0.00000
         3      1873   F   0.35000     110.00000     180.00000
         3      1877   F   0.35000     110.00000       0.00000
         3      1881   F   0.35000     110.00000     180.00000
         3      1885   F   0.35000     110.00000       0.00000
         3      1889   F   0.35000     110.00000     180.00000
         3      1893   F   0.35000     110.00000       0.00000
         3      1897   F   0.35000     110.00000     180.00000
         3      1901   F   0.35000     110.00000       0.00000
         3      1905   F   0.35000     110.00000     180.00000
         3      1909   F   0.35000     110.00000       0.00000
         3      1913   F   0.35000     110.00000     180.00000
         3      1917   F   0.35000     110.00000       0.00000
         3      1921   F   0.35000     110.00000     180.00000
         3      1925   F   0.35000     110.00000       0.00000
         3      1929   F   0.35000     110.00000     180.00000
         3      1933   F   0.35000     110.00000       0.00000
         3      1937   F   0.35000     110.00000     180.00000
         3      1941   F   0.35000     110.00000       0.00000
         3      1945   F   0.35000     110.00000     180.00000
         3      1949   F   0.35000     110.00000       0.00000
         3      1953   F   0.35000     110.00000     180.00000
         3      1957   F   0.35000     110.00000       0.00000
         3      1961   F   0.35000     110.00000     180.00000
         3      1965   F   0.35000     110.00000       0.00000
         3      1969   F   0.35000     110.00000     180.00000
         3      1973   F   0.35000     110.00000       0.00000
         3      1977   F   0.35000     110.00000     180.00000
         3      1981   F   0.35000     110.00000       0.00000
         3      1985   F   0.35000     110.00000     180.00000
         3      1989   F   0.35000     110.00000       0.00000
         3      1993   F   0.35000     110.00000     180.00000
         3      1997   F   0.35000     110.00000       0.00000
         3      2001   F   0.35000     110.00000     180.00000
         3      2005   F   0.35000     110.00000       0.00000
         3      2009   F   0.35000     110.00000     180.00000
         3      2013   F   0.35000     110.00000       0.00000
         3      2017   F   0.35000     110.00000     180.00000
         3      2021   F   0.35000     110.00000       0.00000
         3      2025   F   0.35000     110.00000     180.00000
         3      2029   F   0.35000     110.00000       0.00000
         3      2033   F   0.35000     110.00000     180.00000
         3      2037   F   0.35000     110.00000       0.00000
         3      2041   F   0.35000     110.00000     180.00000
         3      2045   F   0.35000     110.00000       0.00000
         3      2049   F   0.35000     110.00000     180.00000
         3      2053   F   0.35000     110.00000       0.00000
         3      2057   F   0.35000     110.00000     180.00000
         3      2061   F   0.35000     110.00000       0.00000
         3      2065   F   0.35000     110.00000     180.00000
         3      2069   F   0.35000     110.00000       0.00000
         3      2073   F   0.35000     110.00000     180.00000
         3      2077   F   0.35000     110.00000       0.00000
         3      2081   F   0.35000     110.00000     180.00000
         3      2085   F   0.35000     110.00000       0.00000
         3      2089   F   0.35000     110.00000     180.00000
         3      2093   F   0.35000     110.00000       0.00000
         3      2097   F   0.35000     110.00000     180.00000
         3      2101   F   0.35000     110.00000       0.00000
         3      2105   F   0.35000     110.00000     180.00000
         3      2109   F   0.35000     110.00000       0.00000
         3      2113   F   0.35000     110.00000     180.00000
         3      2117   F   0.35000     110.00000       0.00000
         3      2121   F   0.35000     110.00000     180.00000
         3      2125   F   0.35000     110.00000       0.00000
         3      2129   F   0.35000     110.00000     180.00000
         3      2133   F   0.35000     110.00000       0.00000
         3      2137   F   0.35000     110.00000     180.00000
         3      2141   F   0.35000     110.00000       0.00000
         3      2145   F   0.35000     110.00000     180.00000
         3      2149   F   0.35000     110.00000       0.00000
         3      2153   F   0.35000     110.00000     180.00000
         3      2157   F   0.35000     110.00000       0.00000
         3      2161   F   0.35000     110.00000     180.00000
         3      2165   F   0.35000     110.00000       0.00000
         3      2169   F   0.35000     110.00000     180.00000
         3      2173   F   0.35000     110.00000       0.00000
         3      2177   F   0.35000     110.00000     180.00000
         3      2181   F   0.35000     110.00000       0.00000
         3      2185   F   0.35000     110.00000     180.00000
         3      2189   F   0.35000     110.00000       0.00000
         3      2193   F   0.35000     110.00000     180.00000
         3      2197   F   0.35000     110.00000       0.00000
         3      2201   F   0.35000     110.00000     180.00000
         3      2205   F   0.35000     110.00000       0.00000
         3      2209   F   0.35000     110.00000     180.00000
         3      2213   F   0.35000     110.00000       0.00000
         3      2217   F   0.35000     110.00000     180.00000
         3      2221   F   0.35000     110.00000       0.00000
         3      2225   F   0.35000     110.00000     180.00000
         3      2229   F   0.35000     110.00000       0.00000
         3      2233   F   0.35000     110.00000     180.00000
         3      2237   F   0.35000     110.00000       0.00000
         3      2241   F   0.35000     110.00000     180.00000
         3      2245   F   0.35000     110.00000       0.00000
         3      2249   F   0.35000     110.00000     180.00000
         3      2253   F   0.35000     110.00000       0.00000
         3      2257   F   0.35000     110.00000     180.00000
         3      2261   F   0.35000     110.00000       0.00000
         3      2265   F   0.35000     110.00000     180.00000
         3      2269   F   0.35000     110.00000       0.00000
         3      2273   F   0.35000     110.00000     180.00000
         3      2277   F   0.35000     110.00000       0.00000
         3      2281   F   0.35000     110.00000     180.00000
         3      2285   F   0.35000     110.00000       0.00000
         3      2289   F   0.35000     110.00000     180.00000
         3      2293   F   0.35000     110.00000       0.00000
         3      2297   F   0.35000     110.00000     180.00000
         3      2301   F   0.35000     110.00000       0.00000
         3      2305   F   0.35000     110.00000     180.00000
         3      2309   F   0.35000     110.00000       0.00000
         3      2313   F   0.35000     110.00000     180.00000
         3      2317   F   0.35000     110.00000       0.00000
         3      2321   F   0.35000     110.00000     180.00000
         3      2325   F   0.35000     110.00000       0.00000
         3      2329   F   0.35000     110.00000     180.00000
         3      2333   F   0.35000     110.00000       0.00000
         3      2337   F   0.35000     110.00000     180.00000
         3      2341   F   0.35000     110.00000       0.00000
         3      2345   F   0.35000     110.00000     180.00000
         3      2349   F   0.35000     110.00000       0.00000
         3      2353   F   0.35000     110.00000     180.00000
         3      2357   F   0.35000     110.00000       0.00000
         3      2361   F   0.35000     110.00000     180.00000
         3      2365   F   0.35000     110.00000       0.00000
         3      2369   F   0.35000     110.00000     180.00000
         3      2373   F   0.35000     110.00000       0.00000
         3      2377   F   0.35000     110.00000     180.00000
         3      2381   F   0.35000     110.00000       0.00000
         3      2385   F   0.35000     110.00000     180.00000
         3      2389   F   0.35000     110.00000       0.00000
         3      2393   F   0.35000     110.00000     180.00000
         3      2397   F   0.35000     110.00000       0.00000
         3      2401   F   0.35000     110.00000     180.00000
         3      2405   F   0.35000     110.00000       0.00000
         3      2409   F   0.35000     110.00000     180.00000
         3      2413   F   0.35000     110.00000       0.00000
         3      2417   F   0.35000     110.00000     180.00000
         3      2421   F   0.35000     110.00000       0.00000
         3      2425   F   0.35000     110.00000     180.00000
         3      2429   F   0.35000     110.00000       0.00000
         3      2433   F   0.35000     110.00000     180.00000
         3      2437   F   0.35000     110.00000       0.00000
         3      2441   F   0.35000     110.00000     180.00000
         3      2445   F   0.35000     110.00000       0.00000
         3      2449   F   0.35000     110.00000     180.00000
         3      2453   F   0.35000     110.00000       0.00000
         3      2457   F   0.35000     110.00000     180.00000
         3      2461   F   0.35000     110.00000       0.00000
         3      2465   F   0.35000     110.00000     180.00000
         3      2469   F   0.35000     110.00000       0.00000
         3      2473   F   0.35000     110.00000     180.00000
         3      2477   F   0.35000     110.00000       0.00000
         3      2481   F   0.35000     110.00000     180.00000
         3      2485   F   0.35000     110.00000       0.00000
         3      2489   F   0.35000     110.00000     180.00000
         3      2493   F   0.35000     110.00000       0.00000
         3      2497   F   0.35000     110.00000     180.00000
         3      2501   F   0.35000     110.00000       0.00000
         3      2505   F   0.35000     110.00000     180.00000
         3      2509   F   0.35000     110.00000       0.00000
         3      2513   F   0.35000     110.00000     180.00000
         3      2517   F   0.35000     110.00000       0.00000
         3      2521   F   0.35000     110.00000     180.00000
         3      2525   F   0.35000     110.00000       0.00000
         3      2529   F   0.35000     110.00000     180.00000
         3      2533   F   0.35000     110.00000       0.00000
         3      2537   F   0.35000     110.00000     180.00000
         3      2541   F   0.35000     110.00000       0.00000
         3      2545   F   0.35000     110.00000     180.00000
         3      2549   F   0.35000     110.00000       0.00000
         3      2553   F   0.35000     110.00000     180.00000
         3      2557   F   0.35000     110.00000       0.00000
         3      2561   F   0.35000     110.00000     180.00000
         3      2565   F   0.35000     110.00000       0.00000
         3      2569   F   0.35000     110.00000     180.00000
         3      2573   F   0.35000     110.00000       0.00000
         3      2577   F   0.35000     110.00000     180.00000
         3      2581   F   0.35000     110.00000       0.00000
         3      2585   F   0.35000     110.00000     180.00000
         3      2589   F   0.35000     110.00000       0.00000
         3      2593   F   0.35000     110.00000     180.00000
         3      2597   F   0.35000     110.00000       0.00000
         3      2601   F   0.35000     110.00000     180.00000
         3      2605   F   0.35000     110.00000       0.00000
         3      2609   F   0.35000     110.00000     180.00000
         3      2613   F   0.35000     110.00000       0.00000
         3      2617   F   0.35000     110.00000     180.00000
         3      2621   F   0.35000     110.00000       0.00000
         3      2625   F   0.35000     110.00000     180.00000
         3      2629   F   0.35000     110.00000       0.00000
         3      2633   F   0.35000     110.00000     180.00000
         3      2637   F   0.35000     110.00000       0.00000
         3      2641   F   0.35000     110.00000     180.00000
         3      2645   F   0.35000     110.00000       0.00000
         3      2649   F   0.35000     110.00000     180.00000
         3      2653   F   0.35000     110.00000       0.00000
         3      2657   F   0.35000     110.00000     180.00000
         3      2661   F   0.35000     110.00000       0.00000
         3      2665   F   0.35000     110.00000     180.00000
         3      2669   F   0.35000     110.00000       0.00000
         3      2673   F   0.35000     110.00000     180.00000
         3      2677   F   0.35000     110.00000       0.00000
         3      2681   F   0.35000     110.00000     180.00000
         3      2685   F   0.35000     110.00000       0.00000
         3      2689   F   0.35000     110.00000     180.00000
         3      2693   F   0.35000     110.00000       0.00000
         3      2697   F   0.35000     110.00000     180.00000
         3      2701   F   0.35000     110.00000       0.00000
         3      2705   F   0.35000     110.00000     180.00000
         3      2709   F   0.35000     110.00000       0.00000
         3      2713   F   0.35000     110.00000     180.00000
         3      2717   F   0.35000     110.00000       0.00000
         3      2721   F   0.35000     110.00000     180.00000
         3      2725   F   0.35000     110.00000       0.00000
         3      2729   F   0.35000     110.00000     180.00000
         3      2733   F   0.35000     110.00000       0.00000
         3      2737   F   0.35000     110.00000     180.00000
         3      2741   F   0.35000     110.00000       0.00000
         3      2745   F   0.35000     110.00000     180.00000
         3      2749   F   0.35000     110.00000       0.00000
         3      2753   F   0.35000     110.00000     180.00000
         3      2757   F   0.35000     110.00000       0.00000
         3      2761   F   0.35000     110.00000     180.00000
         3      2765   F   0.35000     110.00000       0.00000
         3      2769   F   0.35000     110.00000     180.00000
         3      2773   F   0.35000     110.00000       0.00000
         3      2777   F   0.35000     110.00000     180.00000
         3      2781   F   0.35000     110.00000       0.00000
         3      2785   F   0.35000     110.00000     180.00000
         3      2789   F   0.35000     110.00000       0.00000
         3      2793   F   0.35000     110.00000     180.00000
         3      2797   F   0.35000     110.00000       0.00000
         3      2801   F   0.35000     110.00000     180.00000
         3      2805   F   0.35000     110.00000       0.00000
         3      2809   F   0.35000     110.00000     180.00000
         3      2813   F   0.35000     110.00000       0.00000
         3      2817   F   0.35000     110.00000     180.00000
         3      2821   F   0.35000     110.00000       0.00000
         3      2825   F   0.35000     110.00000     180.00000
         3      2829   F   0.35000     110.00000       0.00000
         3      2833   F   0.35000     110.00000     180.00000
         3      2837   F   0.35000     110.00000       0.00000
         3      2841   F   0.35000     110.00000     180.00000
         3      2845   F   0.35000     110.00000       0.00000
         3      2849   F   0.35000     110.00000     180.00000
         3      2853   F   0.35000     110.00000       0.00000
         3      2857   F   0.35000     110.00000     180.00000
         3      2861   F   0.35000     110.00000       0.00000
         3      2865   F   0.35000     110.00000     180.00000
         3      2869   F   0.35000     110.00000       0.00000
         3      2873   F   0.35000     110.00000     180.00000
         3      2877   F   0.35000     110.00000       0.00000
         3      2881   F   0.35000     110.00000     180.00000
         3      2885   F   0.35000     110.00000       0.00000
         3      2889   F   0.35000     110.00000     180.00000
         3      2893   F   0.35000     110.00000       0.00000
         3      2897   F   0.35000     110.00000     180.00000
         3      2901   F   0.35000     110.00000       0.00000
         3      2905   F   0.35000     110.00000     180.00000
         3      2909   F   0.35000     110.00000       0.00000
         3      2913   F   0.35000     110.00000     180.00000
         3      2917   F   0.35000     110.00000       0.00000
         3      2921   F   0.35000     110.00000     180.00000
         3      2925   F   0.35000     110.00000       0.00000
         3      2929   F   0.35000     110.00000     180.00000
         3      2933   F   0.35000     110.00000       0.00000
         3      2937   F   0.35000     110.00000     180.00000
         3      2941   F   0.35000     110.00000       0.00000
         3      2945   F   0.35000     110.00000     180.00000
         3      2949   F   0.35000     110.00000       0.00000
         3      2953   F   0.35000     110.00000     180.00000
         3      2957   F   0.35000     110.00000       0.00000
         3      2961   F   0.35000     110.00000     180.00000
         3      2965   F   0.35000     110.00000       0.00000
         3      2969   F   0.35000     110.00000     180.00000
         3      2973   F   0.35000     110.00000       0.00000
         3      2977   F   0.35000     110.00000     180.00000
         3      2981   F   0.35000     110.00000       0.00000
         3      2985   F   0.35000     110.00000     180.00000
         3      2989   F   0.35000     110.00000       0.00000
         3      2993   F   0.35000     110.00000     180.00000
         3      2997   F   0.35000     110.00000       0.00000
         3      3001   F   0.35000     110.00000     180.00000
         3      3005   F   0.35000     110.00000       0.00000
         3      3009   F   0.35000     110.00000     180.00000
         3      3013   F   0.35000     110.00000       0.00000
         3      3017   F   0.35000     110.00000     180.00000
         3      3021   F   0.35000     110.00000       0.00000
         3      3025   F   0.35000     110.00000     180.00000
         3      3029   F  -0.30000     179.99000     179.99000
         3      3033   F  -0.30000     179.99000     179.99000
         3      3037   F  -0.30000     179.99000     179.99000
         3      3041   F  -0.30000     179.99000     179.99000
         3      3045   F  -0.30000     179.99000     179.99000
         3      3049   F  -0.30000     179.99000     179.99000
         3      3053   F  -0.30000     179.99000     179.99000
         3      3057   F  -0.30000     179.99000     179.99000
         3      3061   F  -0.30000     179.99000     179.99000
         3      3065   F  -0.30000     179.99000     179.99000
         3      3069   F  -0.30000     179.99000     179.99000
         3      3073   F  -0.30000     179.99000     179.99000
         3      3077   F  -0.30000     179.99000     179.99000
         3      3081   F  -0.30000     179.99000     179.99000
         3      3085   F  -0.30000     179.99000     179.99000
         3      3089   F  -0.30000     179.99000     179.99000
         3      3093   F  -0.30000     179.99000     179.99000
         3      3097   F  -0.30000     179.99000     179.99000
         3      3101   F  -0.30000     179.99000     179.99000
         3      3105   F  -0.30000     179.99000     179.99000
         3      3109   F  -0.30000     179.99000     179.99000
         3      3113   F  -0.30000     179.99000     179.99000
         3      3117   F  -0.30000     179.99000     179.99000
         3      3121   F  -0.30000     179.99000     179.99000
         3      3125   F  -0.30000     179.99000     179.99000
         3      3129   F  -0.30000     179.99000     179.99000
         3      3133   F  -0.30000     179.99000     179.99000
         3      3137   F  -0.30000     179.99000     179.99000
         3      3141   F  -0.30000     179.99000     179.99000
         3      3145   F  -0.30000     179.99000     179.99000
         3      3149   F  -0.30000     179.99000     179.99000
         3      3153   F  -0.30000     179.99000     179.99000
         3      3157   F  -0.30000     179.99000     179.99000
         3      3161   F  -0.30000     179.99000     179.99000
         3      3165   F  -0.30000     179.99000     179.99000
         3      3169   F  -0.30000     179.99000     179.99000
         3      3173   F  -0.30000     179.99000     179.99000
         3      3177   F  -0.30000     179.99000     179.99000
         3      3181   F  -0.30000     179.99000     179.99000
         3      3185   F  -0.30000     179.99000     179.99000
         3      3189   F  -0.30000     179.99000     179.99000
         3      3193   F  -0.30000     179.99000     179.99000
         3      3197   F  -0.30000     179.99000     179.99000
         3      3201   F  -0.30000     179.99000     179.99000
         3      3205   F  -0.30000     179.99000     179.99000
         3      3209   F  -0.30000     179.99000     179.99000
         3      3213   F  -0.30000     179.99000     179.99000
         3      3217   F  -0.30000     179.99000     179.99000
         3      3221   F  -0.30000     179.99000     179.99000
         3      3225   F  -0.30000     179.99000     179.99000
         3      3229   F  -0.30000     179.99000     179.99000
         3      3233   F  -0.30000     179.99000     179.99000
         3      3237   F  -0.30000     179.99000     179.99000
         3      3241   F  -0.30000     179.99000     179.99000
         3      3245   F  -0.30000     179.99000     179.99000
         3      3249   F  -0.30000     179.99000     179.99000
         3      3253   F  -0.30000     179.99000     179.99000
         3      3257   F  -0.30000     179.99000     179.99000
         3      3261   F  -0.30000     179.99000     179.99000
         3      3265   F  -0.30000     179.99000     179.99000
         3      3269   F  -0.30000     179.99000     179.99000
         3      3273   F  -0.30000     179.99000     179.99000
         3      3277   F  -0.30000     179.99000     179.99000
         3      3281   F  -0.30000     179.99000     179.99000
         3      3285   F  -0.30000     179.99000     179.99000
         3      3289   F  -0.30000     179.99000     179.99000
         3      3293   F  -0.30000     179.99000     179.99000
         3      3297   F  -0.30000     179.99000     179.99000
         3      3301   F  -0.30000     179.99000     179.99000
         3      3305   F  -0.30000     179.99000     179.99000
         3      3309   F  -0.30000     179.99000     179.99000
         3      3313   F  -0.30000     179.99000     179.99000
         3      3317   F  -0.30000     179.99000     179.99000
         3      3321   F  -0.30000     179.99000     179.99000
         3      3325   F  -0.30000     179.99000     179.99000
         3      3329   F  -0.30000     179.99000     179.99000
         3      3333   F  -0.30000     179.99000     179.99000
         3      3337   F  -0.30000     179.99000     179.99000
         3      3341   F  -0.30000     179.99000     179.99000
         3      3345   F  -0.30000     179.99000     179.99000
         3      3349   F  -0.30000     179.99000     179.99000
         3      3353   F  -0.30000     179.99000     179.99000
         3      3357   F  -0.30000     179.99000     179.99000
         3      3361   F  -0.30000     179.99000     179.99000
         3      3365   F  -0.30000     179.99000     179.99000
         3      3369   F  -0.30000     179.99000     179.99000
         3      3373   F  -0.30000     179.99000     179.99000
         3      3377   F  -0.30000     179.99000     179.99000
         3      3381   F  -0.30000     179.99000     179.99000
         3      3385   F  -0.30000     179.99000     179.99000
         3      3389   F  -0.30000     179.99000     179.99000
         3      3393   F  -0.30000     179.99000     179.99000
         3      3397   F  -0.30000     179.99000     179.99000
         3      3401   F  -0.30000     179.99000     179.99000
         3      3405   F  -0.30000     179.99000     179.99000
         3      3409   F  -0.30000     179.99000     179.99000
         3      3413   F  -0.30000     179.99000     179.99000
         3      3417   F  -0.30000     179.99000     179.99000
         3      3421   F  -0.30000     179.99000     179.99000
         3      3425   F  -0.30000     179.99000     179.99000
         3      3429   F  -0.30000     179.99000     179.99000
         3      3433   F  -0.30000     179.99000     179.99000
         3      3437   F  -0.30000     179.99000     179.99000
         3      3441   F  -0.30000     179.99000     179.99000
         3      3445   F  -0.30000     179.99000     179.99000
         3      3449   F  -0.30000     179.99000     179.99000
         3      3453   F  -0.30000     179.99000     179.99000
         3      3457   F  -0.30000     179.99000     179.99000
         3      3461   F  -0.30000     179.99000     179.99000
         3      3465   F  -0.30000     179.99000     179.99000
         3      3469   F  -0.30000     179.99000     179.99000
         3      3473   F  -0.30000     179.99000     179.99000
         3      3477   F  -0.30000     179.99000     179.99000
         3      3481   F  -0.30000     179.99000     179.99000
         3      3485   F  -0.30000     179.99000     179.99000
         3      3489   F  -0.30000     179.99000     179.99000
         3      3493   F  -0.30000     179.99000     179.99000
         3      3497   F  -0.30000     179.99000     179.99000
         3      3501   F  -0.30000     179.99000     179.99000
         3      3505   F  -0.30000     179.99000     179.99000
         3      3509   F  -0.30000     179.99000     179.99000
         3      3513   F  -0.30000     179.99000     179.99000
         3      3517   F  -0.30000     179.99000     179.99000
         3      3521   F  -0.30000     179.99000     179.99000
         3      3525   F  -0.30000     179.99000     179.99000
         3      3529   F  -0.30000     179.99000     179.99000
         3      3533   F  -0.30000     179.99000     179.99000
         3      3537   F  -0.30000     179.99000     179.99000
         3      3541   F  -0.30000     179.99000     179.99000
         3      3545   F  -0.30000     179.99000     179.99000
         3      3549   F  -0.30000     179.99000     179.99000
         3      3553   F  -0.30000     179.99000     179.99000
         3      3557   F  -0.30000     179.99000     179.99000
         3      3561   F  -0.30000     179.99000     179.99000
         3      3565   F  -0.30000     179.99000     179.99000
         3      3569   F  -0.30000     179.99000     179.99000
         3      3573   F  -0.30000     179.99000     179.99000
         3      3577   F  -0.30000     179.99000     179.99000
         3      3581   F  -0.30000     179.99000     179.99000
         3      3585   F  -0.30000     179.99000     179.99000
         3      3589   F  -0.30000     179.99000     179.99000
         3      3593   F  -0.30000     179.99000     179.99000
         3      3597   F  -0.30000     179.99000     179.99000
         3      3601   F  -0.30000     179.99000     179.99000
         3      3605   F  -0.30000     179.99000     179.99000
         3      3609   F  -0.30000     179.99000     179.99000
         3      3613   F  -0.30000     179.99000     179.99000
         3      3617   F  -0.30000     179.99000     179.99000
         3      3621   F  -0.30000     179.99000     179.99000
         3      3625   F  -0.30000     179.99000     179.99000
         3      3629   F  -0.30000     179.99000     179.99000
         3      3633   F  -0.30000     179.99000     179.99000
         3      3637   F  -0.30000     179.99000     179.99000
         3      3641   F  -0.30000     179.99000     179.99000
         3      3645   F  -0.30000     179.99000     179.99000
         3      3649   F  -0.30000     179.99000     179.99000
         3      3653   F  -0.30000     179.99000     179.99000
         3      3657   F  -0.30000     179.99000     179.99000
         3      3661   F  -0.30000     179.99000     179.99000
         3      3665   F  -0.30000     179.99000     179.99000
         3      3669   F  -0.30000     179.99000     179.99000
         3      3673   F  -0.30000     179.99000     179.99000
         3      3677   F  -0.30000     179.99000     179.99000
         3      3681   F  -0.30000     179.99000     179.99000
         3      3685   F  -0.30000     179.99000     179.99000
         3      3689   F  -0.30000     179.99000     179.99000
         3      3693   F  -0.30000     179.99000     179.99000
         3      3697   F  -0.30000     179.99000     179.99000
         3      3701   F  -0.30000     179.99000     179.99000
         3      3705   F  -0.30000     179.99000     179.99000
         3      3709   F  -0.30000     179.99000     179.99000
         3      3713   F  -0.30000     179.99000     179.99000
         3      3717   F  -0.30000     179.99000     179.99000
         3      3721   F  -0.30000     179.99000     179.99000
         3      3725   F  -0.30000     179.99000     179.99000
         3      3729   F  -0.30000     179.99000     179.99000
         3      3733   F  -0.30000     179.99000     179.99000
         3      3737   F  -0.30000     179.99000     179.99000
         3      3741   F  -0.30000     179.99000     179.99000
         3      3745   F  -0.30000     179.99000     179.99000
         3      3749   F  -0.30000     179.99000     179.99000
         3      3753   F  -0.30000     179.99000     179.99000
         3      3757   F  -0.30000     179.99000     179.99000
         3      3761   F  -0.30000     179.99000     179.99000
         3      3765   F  -0.30000     179.99000     179.99000
         3      3769   F  -0.30000     179.99000     179.99000
         3      3773   F  -0.30000     179.99000     179.99000
         3      3777   F  -0.30000     179.99000     179.99000
         3      3781   F  -0.30000     179.99000     179.99000
         3      3785   F  -0.30000     179.99000     179.99000
         3      3789   F  -0.30000     179.99000     179.99000
         3      3793   F  -0.30000     179.99000     179.99000
         3      3797   F  -0.30000     179.99000     179.99000
         3      3801   F  -0.30000     179.99000     179.99000
         3      3805   F  -0.30000     179.99000     179.99000
         3      3809   F  -0.30000     179.99000     179.99000
         3      3813   F  -0.30000     179.99000     179.99000
         3      3817   F  -0.30000     179.99000     179.99000
         3      3821   F  -0.30000     179.99000     179.99000
         3      3825   F  -0.30000     179.99000     179.99000
         3      3829   F  -0.30000     179.99000     179.99000
         3      3833   F  -0.30000     179.99000     179.99000
         3      3837   F  -0.30000     179.99000     179.99000
         3      3841   F  -0.30000     179.99000     179.99000
         3      3845   F  -0.30000     179.99000     179.99000
         3      3849   F  -0.30000     179.99000     179.99000
         3      3853   F  -0.30000     179.99000     179.99000
         3      3857   F  -0.30000     179.99000     179.99000
         3      3861   F  -0.30000     179.99000     179.99000
         3      3865   F  -0.30000     179.99000     179.99000
         3      3869   F  -0.30000     179.99000     179.99000
         3      3873   F  -0.30000     179.99000     179.99000
         3      3877   F  -0.30000     179.99000     179.99000
         3      3881   F  -0.30000     179.99000     179.99000
         3      3885   F  -0.30000     179.99000     179.99000
         3      3889   F  -0.30000     179.99000     179.99000
         3      3893   F  -0.30000     179.99000     179.99000
         3      3897   F  -0.30000     179.99000     179.99000
         3      3901   F  -0.30000     179.99000     179.99000
         3      3905   F  -0.30000     179.99000     179.99000
         3      3909   F  -0.30000     179.99000     179.99000
         3      3913   F  -0.30000     179.99000     179.99000
         3      3917   F  -0.30000     179.99000     179.99000
         3      3921   F  -0.30000     179.99000     179.99000
         3      3925   F  -0.30000     179.99000     179.99000
         3      3929   F  -0.30000     179.99000     179.99000
         3      3933   F  -0.30000     179.99000     179.99000
         3      3937   F  -0.30000     179.99000     179.99000
         3      3941   F  -0.30000     179.99000     179.99000
         3      3945   F  -0.30000     179.99000     179.99000
         3      3949   F  -0.30000     179.99000     179.99000
         3      3953   F  -0.30000     179.99000     179.99000
         3      3957   F  -0.30000     179.99000     179.99000
         3      3961   F  -0.30000     179.99000     179.99000
         3      3965   F  -0.30000     179.99000     179.99000
         3      3969   F  -0.30000     179.99000     179.99000
         3      3973   F  -0.30000     179.99000     179.99000
         3      3977   F  -0.30000     179.99000     179.99000
         3      3981   F  -0.30000     179.99000     179.99000
         3      3985   F  -0.30000     179.99000     179.99000
         3      3989   F  -0.30000     179.99000     179.99000
         3      3993   F  -0.30000     179.99000     179.99000
         3      3997   F  -0.30000     179.99000     179.99000
         3      4001   F  -0.30000     179.99000     179.99000
         3      4005   F  -0.30000     179.99000     179.99000
         3      4009   F  -0.30000     179.99000     179.99000
         3      4013   F  -0.30000     179.99000     179.99000
         3      4017   F  -0.30000     179.99000     179.99000
         3      4021   F  -0.30000     179.99000     179.99000
         3      4025   F  -0.30000     179.99000     179.99000
         3      4029   F  -0.30000     179.99000     179.99000
         3      4033   F  -0.30000     179.99000     179.99000
         3      4037   F  -0.30000     179.99000     179.99000
         3      4041   F  -0.30000     179.99000     179.99000
         3      4045   F  -0.30000     179.99000     179.99000
         3      4049   F  -0.30000     179.99000     179.99000
         3      4053   F  -0.30000     179.99000     179.99000
         3      4057   F  -0.30000     179.99000     179.99000
         3      4061   F  -0.30000     179.99000     179.99000
         3      4065   F  -0.30000     179.99000     179.99000
         3      4069   F  -0.30000     179.99000     179.99000
         3      4073   F  -0.30000     179.99000     179.99000
         3      4077   F  -0.30000     179.99000     179.99000
         3      4081   F  -0.30000     179.99000     179.99000
         3      4085   F  -0.30000     179.99000     179.99000
         3      4089   F  -0.30000     179.99000     179.99000
         3      4093   F  -0.30000     179.99000     179.99000
         3      4097   F  -0.30000     179.99000     179.99000
         3      4101   F  -0.30000     179.99000     179.99000
         3      4105   F  -0.30000     179.99000     179.99000
         3      4109   F  -0.30000     179.99000     179.99000
         3      4113   F  -0.30000     179.99000     179.99000
         3      4117   F  -0.30000     179.99000     179.99000
         3      4121   F  -0.30000     179.99000     179.99000
         3      4125   F  -0.30000     179.99000     179.99000
         3      4129   F  -0.30000     179.99000     179.99000
         3      4133   F  -0.30000     179.99000     179.99000
         3      4137   F  -0.30000     179.99000     179.99000
         3      4141   F  -0.30000     179.99000     179.99000
         3      4145   F  -0.30000     179.99000     179.99000
         3      4149   F  -0.30000     179.99000     179.99000
         3      4153   F  -0.30000     179.99000     179.99000
         3      4157   F  -0.30000     179.99000     179.99000
         3      4161   F  -0.30000     179.99000     179.99000
         3      4165   F  -0.30000     179.99000     179.99000
         3      4169   F  -0.30000     179.99000     179.99000
         3      4173   F  -0.30000     179.99000     179.99000
         3      4177   F  -0.30000     179.99000     179.99000
         3      4181   F  -0.30000     179.99000     179.99000
         3      4185   F  -0.30000     179.99000     179.99000
         3      4189   F  -0.30000     179.99000     179.99000
         3      4193   F  -0.30000     179.99000     179.99000
         3      4197   F  -0.30000     179.99000     179.99000
         3      4201   F  -0.30000     179.99000     179.99000
         3      4205   F  -0.30000     179.99000     179.99000
         3      4209   F  -0.30000     179.99000     179.99000
         3      4213   F  -0.30000     179.99000     179.99000
         3      4217   F  -0.30000     179.99000     179.99000
         3      4221   F  -0.30000     179.99000     179.99000
         3      4225   F  -0.30000     179.99000     179.99000
         3      4229   F  -0.30000     179.99000     179.99000
         3      4233   F  -0.30000     179.99000     179.99000
         3      4237   F  -0.30000     179.99000     179.99000
         3      4241   F  -0.30000     179.99000     179.99000
         3      4245   F  -0.30000     179.99000     179.99000
         3      4249   F  -0.30000     179.99000     179.99000
         3      4253   F  -0.30000     179.99000     179.99000
         3      4257   F  -0.30000     179.99000     179.99000
         3      4261   F  -0.30000     179.99000     179.99000
         3      4265   F  -0.30000     179.99000     179.99000
         3      4269   F  -0.30000     179.99000     179.99000
         3      4273   F  -0.30000     179.99000     179.99000
         3      4277   F  -0.30000     179.99000     179.99000
         3      4281   F  -0.30000     179.99000     179.99000
         3      4285   F  -0.30000     179.99000     179.99000
         3      4289   F  -0.30000     179.99000     179.99000
         3      4293   F  -0.30000     179.99000     179.99000
         3      4297   F  -0.30000     179.99000     179.99000
         3      4301   F  -0.30000     179.99000     179.99000
         3      4305   F  -0.30000     179.99000     179.99000
         3      4309   F  -0.30000     179.99000     179.99000
         3      4313   F  -0.30000     179.99000     179.99000
         3      4317   F  -0.30000     179.99000     179.99000
         3      4321   F  -0.30000     179.99000     179.99000
         3      4325   F  -0.30000     179.99000     179.99000
         3      4329   F  -0.30000     179.99000     179.99000
         3      4333   F  -0.30000     179.99000     179.99000
         3      4337   F  -0.30000     179.99000     179.99000
         3      4341   F  -0.30000     179.99000     179.99000
         3      4345   F  -0.30000     179.99000     179.99000
         3      4349   F  -0.30000     179.99000     179.99000
         3      4353   F  -0.30000     179.99000     179.99000
         3      4357   F  -0.30000     179.99000     179.99000
         3      4361   F  -0.30000     179.99000     179.99000
         3      4365   F  -0.30000     179.99000     179.99000
         3      4369   F  -0.30000     179.99000     179.99000
         3      4373   F  -0.30000     179.99000     179.99000
         3      4377   F  -0.30000     179.99000     179.99000
         3      4381   F  -0.30000     179.99000     179.99000
         3      4385   F  -0.30000     179.99000     179.99000
         3      4389   F  -0.30000     179.99000     179.99000
         3      4393   F  -0.30000     179.99000     179.99000
         3      4397   F  -0.30000     179.99000     179.99000
         3      4401   F  -0.30000     179.99000     179.99000
         3      4405   F  -0.30000     179.99000     179.99000
         3      4409   F  -0.30000     179.99000     179.99000
         3      4413   F  -0.30000     179.99000     179.99000
         3      4417   F  -0.30000     179.99000     179.99000
         3      4421   F  -0.30000     179.99000     179.99000
         3      4425   F  -0.30000     179.99000     179.99000
         3      4429   F   0.30000      91.00000       0.00000
         3      4433   F   0.30000      91.00000     180.00000
         3      4437   F   0.35000     110.90000      91.00000
         3      4441   F   0.35000     110.90000     269.00000
         3      4445   F   0.30000      91.00000       0.00000
         3      4449   F   0.30000      91.00000     180.00000
         3      4453   F   0.35000     110.90000      91.00000
         3      4457   F   0.35000     110.90000     269.00000
         3      4461   F   0.30000      91.00000       0.00000
         3      4465   F   0.30000      91.00000     180.00000
         3      4469   F   0.35000     110.90000      91.00000
         3      4473   F   0.35000     110.90000     269.00000
         3      4477   F   0.30000      91.00000       0.00000
         3      4481   F   0.30000      91.00000     180.00000
         3      4485   F   0.35000     110.90000      91.00000
         3      4489   F   0.35000     110.90000     269.00000
         3      4493   F   0.30000      91.00000       0.00000
         3      4497   F   0.30000      91.00000     180.00000
         3      4501   F   0.35000     110.90000      91.00000
         3      4505   F   0.35000     110.90000     269.00000
         3      4509   F   0.30000      91.00000       0.00000
         3      4513   F   0.30000      91.00000     180.00000
         3      4517   F   0.35000     110.90000      91.00000
         3      4521   F   0.35000     110.90000     269.00000
         3      4525   F   0.30000      91.00000       0.00000
         3      4529   F   0.30000      91.00000     180.00000
         3      4533   F   0.35000     110.90000      91.00000
         3      4537   F   0.35000     110.90000     269.00000
         3      4541   F   0.30000      91.00000       0.00000
         3      4545   F   0.30000      91.00000     180.00000
         3      4549   F   0.35000     110.90000      91.00000
         3      4553   F   0.35000     110.90000     269.00000
         3      4557   F   0.30000      91.00000       0.00000
         3      4561   F   0.30000      91.00000     180.00000
         3      4565   F   0.35000     110.90000      91.00000
         3      4569   F   0.35000     110.90000     269.00000
         3      4573   F   0.30000      91.00000       0.00000
         3      4577   F   0.30000      91.00000     180.00000
         3      4581   F   0.35000     110.90000      91.00000
         3      4585   F   0.35000     110.90000     269.00000
         3      4589   F   0.30000      91.00000       0.00000
         3      4593   F   0.30000      91.00000     180.00000
         3      4597   F   0.35000     110.90000      91.00000
         3      4601   F   0.35000     110.90000     269.00000
         3      4605   F   0.30000      91.00000       0.00000
         3      4609   F   0.30000      91.00000     180.00000
         3      4613   F   0.35000     110.90000      91.00000
         3      4617   F   0.35000     110.90000     269.00000
         3      4621   F   0.30000      91.00000       0.00000
         3      4625   F   0.30000      91.00000     180.00000
         3      4629   F   0.35000     110.90000      91.00000
         3      4633   F   0.35000     110.90000     269.00000
         3      4637   F   0.30000      91.00000       0.00000
         3      4641   F   0.30000      91.00000     180.00000
         3      4645   F   0.35000     110.90000      91.00000
         3      4649   F   0.35000     110.90000     269.00000
         3      4653   F   0.30000      91.00000       0.00000
         3      4657   F   0.30000      91.00000     180.00000
         3      4661   F   0.35000     110.90000      91.00000
         3      4665   F   0.35000     110.90000     269.00000
         3      4669   F   0.30000      91.00000       0.00000
         3      4673   F   0.30000      91.00000     180.00000
         3      4677   F   0.35000     110.90000      91.00000
         3      4681   F   0.35000     110.90000     269.00000
         3      4685   F   0.30000      91.00000       0.00000
         3      4689   F   0.30000      91.00000     180.00000
         3      4693   F   0.35000     110.90000      91.00000
         3      4697   F   0.35000     110.90000     269.00000
         3      4701   F   0.30000      91.00000       0.00000
         3      4705   F   0.30000      91.00000     180.00000
         3      4709   F   0.35000     110.90000      91.00000
         3      4713   F   0.35000     110.90000     269.00000
         3      4717   F   0.30000      91.00000       0.00000
         3      4721   F   0.30000      91.00000     180.00000
         3      4725   F   0.35000     110.90000      91.00000
         3      4729   F   0.35000     110.90000     269.00000
         3      4733   F   0.30000      91.00000       0.00000
         3      4737   F   0.30000      91.00000     180.00000
         3      4741   F   0.35000     110.90000      91.00000
         3      4745   F   0.35000     110.90000     269.00000
         3      4749   F   0.30000      91.00000       0.00000
         3      4753   F   0.30000      91.00000     180.00000
         3      4757   F   0.35000     110.90000      91.00000
         3      4761   F   0.35000     110.90000     269.00000
         3      4765   F   0.30000      91.00000       0.00000
         3      4769   F   0.30000      91.00000     180.00000
         3      4773   F   0.35000     110.90000      91.00000
         3      4777   F   0.35000     110.90000     269.00000
         3      4781   F   0.30000      91.00000       0.00000
         3      4785   F   0.30000      91.00000     180.00000
         3      4789   F   0.35000     110.90000      91.00000
         3      4793   F   0.35000     110.90000     269.00000
         3      4797   F   0.30000      91.00000       0.00000
         3      4801   F   0.30000      91.00000     180.00000
         3      4805   F   0.35000     110.90000      91.00000
         3      4809   F   0.35000     110.90000     269.00000
         3      4813   F   0.30000      91.00000       0.00000
         3      4817   F   0.30000      91.00000     180.00000
         3      4821   F   0.35000     110.90000      91.00000
         3      4825   F   0.35000     110.90000     269.00000
         3      4829   F   0.30000      91.00000       0.00000
         3      4833   F   0.30000      91.00000     180.00000
         3      4837   F   0.35000     110.90000      91.00000
         3      4841   F   0.35000     110.90000     269.00000
         3      4845   F   0.30000      91.00000       0.00000
         3      4849   F   0.30000      91.00000     180.00000
         3      4853   F   0.35000     110.90000      91.00000
         3      4857   F   0.35000     110.90000     269.00000
         3      4861   F   0.30000      91.00000       0.00000
         3      4865   F   0.30000      91.00000     180.00000
         3      4869   F   0.35000     110.90000      91.00000
         3      4873   F   0.35000     110.90000     269.00000
         3      4877   F   0.30000      91.00000       0.00000
         3      4881   F   0.30000      91.00000     180.00000
         3      4885   F   0.35000     110.90000      91.00000
         3      4889   F   0.35000     110.90000     269.00000
         3      4893   F   0.30000      91.00000       0.00000
         3      4897   F   0.30000      91.00000     180.00000
         3      4901   F   0.35000     110.90000      91.00000
         3      4905   F   0.35000     110.90000     269.00000
         3      4909   F   0.30000      91.00000       0.00000
         3      4913   F   0.30000      91.00000     180.00000
         3      4917   F   0.35000     110.90000      91.00000
         3      4921   F   0.35000     110.90000     269.00000
         3      4925   F   0.30000      91.00000       0.00000
         3      4929   F   0.30000      91.00000     180.00000
         3      4933   F   0.35000     110.90000      91.00000
         3      4937   F   0.35000     110.90000     269.00000
         3      4941   F   0.30000      91.00000       0.00000
         3      4945   F   0.30000      91.00000     180.00000
         3      4949   F   0.35000     110.90000      91.00000
         3      4953   F   0.35000     110.90000     269.00000
         3      4957   F   0.30000      91.00000       0.00000
         3      4961   F   0.30000      91.00000     180.00000
         3      4965   F   0.35000     110.90000      91.00000
         3      4969   F   0.35000     110.90000     269.00000
         3      4973   F   0.30000      91.00000       0.00000
         3      4977   F   0.30000      91.00000     180.00000
         3      4981   F   0.35000     110.90000      91.00000
         3      4985   F   0.35000     110.90000     269.00000
         3      4989   F   0.30000      91.00000       0.00000
         3      4993   F   0.30000      91.00000     180.00000
         3      4997   F   0.35000     110.90000      91.00000
         3      5001   F   0.35000     110.90000     269.00000
         3      5005   F   0.30000      91.00000       0.00000
         3      5009   F   0.30000      91.00000     180.00000
         3      5013   F   0.35000     110.90000      91.00000
         3      5017   F   0.35000     110.90000     269.00000
         3      5021   F   0.30000      91.00000       0.00000
         3      5025   F   0.30000      91.00000     180.00000
         3      5029   F   0.35000     110.90000      91.00000
         3      5033   F   0.35000     110.90000     269.00000
         3      5037   F   0.30000      91.00000       0.00000
         3      5041   F   0.30000      91.00000     180.00000
         3      5045   F   0.35000     110.90000      91.00000
         3      5049   F   0.35000     110.90000     269.00000
         3      5053   F   0.30000      91.00000       0.00000
         3      5057   F   0.30000      91.00000     180.00000
         3      5061   F   0.35000     110.90000      91.00000
         3      5065   F   0.35000     110.90000     269.00000
         3      5069   F   0.30000      91.00000       0.00000
         3      5073   F   0.30000      91.00000     180.00000
         3      5077   F   0.35000     110.90000      91.00000
         3      5081   F   0.35000     110.90000     269.00000
         3      5085   F   0.30000      91.00000       0.00000
         3      5089   F   0.30000      91.00000     180.00000
         3      5093   F   0.35000     110.90000      91.00000
         3      5097   F   0.35000     110.90000     269.00000
         3      5101   F   0.30000      91.00000       0.00000
         3      5105   F   0.30000      91.00000     180.00000
         3      5109   F   0.35000     110.90000      91.00000
         3      5113   F   0.35000     110.90000     269.00000
         3      5117   F   0.30000      91.00000       0.00000
         3      5121   F   0.30000      91.00000     180.00000
         3      5125   F   0.35000     110.90000      91.00000
         3      5129   F   0.35000     110.90000     269.00000
         3      5133   F   0.30000      91.00000       0.00000
         3      5137   F   0.30000      91.00000     180.00000
         3      5141   F   0.35000     110.90000      91.00000
         3      5145   F   0.35000     110.90000     269.00000
         3      5149   F   0.30000      91.00000       0.00000
         3      5153   F   0.30000      91.00000     180.00000
         3      5157   F   0.35000     110.90000      91.00000
         3      5161   F   0.35000     110.90000     269.00000
         3      5165   F   0.30000      91.00000       0.00000
         3      5169   F   0.30000      91.00000     180.00000
         3      5173   F   0.35000     110.90000      91.00000
         3      5177   F   0.35000     110.90000     269.00000
         3      5181   F   0.30000      91.00000       0.00000
         3      5185   F   0.30000      91.00000     180.00000
         3      5189   F   0.35000     110.90000      91.00000
         3      5193   F   0.35000     110.90000     269.00000
         3      5197   F   0.30000      91.00000       0.00000
         3      5201   F   0.30000      91.00000     180.00000
         3      5205   F   0.35000     110.90000      91.00000
         3      5209   F   0.35000     110.90000     269.00000
         3      5213   F   0.30000      91.00000       0.00000
         3      5217   F   0.30000      91.00000     180.00000
         3      5221   F   0.35000     110.90000      91.00000
         3      5225   F   0.35000     110.90000     269.00000
         3      5229   F   0.30000      91.00000       0.00000
         3      5233   F   0.30000      91.00000     180.00000
         3      5237   F   0.35000     110.90000      91.00000
         3      5241   F   0.35000     110.90000     269.00000
         3      5245   F   0.30000      91.00000       0.00000
         3      5249   F   0.30000      91.00000     180.00000
         3      5253   F   0.35000     110.90000      91.00000
         3      5257   F   0.35000     110.90000     269.00000
         3      5261   F   0.30000      91.00000       0.00000
         3      5265   F   0.30000      91.00000     180.00000
         3      5269   F   0.35000     110.90000      91.00000
         3      5273   F   0.35000     110.90000     269.00000
         3      5277   F   0.30000      91.00000       0.00000
         3      5281   F   0.30000      91.00000     180.00000
         3      5285   F   0.35000     110.90000      91.00000
         3      5289   F   0.35000     110.90000     269.00000
         3      5293   F   0.30000      91.00000       0.00000
         3      5297   F   0.30000      91.00000     180.00000
         3      5301   F   0.35000     110.90000      91.00000
         3      5305   F   0.35000     110.90000     269.00000
         3      5309   F   0.30000      91.00000       0.00000
         3      5313   F   0.30000      91.00000     180.00000
         3      5317   F   0.35000     110.90000      91.00000
         3      5321   F   0.35000     110.90000     269.00000
         3      5325   F   0.30000      91.00000       0.00000
         3      5329   F   0.30000      91.00000     180.00000
         3      5333   F   0.35000     110.90000      91.00000
         3      5337   F   0.35000     110.90000     269.00000
         3      5341   F   0.30000      91.00000       0.00000
         3      5345   F   0.30000      91.00000     180.00000
         3      5349   F   0.35000     110.90000      91.00000
         3      5353   F   0.35000     110.90000     269.00000
         3      5357   F   0.30000      91.00000       0.00000
         3      5361   F   0.30000      91.00000     180.00000
         3      5365   F   0.35000     110.90000      91.00000
         3      5369   F   0.35000     110.90000     269.00000
         3      5373   F   0.30000      91.00000       0.00000
         3      5377   F   0.30000      91.00000     180.00000
         3      5381   F   0.35000     110.90000      91.00000
         3      5385   F   0.35000     110.90000     269.00000
         3      5389   F   0.30000      91.00000       0.00000
         3      5393   F   0.30000      91.00000     180.00000
         3      5397   F   0.35000     110.90000      91.00000
         3      5401   F   0.35000     110.90000     269.00000
         3      5405   F   0.30000      91.00000       0.00000
         3      5409   F   0.30000      91.00000     180.00000
         3      5413   F   0.35000     110.90000      91.00000
         3      5417   F   0.35000     110.90000     269.00000
         3      5421   F   0.30000      91.00000       0.00000
         3      5425   F   0.30000      91.00000     180.00000
         3      5429   F   0.35000     110.90000      91.00000
         3      5433   F   0.35000     110.90000     269.00000
         3      5437   F   0.30000      91.00000       0.00000
         3      5441   F   0.30000      91.00000     180.00000
         3      5445   F   0.35000     110.90000      91.00000
         3      5449   F   0.35000     110.90000     269.00000
         3      5453   F   0.30000      91.00000       0.00000
         3      5457   F   0.30000      91.00000     180.00000
         3      5461   F   0.35000     110.90000      91.00000
         3      5465   F   0.35000     110.90000     269.00000
         3      5469   F   0.30000      91.00000       0.00000
         3      5473   F   0.30000      91.00000     180.00000
         3      5477   F   0.35000     110.90000      91.00000
         3      5481   F   0.35000     110.90000     269.00000
         3      5485   F   0.30000      91.00000       0.00000
         3      5489   F   0.30000      91.00000     180.00000
         3      5493   F   0.35000     110.90000      91.00000
         3      5497   F   0.35000     110.90000     269.00000
         3      5501   F   0.30000      91.00000       0.00000
         3      5505   F   0.30000      91.00000     180.00000
         3      5509   F   0.35000     110.90000      91.00000
         3      5513   F   0.35000     110.90000     269.00000
         3      5517   F   0.30000      91.00000       0.00000
         3      5521   F   0.30000      91.00000     180.00000
         3      5525   F   0.35000     110.90000      91.00000
         3      5529   F   0.35000     110.90000     269.00000
         3      5533   F   0.30000      91.00000       0.00000
         3      5537   F   0.30000      91.00000     180.00000
         3      5541   F   0.35000     110.90000      91.00000
         3      5545   F   0.35000     110.90000     269.00000
         3      5549   F   0.30000      91.00000       0.00000
         3      5553   F   0.30000      91.00000     180.00000
         3      5557   F   0.35000     110.90000      91.00000
         3      5561   F   0.35000     110.90000     269.00000
         3      5565   F   0.30000      91.00000       0.00000
         3      5569   F   0.30000      91.00000     180.00000
         3      5573   F   0.35000     110.90000      91.00000
         3      5577   F   0.35000     110.90000     269.00000
         3      5581   F   0.30000      91.00000       0.00000
         3      5585   F   0.30000      91.00000     180.00000
         3      5589   F   0.35000     110.90000      91.00000
         3      5593   F   0.35000     110.90000     269.00000
         3      5597   F   0.30000      91.00000       0.00000
         3      5601   F   0.30000      91.00000     180.00000
         3      5605   F   0.35000     110.90000      91.00000
         3      5609   F   0.35000     110.90000     269.00000
         3      5613   F   0.30000      91.00000       0.00000
         3      5617   F   0.30000      91.00000     180.00000
         3      5621   F   0.35000     110.90000      91.00000
         3      5625   F   0.35000     110.90000     269.00000
         3      5629   F   0.30000      91.00000       0.00000
         3      5633   F   0.30000      91.00000     180.00000
         3      5637   F   0.35000     110.90000      91.00000
         3      5641   F   0.35000     110.90000     269.00000
         3      5645   F   0.30000      91.00000       0.00000
         3      5649   F   0.30000      91.00000     180.00000
         3      5653   F   0.35000     110.90000      91.00000
         3      5657   F   0.35000     110.90000     269.00000
         3      5661   F   0.30000      91.00000       0.00000
         3      5665   F   0.30000      91.00000     180.00000
         3      5669   F   0.35000     110.90000      91.00000
         3      5673   F   0.35000     110.90000     269.00000
         3      5677   F   0.30000      91.00000       0.00000
         3      5681   F   0.30000      91.00000     180.00000
         3      5685   F   0.35000     110.90000      91.00000
         3      5689   F   0.35000     110.90000     269.00000
         3      5693   F   0.30000      91.00000       0.00000
         3      5697   F   0.30000      91.00000     180.00000
         3      5701   F   0.35000     110.90000      91.00000
         3      5705   F   0.35000     110.90000     269.00000
         3      5709   F   0.30000      91.00000       0.00000
         3      5713   F   0.30000      91.00000     180.00000
         3      5717   F   0.35000     110.90000      91.00000
         3      5721   F   0.35000     110.90000     269.00000
         3      5725   F   0.30000      91.00000       0.00000
         3      5729   F   0.30000      91.00000     180.00000
         3      5733   F   0.35000     110.90000      91.00000
         3      5737   F   0.35000     110.90000     269.00000
         3      5741   F   0.30000      91.00000       0.00000
         3      5745   F   0.30000      91.00000     180.00000
         3      5749   F   0.35000     110.90000      91.00000
         3      5753   F   0.35000     110.90000     269.00000
         3      5757   F   0.30000      91.00000       0.00000
         3      5761   F   0.30000      91.00000     180.00000
         3      5765   F   0.35000     110.90000      91.00000
         3      5769   F   0.35000     110.90000     269.00000
         3      5773   F   0.30000      91.00000       0.00000
         3      5777   F   0.30000      91.00000     180.00000
         3      5781   F   0.35000     110.90000      91.00000
         3      5785   F   0.35000     110.90000     269.00000
         3      5789   F   0.30000      91.00000       0.00000
         3      5793   F   0.30000      91.00000     180.00000
         3      5797   F   0.35000     110.90000      91.00000
         3      5801   F   0.35000     110.90000     269.00000
         3      5805   F   0.30000      91.00000       0.00000
         3      5809   F   0.30000      91.00000     180.00000
         3      5813   F   0.35000     110.90000      91.00000
         3      5817   F   0.35000     110.90000     269.00000
         3      5821   F   0.30000      91.00000       0.00000
         3      5825   F   0.30000      91.00000     180.00000
         3      5829   F   0.35000     110.90000      91.00000
         3      5833   F   0.35000     110.90000     269.00000
         3      5837   F   0.30000      91.00000       0.00000
         3      5841   F   0.30000      91.00000     180.00000
         3      5845   F   0.35000     110.90000      91.00000
         3      5849   F   0.35000     110.90000     269.00000
         3      5853   F   0.30000      91.00000       0.00000
         3      5857   F   0.30000      91.00000     180.00000
         3      5861   F   0.35000     110.90000      91.00000
         3      5865   F   0.35000     110.90000     269.00000
         3      5869   F   0.30000      91.00000       0.00000
         3      5873   F   0.30000      91.00000     180.00000
         3      5877   F   0.35000     110.90000      91.00000
         3      5881   F   0.35000     110.90000     269.00000
         3      5885   F   0.30000      91.00000       0.00000
         3      5889   F   0.30000      91.00000     180.00000
         3      5893   F   0.35000     110.90000      91.00000
         3      5897   F   0.35000     110.90000     269.00000
         3      5901   F   0.30000      91.00000       0.00000
         3      5905   F   0.30000      91.00000     180.00000
         3      5909   F   0.35000     110.90000      91.00000
         3      5913   F   0.35000     110.90000     269.00000
         3      5917   F   0.30000      91.00000       0.00000
         3      5921   F   0.30000      91.00000     180.00000
         3      5925   F   0.35000     110.90000      91.00000
         3      5929   F   0.35000     110.90000     269.00000
         3      5933   F   0.30000      91.00000       0.00000
         3      5937   F   0.30000      91.00000     180.00000
         3      5941   F   0.35000     110.90000      91.00000
         3      5945   F   0.35000     110.90000     269.00000
         3      5949   F   0.30000      91.00000       0.00000
         3      5953   F   0.30000      91.00000     180.00000
         3      5957   F   0.35000     110.90000      91.00000
         3      5961   F   0.35000     110.90000     269.00000
         3      5965   F   0.30000      91.00000       0.00000
         3      5969   F   0.30000      91.00000     180.00000
         3      5973   F   0.35000     110.90000      91.00000
         3      5977   F   0.35000     110.90000     269.00000
         3      5981   F   0.30000      91.00000       0.00000
         3      5985   F   0.30000      91.00000     180.00000
         3      5989   F   0.35000     110.90000      91.00000
         3      5993   F   0.35000     110.90000     269.00000
         3      5997   F   0.30000      91.00000       0.00000
         3      6001   F   0.30000      91.00000     180.00000
         3      6005   F   0.35000     110.90000      91.00000
         3      6009   F   0.35000     110.90000     269.00000
         3      6013   F   0.30000      91.00000       0.00000
         3      6017   F   0.30000      91.00000     180.00000
         3      6021   F   0.35000     110.90000      91.00000
         3      6025   F   0.35000     110.90000     269.00000
         3      6029   F   0.30000      91.00000       0.00000
         3      6033   F   0.30000      91.00000     180.00000
         3      6037   F   0.35000     110.90000      91.00000
         3      6041   F   0.35000     110.90000     269.00000
         3      6045   F   0.30000      91.00000       0.00000
         3      6049   F   0.30000      91.00000     180.00000
         3      6053   F   0.35000     110.90000      91.00000
         3      6057   F   0.35000     110.90000     269.00000
         3      6061   F   0.30000      91.00000       0.00000
         3      6065   F   0.30000      91.00000     180.00000
         3      6069   F   0.35000     110.90000      91.00000
         3      6073   F   0.35000     110.90000     269.00000
         3      6077   F   0.30000      91.00000       0.00000
         3      6081   F   0.30000      91.00000     180.00000
         3      6085   F   0.35000     110.90000      91.00000
         3      6089   F   0.35000     110.90000     269.00000
         3      6093   F   0.30000      91.00000       0.00000
         3      6097   F   0.30000      91.00000     180.00000
         3      6101   F   0.35000     110.90000      91.00000
         3      6105   F   0.35000     110.90000     269.00000
         3      6109   F   0.30000      91.00000       0.00000
         3      6113   F   0.30000      91.00000     180.00000
         3      6117   F   0.35000     110.90000      91.00000
         3      6121   F   0.35000     110.90000     269.00000
         3      6125   F   0.30000      91.00000       0.00000
         3      6129   F   0.30000      91.00000     180.00000
         3      6133   F   0.35000     110.90000      91.00000
         3      6137   F   0.35000     110.90000     269.00000
         3      6141   F   0.30000      91.00000       0.00000
         3      6145   F   0.30000      91.00000     180.00000
         3      6149   F   0.35000     110.90000      91.00000
         3      6153   F   0.35000     110.90000     269.00000
         3      6157   F   0.30000      91.00000       0.00000
         3      6161   F   0.30000      91.00000     180.00000
         3      6165   F   0.35000     110.90000      91.00000
         3      6169   F   0.35000     110.90000     269.00000
         3      6173   F   0.30000      91.00000       0.00000
         3      6177   F   0.30000      91.00000     180.00000
         3      6181   F   0.35000     110.90000      91.00000
         3      6185   F   0.35000     110.90000     269.00000
         3      6189   F   0.30000      91.00000       0.00000
         3      6193   F   0.30000      91.00000     180.00000
         3      6197   F   0.35000     110.90000      91.00000
         3      6201   F   0.35000     110.90000     269.00000
         3      6205   F   0.30000      91.00000       0.00000
         3      6209   F   0.30000      91.00000     180.00000
         3      6213   F   0.35000     110.90000      91.00000
         3      6217   F   0.35000     110.90000     269.00000
         3      6221   F   0.30000      91.00000       0.00000
         3      6225   F   0.30000      91.00000     180.00000
         3      6229   F   0.35000     110.90000      91.00000
         3      6233   F   0.35000     110.90000     269.00000
         3      6237   F   0.30000      91.00000       0.00000
         3      6241   F   0.30000      91.00000     180.00000
         3      6245   F   0.35000     110.90000      91.00000
         3      6249   F   0.35000     110.90000     269.00000
         3      6253   F   0.30000      91.00000       0.00000
         3      6257   F   0.30000      91.00000     180.00000
         3      6261   F   0.35000     110.90000      91.00000
         3      6265   F   0.35000     110.90000     269.00000
         3      6269   F   0.30000      91.00000       0.00000
         3      6273   F   0.30000      91.00000     180.00000
         3      6277   F   0.35000     110.90000      91.00000
         3      6281   F   0.35000     110.90000     269.00000
         3      6285   F   0.30000      91.00000       0.00000
         3      6289   F   0.30000      91.00000     180.00000
         3      6293   F   0.35000     110.90000      91.00000
         3      6297   F   0.35000     110.90000     269.00000
         3      6301   F   0.30000      91.00000       0.00000
         3      6305   F   0.30000      91.00000     180.00000
         3      6309   F   0.35000     110.90000      91.00000
         3      6313   F   0.35000     110.90000     269.00000
         3      6317   F   0.30000      91.00000       0.00000
         3      6321   F   0.30000      91.00000     180.00000
         3      6325   F   0.35000     110.90000      91.00000
         3      6329   F   0.35000     110.90000     269.00000
         3      6333   F   0.30000      91.00000       0.00000
         3      6337   F   0.30000      91.00000     180.00000
         3      6341   F   0.35000     110.90000      91.00000
         3      6345   F   0.35000     110.90000     269.00000
         3      6349   F   0.30000      91.00000       0.00000
         3      6353   F   0.30000      91.00000     180.00000
         3      6357   F   0.35000     110.90000      91.00000
         3      6361   F   0.35000     110.90000     269.00000
         3      6365   F   0.30000      91.00000       0.00000
         3      6369   F   0.30000      91.00000     180.00000
         3      6373   F   0.35000     110.90000      91.00000
         3      6377   F   0.35000     110.90000     269.00000
         3      6381   F   0.30000      91.00000       0.00000
         3      6385   F   0.30000      91.00000     180.00000
         3      6389   F   0.35000     110.90000      91.00000
         3      6393   F   0.35000     110.90000     269.00000
         3      6397   F   0.30000      91.00000       0.00000
         3      6401   F   0.30000      91.00000     180.00000
         3      6405   F   0.35000     110.90000      91.00000
         3      6409   F   0.35000     110.90000     269.00000
         3      6413   F   0.30000      91.00000       0.00000
         3      6417   F   0.30000      91.00000     180.00000
         3      6421   F   0.35000     110.90000      91.00000
         3      6425   F   0.35000     110.90000     269.00000
         3      6429   F   0.30000      91.00000       0.00000
         3      6433   F   0.30000      91.00000     180.00000
         3      6437   F   0.35000     110.90000      91.00000
         3      6441   F   0.35000     110.90000     269.00000
         3      6445   F   0.30000      91.00000       0.00000
         3      6449   F   0.30000      91.00000     180.00000
         3      6453   F   0.35000     110.90000      91.00000
         3      6457   F   0.35000     110.90000     269.00000
         3      6461   F   0.30000      91.00000       0.00000
         3      6465   F   0.30000      91.00000     180.00000
         3      6469   F   0.35000     110.90000      91.00000
         3      6473   F   0.35000     110.90000     269.00000
         3      6477   F   0.30000      91.00000       0.00000
         3      6481   F   0.30000      91.00000     180.00000
         3      6485   F   0.35000     110.90000      91.00000
         3      6489   F   0.35000     110.90000     269.00000
         3      6493   F   0.30000      91.00000       0.00000
         3      6497   F   0.30000      91.00000     180.00000
         3      6501   F   0.35000     110.90000      91.00000
         3      6505   F   0.35000     110.90000     269.00000
         3      6509   F   0.30000      91.00000       0.00000
         3      6513   F   0.30000      91.00000     180.00000
         3      6517   F   0.35000     110.90000      91.00000
         3      6521   F   0.35000     110.90000     269.00000
         3      6525   F   0.30000      91.00000       0.00000
         3      6529   F   0.30000      91.00000     180.00000
         3      6533   F   0.35000     110.90000      91.00000
         3      6537   F   0.35000     110.90000     269.00000
         3      6541   F   0.30000      91.00000       0.00000
         3      6545   F   0.30000      91.00000     180.00000
         3      6549   F   0.35000     110.90000      91.00000
         3      6553   F   0.35000     110.90000     269.00000
         3      6557   F   0.30000      91.00000       0.00000
         3      6561   F   0.30000      91.00000     180.00000
         3      6565   F   0.35000     110.90000      91.00000
         3      6569   F   0.35000     110.90000     269.00000
         3      6573   F   0.30000      91.00000       0.00000
         3      6577   F   0.30000      91.00000     180.00000
         3      6581   F   0.35000     110.90000      91.00000
         3      6585   F   0.35000     110.90000     269.00000
         3      6589   F   0.30000      91.00000       0.00000
         3      6593   F   0.30000      91.00000     180.00000
         3      6597   F   0.35000     110.90000      91.00000
         3      6601   F   0.35000     110.90000     269.00000
         3      6605   F   0.30000      91.00000       0.00000
         3      6609   F   0.30000      91.00000     180.00000
         3      6613   F   0.35000     110.90000      91.00000
         3      6617   F   0.35000     110.90000     269.00000
         3      6621   F   0.30000      91.00000       0.00000
         3      6625   F   0.30000      91.00000     180.00000
         3      6629   F   0.35000     110.90000      91.00000
         3      6633   F   0.35000     110.90000     269.00000
         3      6637   F   0.30000      91.00000       0.00000
         3      6641   F   0.30000      91.00000     180.00000
         3      6645   F   0.35000     110.90000      91.00000
         3      6649   F   0.35000     110.90000     269.00000
         3      6653   F   0.30000      91.00000       0.00000
         3      6657   F   0.30000      91.00000     180.00000
         3      6661   F   0.35000     110.90000      91.00000
         3      6665   F   0.35000     110.90000     269.00000
         3      6669   F   0.30000      91.00000       0.00000
         3      6673   F   0.30000      91.00000     180.00000
         3      6677   F   0.35000     110.90000      91.00000
         3      6681   F   0.35000     110.90000     269.00000
         3      6685   F   0.30000      91.00000       0.00000
         3      6689   F   0.30000      91.00000     180.00000
         3      6693   F   0.35000     110.90000      91.00000
         3      6697   F   0.35000     110.90000     269.00000
         3      6701   F   0.30000      91.00000       0.00000
         3      6705   F   0.30000      91.00000     180.00000
         3      6709   F   0.35000     110.90000      91.00000
         3      6713   F   0.35000     110.90000     269.00000
         3      6717   F   0.30000      91.00000       0.00000
         3      6721   F   0.30000      91.00000     180.00000
         3      6725   F   0.35000     110.90000      91.00000
         3      6729   F   0.35000     110.90000     269.00000
         3      6733   F   0.30000      91.00000       0.00000
         3      6737   F   0.30000      91.00000     180.00000
         3      6741   F   0.35000     110.90000      91.00000
         3      6745   F   0.35000     110.90000     269.00000
         3      6749   F   0.30000      91.00000       0.00000
         3      6753   F   0.30000      91.00000     180.00000
         3      6757   F   0.35000     110.90000      91.00000
         3      6761   F   0.35000     110.90000     269.00000
         3      6765   F   0.30000      91.00000       0.00000
         3      6769   F   0.30000      91.00000     180.00000
         3      6773   F   0.35000     110.90000      91.00000
         3      6777   F   0.35000     110.90000     269.00000
         3      6781   F   0.30000      91.00000       0.00000
         3      6785   F   0.30000      91.00000     180.00000
         3      6789   F   0.35000     110.90000      91.00000
         3      6793   F   0.35000     110.90000     269.00000
         3      6797   F   0.30000      91.00000       0.00000
         3      6801   F   0.30000      91.00000     180.00000
         3      6805   F   0.35000     110.90000      91.00000
         3      6809   F   0.35000     110.90000     269.00000
         3      6813   F   0.30000      91.00000       0.00000
         3      6817   F   0.30000      91.00000     180.00000
         3      6821   F   0.35000     110.90000      91.00000
         3      6825   F   0.35000     110.90000     269.00000
         3      6829   F   0.30000      91.00000       0.00000
         3      6833   F   0.30000      91.00000     180.00000
         3      6837   F   0.35000     110.90000      91.00000
         3      6841   F   0.35000     110.90000     269.00000
         3      6845   F   0.30000      91.00000       0.00000
         3      6849   F   0.30000      91.00000     180.00000
         3      6853   F   0.35000     110.90000      91.00000
         3      6857   F   0.35000     110.90000     269.00000
         3      6861   F   0.30000      91.00000       0.00000
         3      6865   F   0.30000      91.00000     180.00000
         3      6869   F   0.35000     110.90000      91.00000
         3      6873   F   0.35000     110.90000     269.00000
         3      6877   F   0.30000      91.00000       0.00000
         3      6881   F   0.30000      91.00000     180.00000
         3      6885   F   0.35000     110.90000      91.00000
         3      6889   F   0.35000     110.90000     269.00000
         3      6893   F   0.30000      91.00000       0.00000
         3      6897   F   0.30000      91.00000     180.00000
         3      6901   F   0.35000     110.90000      91.00000
         3      6905   F   0.35000     110.90000     269.00000
         3      6909   F   0.30000      91.00000       0.00000
         3      6913   F   0.30000      91.00000     180.00000
         3      6917   F   0.35000     110.90000      91.00000
         3      6921   F   0.35000     110.90000     269.00000
         3      6925   F   0.30000      91.00000       0.00000
         3      6929   F   0.30000      91.00000     180.00000
         3      6933   F   0.35000     110.90000      91.00000
         3      6937   F   0.35000     110.90000     269.00000
         3      6941   F   0.30000      91.00000       0.00000
         3      6945   F   0.30000      91.00000     180.00000
         3      6949   F   0.35000     110.90000      91.00000
         3      6953   F   0.35000     110.90000     269.00000
         3      6957   F   0.30000      91.00000       0.00000
         3      6961   F   0.30000      91.00000     180.00000
         3      6965   F   0.35000     110.90000      91.00000
         3      6969   F   0.35000     110.90000     269.00000
         3      6973   F   0.30000      91.00000       0.00000
         3      6977   F   0.30000      91.00000     180.00000
         3      6981   F   0.35000     110.90000      91.00000
         3      6985   F   0.35000     110.90000     269.00000
         3      6989   F   0.30000      91.00000       0.00000
         3      6993   F   0.30000      91.00000     180.00000
         3      6997   F   0.35000     110.90000      91.00000
         3      7001   F   0.35000     110.90000     269.00000
         3      7005   F   0.30000      91.00000       0.00000
         3      7009   F   0.30000      91.00000     180.00000
         3      7013   F   0.35000     110.90000      91.00000
         3      7017   F   0.35000     110.90000     269.00000
         3      7021   F   0.30000      91.00000       0.00000
         3      7025   F   0.30000      91.00000     180.00000
         3      7029   F   0.35000     110.90000      91.00000
         3      7033   F   0.35000     110.90000     269.00000
         3      7037   F   0.30000      91.00000       0.00000
         3      7041   F   0.30000      91.00000     180.00000
         3      7045   F   0.35000     110.90000      91.00000
         3      7049   F   0.35000     110.90000     269.00000
         3      7053   F   0.30000      91.00000       0.00000
         3      7057   F   0.30000      91.00000     180.00000
         3      7061   F   0.35000     110.90000      91.00000
         3      7065   F   0.35000     110.90000     269.00000
         3      7069   F   0.30000      91.00000       0.00000
         3      7073   F   0.30000      91.00000     180.00000
         3      7077   F   0.35000     110.90000      91.00000
         3      7081   F   0.35000     110.90000     269.00000
         3      7085   F   0.30000      91.00000       0.00000
         3      7089   F   0.30000      91.00000     180.00000
         3      7093   F   0.35000     110.90000      91.00000
         3      7097   F   0.35000     110.90000     269.00000
         3      7101   F   0.30000      91.00000       0.00000
         3      7105   F   0.30000      91.00000     180.00000
         3      7109   F   0.35000     110.90000      91.00000
         3      7113   F   0.35000     110.90000     269.00000
         3      7117   F   0.30000      91.00000       0.00000
         3      7121   F   0.30000      91.00000     180.00000
         3      7125   F   0.35000     110.90000      91.00000
         3      7129   F   0.35000     110.90000     269.00000
         3      7133   F   0.30000      91.00000       0.00000
         3      7137   F   0.30000      91.00000     180.00000
         3      7141   F   0.35000     110.90000      91.00000
         3      7145   F   0.35000     110.90000     269.00000
         3      7149   F   0.30000      91.00000       0.00000
         3      7153   F   0.30000      91.00000     180.00000
         3      7157   F   0.35000     110.90000      91.00000
         3      7161   F   0.35000     110.90000     269.00000
         3      7165   F   0.30000      91.00000       0.00000
         3      7169   F   0.30000      91.00000     180.00000
         3      7173   F   0.35000     110.90000      91.00000
         3      7177   F   0.35000     110.90000     269.00000
         3      7181   F   0.30000      91.00000       0.00000
         3      7185   F   0.30000      91.00000     180.00000
         3      7189   F   0.35000     110.90000      91.00000
         3      7193   F   0.35000     110.90000     269.00000
         3      7197   F   0.30000      91.00000       0.00000
         3      7201   F   0.30000      91.00000     180.00000
         3      7205   F   0.35000     110.90000      91.00000
         3      7209   F   0.35000     110.90000     269.00000
         3      7213   F   0.30000      91.00000       0.00000
         3      7217   F   0.30000      91.00000     180.00000
         3      7221   F   0.35000     110.90000      91.00000
         3      7225   F   0.35000     110.90000     269.00000
         3      7229   F   0.30000      91.00000       0.00000
         3      7233   F   0.30000      91.00000     180.00000
         3      7237   F   0.35000     110.90000      91.00000
         3      7241   F   0.35000     110.90000     269.00000
         3      7245   F   0.30000      91.00000       0.00000
         3      7249   F   0.30000      91.00000     180.00000
         3      7253   F   0.35000     110.90000      91.00000
         3      7257   F   0.35000     110.90000     269.00000
         3      7261   F   0.30000      91.00000       0.00000
         3      7265   F   0.30000      91.00000     180.00000
         3      7269   F   0.35000     110.90000      91.00000
         3      7273   F   0.35000     110.90000     269.00000
         3      7277   F   0.30000      91.00000       0.00000
         3      7281   F   0.30000      91.00000     180.00000
         3      7285   F   0.35000     110.90000      91.00000
         3      7289   F   0.35000     110.90000     269.00000
         3      7293   F   0.30000      91.00000       0.00000
         3      7297   F   0.30000      91.00000     180.00000
         3      7301   F   0.35000     110.90000      91.00000
         3      7305   F   0.35000     110.90000     269.00000
         3      7309   F   0.30000      91.00000       0.00000
         3      7313   F   0.30000      91.00000     180.00000
         3      7317   F   0.35000     110.90000      91.00000
         3      7321   F   0.35000     110.90000     269.00000
         3      7325   F   0.30000      91.00000       0.00000
         3      7329   F   0.30000      91.00000     180.00000
         3      7333   F   0.35000     110.90000      91.00000
         3      7337   F   0.35000     110.90000     269.00000
         3      7341   F   0.30000      91.00000       0.00000
         3      7345   F   0.30000      91.00000     180.00000
         3      7349   F   0.35000     110.90000      91.00000
         3      7353   F   0.35000     110.90000     269.00000
         3      7357   F   0.30000      91.00000       0.00000
         3      7361   F   0.30000      91.00000     180.00000
         3      7365   F   0.35000     110.90000      91.00000
         3      7369   F   0.35000     110.90000     269.00000
         3      7373   F   0.30000      91.00000       0.00000
         3      7377   F   0.30000      91.00000     180.00000
         3      7381   F   0.35000     110.90000      91.00000
         3      7385   F   0.35000     110.90000     269.00000
         3      7389   F   0.30000      91.00000       0.00000
         3      7393   F   0.30000      91.00000     180.00000
         3      7397   F   0.35000     110.90000      91.00000
         3      7401   F   0.35000     110.90000     269.00000
         3      7405   F   0.30000      91.00000       0.00000
         3      7409   F   0.30000      91.00000     180.00000
         3      7413   F   0.35000     110.90000      91.00000
         3      7417   F   0.35000     110.90000     269.00000
         3      7421   F   0.30000      91.00000       0.00000
         3      7425   F   0.30000      91.00000     180.00000
         3      7429   F   0.35000     110.90000      91.00000
         3      7433   F   0.35000     110.90000     269.00000
         3      7437   F   0.30000      91.00000       0.00000
         3      7441   F   0.30000      91.00000     180.00000
         3      7445   F   0.35000     110.90000      91.00000
         3      7449   F   0.35000     110.90000     269.00000
         3      7453   F   0.30000      91.00000       0.00000
         3      7457   F   0.30000      91.00000     180.00000
         3      7461   F   0.35000     110.90000      91.00000
         3      7465   F   0.35000     110.90000     269.00000
         3      7469   F   0.30000      91.00000       0.00000
         3      7473   F   0.30000      91.00000     180.00000
         3      7477   F   0.35000     110.90000      91.00000
         3      7481   F   0.35000     110.90000     269.00000
         3      7485   F   0.30000      91.00000       0.00000
         3      7489   F   0.30000      91.00000     180.00000
         3      7493   F   0.35000     110.90000      91.00000
         3      7497   F   0.35000     110.90000     269.00000
         3      7501   F   0.30000      91.00000       0.00000
         3      7505   F   0.30000      91.00000     180.00000
         3      7509   F   0.35000     110.90000      91.00000
         3      7513   F   0.35000     110.90000     269.00000
         3      7517   F   0.30000      91.00000       0.00000
         3      7521   F   0.30000      91.00000     180.00000
         3      7525   F   0.35000     110.90000      91.00000
         3      7529   F   0.35000     110.90000     269.00000
         3      7533   F   0.30000      91.00000       0.00000
         3      7537   F   0.30000      91.00000     180.00000
         3      7541   F   0.35000     110.90000      91.00000
         3      7545   F   0.35000     110.90000     269.00000
         3      7549   F   0.30000      91.00000       0.00000
         3      7553   F   0.30000      91.00000     180.00000
         3      7557   F   0.35000     110.90000      91.00000
         3      7561   F   0.35000     110.90000     269.00000
         3      7565   F   0.30000      91.00000       0.00000
         3      7569   F   0.30000      91.00000     180.00000
         3      7573   F   0.35000     110.90000      91.00000
         3      7577   F   0.35000     110.90000     269.00000
         3      7581   F   0.30000      91.00000       0.00000
         3      7585   F   0.30000      91.00000     180.00000
         3      7589   F   0.35000     110.90000      91.00000
         3      7593   F   0.35000     110.90000     269.00000
         3      7597   F   0.30000      91.00000       0.00000
         3      7601   F   0.30000      91.00000     180.00000
         3      7605   F   0.35000     110.90000      91.00000
         3      7609   F   0.35000     110.90000     269.00000
         3      7613   F   0.30000      91.00000       0.00000
         3      7617   F   0.30000      91.00000     180.00000
         3      7621   F   0.35000     110.90000      91.00000
         3      7625   F   0.35000     110.90000     269.00000
         3      7629   F   0.30000      91.00000       0.00000
         3      7633   F   0.30000      91.00000     180.00000
         3      7637   F   0.35000     110.90000      91.00000
         3      7641   F   0.35000     110.90000     269.00000
         3      7645   F   0.30000      91.00000       0.00000
         3      7649   F   0.30000      91.00000     180.00000
         3      7653   F   0.35000     110.90000      91.00000
         3      7657   F   0.35000     110.90000     269.00000
         3      7661   F   0.30000      91.00000       0.00000
         3      7665   F   0.30000      91.00000     180.00000
         3      7669   F   0.35000     110.90000      91.00000
         3      7673   F   0.35000     110.90000     269.00000
         3      7677   F   0.30000      91.00000       0.00000
         3      7681   F   0.30000      91.00000     180.00000
         3      7685   F   0.35000     110.90000      91.00000
         3      7689   F   0.35000     110.90000     269.00000
         3      7693   F   0.30000      91.00000       0.00000
         3      7697   F   0.30000      91.00000     180.00000
         3      7701   F   0.35000     110.90000      91.00000
         3      7705   F   0.35000     110.90000     269.00000
         3      7709   F   0.30000      91.00000       0.00000
         3      7713   F   0.30000      91.00000     180.00000
         3      7717   F   0.35000     110.90000      91.00000
         3      7721   F   0.35000     110.90000     269.00000
         3      7725   F   0.30000      91.00000       0.00000
         3      7729   F   0.30000      91.00000     180.00000
         3      7733   F   0.35000     110.90000      91.00000
         3      7737   F   0.35000     110.90000     269.00000
         3      7741   F   0.30000      91.00000       0.00000
         3      7745   F   0.30000      91.00000     180.00000
         3      7749   F   0.35000     110.90000      91.00000
         3      7753   F   0.35000     110.90000     269.00000
         3      7757   F   0.30000      91.00000       0.00000
         3      7761   F   0.30000      91.00000     180.00000
         3      7765   F   0.35000     110.90000      91.00000
         3      7769   F   0.35000     110.90000     269.00000
         3      7773   F   0.30000      91.00000       0.00000
         3      7777   F   0.30000      91.00000     180.00000
         3      7781   F   0.35000     110.90000      91.00000
         3      7785   F   0.35000     110.90000     269.00000
         3      7789   F   0.30000      91.00000       0.00000
         3      7793   F   0.30000      91.00000     180.00000
         3      7797   F   0.35000     110.90000      91.00000
         3      7801   F   0.35000     110.90000     269.00000
         3      7805   F   0.30000      91.00000       0.00000
         3      7809   F   0.30000      91.00000     180.00000
         3      7813   F   0.35000     110.90000      91.00000
         3      7817   F   0.35000     110.90000     269.00000
         3      7821   F   0.30000      91.00000       0.00000
         3      7825   F   0.30000      91.00000     180.00000
         3      7829   F   0.35000     110.90000      91.00000
         3      7833   F   0.35000     110.90000     269.00000
         3      7837   F   0.30000      91.00000       0.00000
         3      7841   F   0.30000      91.00000     180.00000
         3      7845   F   0.35000     110.90000      91.00000
         3      7849   F   0.35000     110.90000     269.00000
         3      7853   F   0.30000      91.00000       0.00000
         3      7857   F   0.30000      91.00000     180.00000
         3      7861   F   0.35000     110.90000      91.00000
         3      7865   F   0.35000     110.90000     269.00000
         3      7869   F   0.30000      91.00000       0.00000
         3      7873   F   0.30000      91.00000     180.00000
         3      7877   F   0.35000     110.90000      91.00000
         3      7881   F   0.35000     110.90000     269.00000
         3      7885   F   0.30000      91.00000       0.00000
         3      7889   F   0.30000      91.00000     180.00000
         3      7893   F   0.35000     110.90000      91.00000
         3      7897   F   0.35000     110.90000     269.00000
         3      7901   F   0.30000      91.00000       0.00000
         3      7905   F   0.30000      91.00000     180.00000
         3      7909   F   0.35000     110.90000      91.00000
         3      7913   F   0.35000     110.90000     269.00000
         3      7917   F   0.30000      91.00000       0.00000
         3      7921   F   0.30000      91.00000     180.00000
         3      7925   F   0.35000     110.90000      91.00000
         3      7929   F   0.35000     110.90000     269.00000
         3      7933   F   0.30000      91.00000       0.00000
         3      7937   F   0.30000      91.00000     180.00000
         3      7941   F   0.35000     110.90000      91.00000
         3      7945   F   0.35000     110.90000     269.00000
         3      7949   F   0.30000      91.00000       0.00000
         3      7953   F   0.30000      91.00000     180.00000
         3      7957   F   0.35000     110.90000      91.00000
         3      7961   F   0.35000     110.90000     269.00000
         3      7965   F   0.30000      91.00000       0.00000
         3      7969   F   0.30000      91.00000     180.00000
         3      7973   F   0.35000     110.90000      91.00000
         3      7977   F   0.35000     110.90000     269.00000
         3      7981   F   0.30000      91.00000       0.00000
         3      7985   F   0.30000      91.00000     180.00000
         3      7989   F   0.35000     110.90000      91.00000
         3      7993   F   0.35000     110.90000     269.00000
         3      7997   F   0.30000      91.00000       0.00000
         3      8001   F   0.30000      91.00000     180.00000
         3      8005   F   0.35000     110.90000      91.00000
         3      8009   F   0.35000     110.90000     269.00000
         3      8013   F   0.30000      91.00000       0.00000
         3      8017   F   0.30000      91.00000     180.00000
         3      8021   F   0.35000     110.90000      91.00000
         3      8025   F   0.35000     110.90000     269.00000
         3      8029   F   0.30000      91.00000       0.00000
         3      8033   F   0.30000      91.00000     180.00000
         3      8037   F   0.35000     110.90000      91.00000
         3      8041   F   0.35000     110.90000     269.00000
         3      8045   F   0.30000      91.00000       0.00000
         3      8049   F   0.30000      91.00000     180.00000
         3      8053   F   0.35000     110.90000      91.00000
         3      8057   F   0.35000     110.90000     269.00000
         3      8061   F   0.30000      91.00000       0.00000
         3      8065   F   0.30000      91.00000     180.00000
         3      8069   F   0.35000     110.90000      91.00000
         3      8073   F   0.35000     110.90000     269.00000
         3      8077   F   0.30000      91.00000       0.00000
         3      8081   F   0.30000      91.00000     180.00000
         3      8085   F   0.35000     110.90000      91.00000
         3      8089   F   0.35000     110.90000     269.00000
         3      8093   F   0.30000      91.00000       0.00000
         3      8097   F   0.30000      91.00000     180.00000
         3      8101   F   0.35000     110.90000      91.00000
         3      8105   F   0.35000     110.90000     269.00000
         3      8109   F   0.30000      91.00000       0.00000
         3      8113   F   0.30000      91.00000     180.00000
         3      8117   F   0.35000     110.90000      91.00000
         3      8121   F   0.35000     110.90000     269.00000
         3      8125   F   0.30000      91.00000       0.00000
         3      8129   F   0.30000      91.00000     180.00000
         3      8133   F   0.35000     110.90000      91.00000
         3      8137   F   0.35000     110.90000     269.00000
         3      8141   F   0.30000      91.00000       0.00000
         3      8145   F   0.30000      91.00000     180.00000
         3      8149   F   0.35000     110.90000      91.00000
         3      8153   F   0.35000     110.90000     269.00000
         3      8157   F   0.30000      91.00000       0.00000
         3      8161   F   0.30000      91.00000     180.00000
         3      8165   F   0.35000     110.90000      91.00000
         3      8169   F   0.35000     110.90000     269.00000
         3      8173   F   0.30000      91.00000       0.00000
         3      8177   F   0.30000      91.00000     180.00000
         3      8181   F   0.35000     110.90000      91.00000
         3      8185   F   0.35000     110.90000     269.00000
         3      8189   F   0.30000      91.00000       0.00000
         3      8193   F   0.30000      91.00000     180.00000
         3      8197   F   0.35000     110.90000      91.00000
         3      8201   F   0.35000     110.90000     269.00000
         3      8205   F   0.30000      91.00000       0.00000
         3      8209   F   0.30000      91.00000     180.00000
         3      8213   F   0.35000     110.90000      91.00000
         3      8217   F   0.35000     110.90000     269.00000
         3      8221   F   0.30000      91.00000       0.00000
         3      8225   F   0.30000      91.00000     180.00000
         3      8229   F   0.35000     110.90000      91.00000
         3      8233   F   0.35000     110.90000     269.00000
         3      8237   F   0.30000      91.00000       0.00000
         3      8241   F   0.30000      91.00000     180.00000
         3      8245   F   0.35000     110.90000      91.00000
         3      8249   F   0.35000     110.90000     269.00000
         3      8253   F   0.30000      91.00000       0.00000
         3      8257   F   0.30000      91.00000     180.00000
         3      8261   F   0.35000     110.90000      91.00000
         3      8265   F   0.35000     110.90000     269.00000
         3      8269   F   0.30000      91.00000       0.00000
         3      8273   F   0.30000      91.00000     180.00000
         3      8277   F   0.35000     110.90000      91.00000
         3      8281   F   0.35000     110.90000     269.00000
         3      8285   F   0.30000      91.00000       0.00000
         3      8289   F   0.30000      91.00000     180.00000
         3      8293   F   0.35000     110.90000      91.00000
         3      8297   F   0.35000     110.90000     269.00000
         3      8301   F   0.30000      91.00000       0.00000
         3      8305   F   0.30000      91.00000     180.00000
         3      8309   F   0.35000     110.90000      91.00000
         3      8313   F   0.35000     110.90000     269.00000
         3      8317   F   0.30000      91.00000       0.00000
         3      8321   F   0.30000      91.00000     180.00000
         3      8325   F   0.35000     110.90000      91.00000
         3      8329   F   0.35000     110.90000     269.00000
         3      8333   F   0.30000      91.00000       0.00000
         3      8337   F   0.30000      91.00000     180.00000
         3      8341   F   0.35000     110.90000      91.00000
         3      8345   F   0.35000     110.90000     269.00000
         3      8349   F   0.30000      91.00000       0.00000
         3      8353   F   0.30000      91.00000     180.00000
         3      8357   F   0.35000     110.90000      91.00000
         3      8361   F   0.35000     110.90000     269.00000
         3      8365   F   0.30000      91.00000       0.00000
         3      8369   F   0.30000      91.00000     180.00000
         3      8373   F   0.35000     110.90000      91.00000
         3      8377   F   0.35000     110.90000     269.00000
         3      8381   F   0.30000      91.00000       0.00000
         3      8385   F   0.30000      91.00000     180.00000
         3      8389   F   0.35000     110.90000      91.00000
         3      8393   F   0.35000     110.90000     269.00000
         3      8397   F   0.30000      91.00000       0.00000
         3      8401   F   0.30000      91.00000     180.00000
         3      8405   F   0.35000     110.90000      91.00000
         3      8409   F   0.35000     110.90000     269.00000
         3      8413   F   0.30000      91.00000       0.00000
         3      8417   F   0.30000      91.00000     180.00000
         3      8421   F   0.35000     110.90000      91.00000
         3      8425   F   0.35000     110.90000     269.00000
         3      8429   F   0.30000      91.00000       0.00000
         3      8433   F   0.30000      91.00000     180.00000
         3      8437   F   0.35000     110.90000      91.00000
         3      8441   F   0.35000     110.90000     269.00000
         3      8445   F   0.30000      91.00000       0.00000
         3      8449   F   0.30000      91.00000     180.00000
         3      8453   F   0.35000     110.90000      91.00000
         3      8457   F   0.35000     110.90000     269.00000
         3      8461   F   0.30000      91.00000       0.00000
         3      8465   F   0.30000      91.00000     180.00000
         3      8469   F   0.35000     110.90000      91.00000
         3      8473   F   0.35000     110.90000     269.00000
         3      8477   F   0.30000      91.00000       0.00000
         3      8481   F   0.30000      91.00000     180.00000
         3      8485   F   0.35000     110.90000      91.00000
         3      8489   F   0.35000     110.90000     269.00000
         3      8493   F   0.30000      91.00000       0.00000
         3      8497   F   0.30000      91.00000     180.00000
         3      8501   F   0.35000     110.90000      91.00000
         3      8505   F   0.35000     110.90000     269.00000
         3      8509   F   0.30000      91.00000       0.00000
         3      8513   F   0.30000      91.00000     180.00000
         3      8517   F   0.35000     110.90000      91.00000
         3      8521   F   0.35000     110.90000     269.00000
         3      8525   F   0.30000      91.00000       0.00000
         3      8529   F   0.30000      91.00000     180.00000
         3      8533   F   0.35000     110.90000      91.00000
         3      8537   F   0.35000     110.90000     269.00000
         3      8541   F   0.30000      91.00000       0.00000
         3      8545   F   0.30000      91.00000     180.00000
         3      8549   F   0.35000     110.90000      91.00000
         3      8553   F   0.35000     110.90000     269.00000
         3      8557   F   0.30000      91.00000       0.00000
         3      8561   F   0.30000      91.00000     180.00000
         3      8565   F   0.35000     110.90000      91.00000
         3      8569   F   0.35000     110.90000     269.00000
         3      8573   F   0.30000      91.00000       0.00000
         3      8577   F   0.30000      91.00000     180.00000
         3      8581   F   0.35000     110.90000      91.00000
         3      8585   F   0.35000     110.90000     269.00000
         3      8589   F   0.30000      91.00000       0.00000
         3      8593   F   0.30000      91.00000     180.00000
         3      8597   F   0.35000     110.90000      91.00000
         3      8601   F   0.35000     110.90000     269.00000
         3      8605   F   0.30000      91.00000       0.00000
         3      8609   F   0.30000      91.00000     180.00000
         3      8613   F   0.35000     110.90000      91.00000
         3      8617   F   0.35000     110.90000     269.00000
         3      8621   F   0.30000      91.00000       0.00000
         3      8625   F   0.30000      91.00000     180.00000
         3      8629   F   0.35000     110.90000      91.00000
         3      8633   F   0.35000     110.90000     269.00000
         3      8637   F   0.30000      91.00000       0.00000
         3      8641   F   0.30000      91.00000     180.00000
         3      8645   F   0.35000     110.90000      91.00000
         3      8649   F   0.35000     110.90000     269.00000
         3      8653   F   0.30000      91.00000       0.00000
         3      8657   F   0.30000      91.00000     180.00000
         3      8661   F   0.35000     110.90000      91.00000
         3      8665   F   0.35000     110.90000     269.00000
         3      8669   F   0.30000      91.00000       0.00000
         3      8673   F   0.30000      91.00000     180.00000
         3      8677   F   0.35000     110.90000      91.00000
         3      8681   F   0.35000     110.90000     269.00000
         3      8685   F   0.30000      91.00000       0.00000
         3      8689   F   0.30000      91.00000     180.00000
         3      8693   F   0.35000     110.90000      91.00000
         3      8697   F   0.35000     110.90000     269.00000
         3      8701   F   0.30000      91.00000       0.00000
         3      8705   F   0.30000      91.00000     180.00000
         3      8709   F   0.35000     110.90000      91.00000
         3      8713   F   0.35000     110.90000     269.00000
         3      8717   F   0.30000      91.00000       0.00000
         3      8721   F   0.30000      91.00000     180.00000
         3      8725   F   0.35000     110.90000      91.00000
         3      8729   F   0.35000     110.90000     269.00000
         3      8733   F   0.30000      91.00000       0.00000
         3      8737   F   0.30000      91.00000     180.00000
         3      8741   F   0.35000     110.90000      91.00000
         3      8745   F   0.35000     110.90000     269.00000
         3      8749   F   0.30000      91.00000       0.00000
         3      8753   F   0.30000      91.00000     180.00000
         3      8757   F   0.35000     110.90000      91.00000
         3      8761   F   0.35000     110.90000     269.00000
         3      8765   F   0.30000      91.00000       0.00000
         3      8769   F   0.30000      91.00000     180.00000
         3      8773   F   0.35000     110.90000      91.00000
         3      8777   F   0.35000     110.90000     269.00000
         3      8781   F   0.30000      91.00000       0.00000
         3      8785   F   0.30000      91.00000     180.00000
         3      8789   F   0.35000     110.90000      91.00000
         3      8793   F   0.35000     110.90000     269.00000
         3      8797   F   0.30000      91.00000       0.00000
         3      8801   F   0.30000      91.00000     180.00000
         3      8805   F   0.35000     110.90000      91.00000
         3      8809   F   0.35000     110.90000     269.00000
         3      8813   F   0.30000      91.00000       0.00000
         3      8817   F   0.30000      91.00000     180.00000
         3      8821   F   0.35000     110.90000      91.00000
         3      8825   F   0.35000     110.90000     269.00000
         3      8829   F   0.30000      91.00000       0.00000
         3      8833   F   0.30000      91.00000     180.00000
         3      8837   F   0.35000     110.90000      91.00000
         3      8841   F   0.35000     110.90000     269.00000
         3      8845   F   0.30000      91.00000       0.00000
         3      8849   F   0.30000      91.00000     180.00000
         3      8853   F   0.35000     110.90000      91.00000
         3      8857   F   0.35000     110.90000     269.00000
         3      8861   F   0.30000      91.00000       0.00000
         3      8865   F   0.30000      91.00000     180.00000
         3      8869   F   0.35000     110.90000      91.00000
         3      8873   F   0.35000     110.90000     269.00000
         3      8877   F   0.30000      91.00000       0.00000
         3      8881   F   0.30000      91.00000     180.00000
         3      8885   F   0.35000     110.90000      91.00000
         3      8889   F   0.35000     110.90000     269.00000
         3      8893   F   0.30000      91.00000       0.00000
         3      8897   F   0.30000      91.00000     180.00000
         3      8901   F   0.35000     110.90000      91.00000
         3      8905   F   0.35000     110.90000     269.00000
         3      8909   F   0.30000      91.00000       0.00000
         3      8913   F   0.30000      91.00000     180.00000
         3      8917   F   0.35000     110.90000      91.00000
         3      8921   F   0.35000     110.90000     269.00000
         3      8925   F   0.30000      91.00000       0.00000
         3      8929   F   0.30000      91.00000     180.00000
         3      8933   F   0.35000     110.90000      91.00000
         3      8937   F   0.35000     110.90000     269.00000
         3      8941   F   0.30000      91.00000       0.00000
         3      8945   F   0.30000      91.00000     180.00000
         3      8949   F   0.35000     110.90000      91.00000
         3      8953   F   0.35000     110.90000     269.00000
         3      8957   F   0.30000      91.00000       0.00000
         3      8961   F   0.30000      91.00000     180.00000
         3      8965   F   0.35000     110.90000      91.00000
         3      8969   F   0.35000     110.90000     269.00000
         3      8973   F   0.30000      91.00000       0.00000
         3      8977   F   0.30000      91.00000     180.00000
         3      8981   F   0.35000     110.90000      91.00000
         3      8985   F   0.35000     110.90000     269.00000
         3      8989   F   0.30000      91.00000       0.00000
         3      8993   F   0.30000      91.00000     180.00000
         3      8997   F   0.35000     110.90000      91.00000
         3      9001   F   0.35000     110.90000     269.00000
         3      9005   F   0.30000      91.00000       0.00000
         3      9009   F   0.30000      91.00000     180.00000
         3      9013   F   0.35000     110.90000      91.00000
         3      9017   F   0.35000     110.90000     269.00000
         3      9021   F   0.30000      91.00000       0.00000
         3      9025   F   0.30000      91.00000     180.00000
         3      9029   F   0.35000     110.90000      91.00000
         3      9033   F   0.35000     110.90000     269.00000
         3      9037   F   0.30000      91.00000       0.00000
         3      9041   F   0.30000      91.00000     180.00000
         3      9045   F   0.35000     110.90000      91.00000
         3      9049   F   0.35000     110.90000     269.00000
         3      9053   F   0.30000      91.00000       0.00000
         3      9057   F   0.30000      91.00000     180.00000
         3      9061   F   0.35000     110.90000      91.00000
         3      9065   F   0.35000     110.90000     269.00000
         3      9069   F   0.30000      91.00000       0.00000
         3      9073   F   0.30000      91.00000     180.00000
         3      9077   F   0.35000     110.90000      91.00000
         3      9081   F   0.35000     110.90000     269.00000
         3      9085   F   0.30000      91.00000       0.00000
         3      9089   F   0.30000      91.00000     180.00000
         3      9093   F   0.35000     110.90000      91.00000
         3      9097   F   0.35000     110.90000     269.00000
         3      9101   F   0.30000      91.00000       0.00000
         3      9105   F   0.30000      91.00000     180.00000
         3      9109   F   0.35000     110.90000      91.00000
         3      9113   F   0.35000     110.90000     269.00000
         3      9117   F   0.30000      91.00000       0.00000
         3      9121   F   0.30000      91.00000     180.00000
         3      9125   F   0.35000     110.90000      91.00000
         3      9129   F   0.35000     110.90000     269.00000
         3      9133   F   0.30000      91.00000       0.00000
         3      9137   F   0.30000      91.00000     180.00000
         3      9141   F   0.35000     110.90000      91.00000
         3      9145   F   0.35000     110.90000     269.00000
         3      9149   F   0.30000      91.00000       0.00000
         3      9153   F   0.30000      91.00000     180.00000
         3      9157   F   0.35000     110.90000      91.00000
         3      9161   F   0.35000     110.90000     269.00000
         3      9165   F   0.30000      91.00000       0.00000
         3      9169   F   0.30000      91.00000     180.00000
         3      9173   F   0.35000     110.90000      91.00000
         3      9177   F   0.35000     110.90000     269.00000
         3      9181   F   0.30000      91.00000       0.00000
         3      9185   F   0.30000      91.00000     180.00000
         3      9189   F   0.35000     110.90000      91.00000
         3      9193   F   0.35000     110.90000     269.00000
         3      9197   F   0.30000      91.00000       0.00000
         3      9201   F   0.30000      91.00000     180.00000
         3      9205   F   0.35000     110.90000      91.00000
         3      9209   F   0.35000     110.90000     269.00000
         3      9213   F   0.30000      91.00000       0.00000
         3      9217   F   0.30000      91.00000     180.00000
         3      9221   F   0.35000     110.90000      91.00000
         3      9225   F   0.35000     110.90000     269.00000
         3      9229   F   0.30000      91.00000       0.00000
         3      9233   F   0.30000      91.00000     180.00000
         3      9237   F   0.35000     110.90000      91.00000
         3      9241   F   0.35000     110.90000     269.00000
         3      9245   F   0.30000      91.00000       0.00000
         3      9249   F   0.30000      91.00000     180.00000
         3      9253   F   0.35000     110.90000      91.00000
         3      9257   F   0.35000     110.90000     269.00000
         3      9261   F   0.30000      91.00000       0.00000
         3      9265   F   0.30000      91.00000     180.00000
         3      9269   F   0.35000     110.90000      91.00000
         3      9273   F   0.35000     110.90000     269.00000
         3      9277   F   0.30000      91.00000       0.00000
         3      9281   F   0.30000      91.00000     180.00000
         3      9285   F   0.35000     110.90000      91.00000
         3      9289   F   0.35000     110.90000     269.00000
         3      9293   F   0.30000      91.00000       0.00000
         3      9297   F   0.30000      91.00000     180.00000
         3      9301   F   0.35000     110.90000      91.00000
         3      9305   F   0.35000     110.90000     269.00000
         3      9309   F   0.30000      91.00000       0.00000
         3      9313   F   0.30000      91.00000     180.00000
         3      9317   F   0.35000     110.90000      91.00000
         3      9321   F   0.35000     110.90000     269.00000
         3      9325   F   0.30000      91.00000       0.00000
         3      9329   F   0.30000      91.00000     180.00000
         3      9333   F   0.35000     110.90000      91.00000
         3      9337   F   0.35000     110.90000     269.00000
         3      9341   F   0.30000      91.00000       0.00000
         3      9345   F   0.30000      91.00000     180.00000
         3      9349   F   0.35000     110.90000      91.00000
         3      9353   F   0.35000     110.90000     269.00000
         3      9357   F   0.30000      91.00000       0.00000
         3      9361   F   0.30000      91.00000     180.00000
         3      9365   F   0.35000     110.90000      91.00000
         3      9369   F   0.35000     110.90000     269.00000
         3      9373   F   0.30000      91.00000       0.00000
         3      9377   F   0.30000      91.00000     180.00000
         3      9381   F   0.35000     110.90000      91.00000
         3      9385   F   0.35000     110.90000     269.00000
         3      9389   F   0.30000      91.00000       0.00000
         3      9393   F   0.30000      91.00000     180.00000
         3      9397   F   0.35000     110.90000      91.00000
         3      9401   F   0.35000     110.90000     269.00000
         3      9405   F   0.30000      91.00000       0.00000
         3      9409   F   0.30000      91.00000     180.00000
         3      9413   F   0.35000     110.90000      91.00000
         3      9417   F   0.35000     110.90000     269.00000
         3      9421   F   0.30000      91.00000       0.00000
         3      9425   F   0.30000      91.00000     180.00000
         3      9429   F   0.35000     110.90000      91.00000
         3      9433   F   0.35000     110.90000     269.00000
         3      9437   F   0.30000      91.00000       0.00000
         3      9441   F   0.30000      91.00000     180.00000
         3      9445   F   0.35000     110.90000      91.00000
         3      9449   F   0.35000     110.90000     269.00000
         3      9453   F   0.30000      91.00000       0.00000
         3      9457   F   0.30000      91.00000     180.00000
         3      9461   F   0.35000     110.90000      91.00000
         3      9465   F   0.35000     110.90000     269.00000
         3      9469   F   0.30000      91.00000       0.00000
         3      9473   F   0.30000      91.00000     180.00000
         3      9477   F   0.35000     110.90000      91.00000
         3      9481   F   0.35000     110.90000     269.00000
         3      9485   F   0.30000      91.00000       0.00000
         3      9489   F   0.30000      91.00000     180.00000
         3      9493   F   0.35000     110.90000      91.00000
         3      9497   F   0.35000     110.90000     269.00000
         3      9501   F   0.30000      91.00000       0.00000
         3      9505   F   0.30000      91.00000     180.00000
         3      9509   F   0.35000     110.90000      91.00000
         3      9513   F   0.35000     110.90000     269.00000
         3      9517   F   0.30000      91.00000       0.00000
         3      9521   F   0.30000      91.00000     180.00000
         3      9525   F   0.35000     110.90000      91.00000
         3      9529   F   0.35000     110.90000     269.00000
         3      9533   F   0.30000      91.00000       0.00000
         3      9537   F   0.30000      91.00000     180.00000
         3      9541   F   0.35000     110.90000      91.00000
         3      9545   F   0.35000     110.90000     269.00000
         3      9549   F   0.30000      91.00000       0.00000
         3      9553   F   0.30000      91.00000     180.00000
         3      9557   F   0.35000     110.90000      91.00000
         3      9561   F   0.35000     110.90000     269.00000
         3      9565   F   0.30000      91.00000       0.00000
         3      9569   F   0.30000      91.00000     180.00000
         3      9573   F   0.35000     110.90000      91.00000
         3      9577   F   0.35000     110.90000     269.00000
         3      9581   F   0.30000      91.00000       0.00000
         3      9585   F   0.30000      91.00000     180.00000
         3      9589   F   0.35000     110.90000      91.00000
         3      9593   F   0.35000     110.90000     269.00000
         3      9597   F   0.30000      91.00000       0.00000
         3      9601   F   0.30000      91.00000     180.00000
         3      9605   F   0.35000     110.90000      91.00000
         3      9609   F   0.35000     110.90000     269.00000
         3      9613   F   0.30000      91.00000       0.00000
         3      9617   F   0.30000      91.00000     180.00000
         3      9621   F   0.35000     110.90000      91.00000
         3      9625   F   0.35000     110.90000     269.00000
         3      9629   F   0.30000      91.00000       0.00000
         3      9633   F   0.30000      91.00000     180.00000
         3      9637   F   0.35000     110.90000      91.00000
         3      9641   F   0.35000     110.90000     269.00000
         3      9645   F   0.30000      91.00000       0.00000
         3      9649   F   0.30000      91.00000     180.00000
         3      9653   F   0.35000     110.90000      91.00000
         3      9657   F   0.35000     110.90000     269.00000
         3      9661   F   0.30000      91.00000       0.00000
         3      9665   F   0.30000      91.00000     180.00000
         3      9669   F   0.35000     110.90000      91.00000
         3      9673   F   0.35000     110.90000     269.00000
         3      9677   F   0.30000      91.00000       0.00000
         3      9681   F   0.30000      91.00000     180.00000
         3      9685   F   0.35000     110.90000      91.00000
         3      9689   F   0.35000     110.90000     269.00000
         3      9693   F   0.30000      91.00000       0.00000
         3      9697   F   0.30000      91.00000     180.00000
         3      9701   F   0.35000     110.90000      91.00000
         3      9705   F   0.35000     110.90000     269.00000
         3      9709   F   0.30000      91.00000       0.00000
         3      9713   F   0.30000      91.00000     180.00000
         3      9717   F   0.35000     110.90000      91.00000
         3      9721   F   0.35000     110.90000     269.00000
         3      9725   F   0.30000      91.00000       0.00000
         3      9729   F   0.30000      91.00000     180.00000
         3      9733   F   0.35000     110.90000      91.00000
         3      9737   F   0.35000     110.90000     269.00000
         3      9741   F   0.30000      91.00000       0.00000
         3      9745   F   0.30000      91.00000     180.00000
         3      9749   F   0.35000     110.90000      91.00000
         3      9753   F   0.35000     110.90000     269.00000
         3      9757   F   0.30000      91.00000       0.00000
         3      9761   F   0.30000      91.00000     180.00000
         3      9765   F   0.35000     110.90000      91.00000
         3      9769   F   0.35000     110.90000     269.00000
         3      9773   F   0.30000      91.00000       0.00000
         3      9777   F   0.30000      91.00000     180.00000
         3      9781   F   0.35000     110.90000      91.00000
         3      9785   F   0.35000     110.90000     269.00000
         3      9789   F   0.30000      91.00000       0.00000
         3      9793   F   0.30000      91.00000     180.00000
         3      9797   F   0.35000     110.90000      91.00000
         3      9801   F   0.35000     110.90000     269.00000
         3      9805   F   0.30000      91.00000       0.00000
         3      9809   F   0.30000      91.00000     180.00000
         3      9813   F   0.35000     110.90000      91.00000
         3      9817   F   0.35000     110.90000     269.00000
         3      9821   F   0.30000      91.00000       0.00000
         3      9825   F   0.30000      91.00000     180.00000
         3      9829   F   0.35000     110.90000      91.00000
         3      9833   F   0.35000     110.90000     269.00000
         3      9837   F   0.30000      91.00000       0.00000
         3      9841   F   0.30000      91.00000     180.00000
         3      9845   F   0.35000     110.90000      91.00000
         3      9849   F   0.35000     110.90000     269.00000
         3      9853   F   0.30000      91.00000       0.00000
         3      9857   F   0.30000      91.00000     180.00000
         3      9861   F   0.35000     110.90000      91.00000
         3      9865   F   0.35000     110.90000     269.00000
         3      9869   F   0.30000      91.00000       0.00000
         3      9873   F   0.30000      91.00000     180.00000
         3      9877   F   0.35000     110.90000      91.00000
         3      9881   F   0.35000     110.90000     269.00000
         3      9885   F   0.30000      91.00000       0.00000
         3      9889   F   0.30000      91.00000     180.00000
         3      9893   F   0.35000     110.90000      91.00000
         3      9897   F   0.35000     110.90000     269.00000
         3      9901   F   0.30000      91.00000       0.00000
         3      9905   F   0.30000      91.00000     180.00000
         3      9909   F   0.35000     110.90000      91.00000
         3      9913   F   0.35000     110.90000     269.00000
         3      9917   F   0.30000      91.00000       0.00000
         3      9921   F   0.30000      91.00000     180.00000
         3      9925   F   0.35000     110.90000      91.00000
         3      9929   F   0.35000     110.90000     269.00000
         3      9933   F   0.30000      91.00000       0.00000
         3      9937   F   0.30000      91.00000     180.00000
         3      9941   F   0.35000     110.90000      91.00000
         3      9945   F   0.35000     110.90000     269.00000
         3      9949   F   0.30000      91.00000       0.00000
         3      9953   F   0.30000      91.00000     180.00000
         3      9957   F   0.35000     110.90000      91.00000
         3      9961   F   0.35000     110.90000     269.00000
         3      9965   F   0.30000      91.00000       0.00000
         3      9969   F   0.30000      91.00000     180.00000
         3      9973   F   0.35000     110.90000      91.00000
         3      9977   F   0.35000     110.90000     269.00000
         3      9981   F   0.30000      91.00000       0.00000
         3      9985   F   0.30000      91.00000     180.00000
         3      9989   F   0.35000     110.90000      91.00000
         3      9993   F   0.35000     110.90000     269.00000
         3      9997   F   0.30000      91.00000       0.00000
         3     10001   F   0.30000      91.00000     180.00000
         3     10005   F   0.35000     110.90000      91.00000
         3     10009   F   0.35000     110.90000     269.00000
         3     10013   F   0.30000      91.00000       0.00000
         3     10017   F   0.30000      91.00000     180.00000
         3     10021   F   0.35000     110.90000      91.00000
         3     10025   F   0.35000     110.90000     269.00000
         3     10029   F   0.35000     110.00000       0.00000
         3     10033   F   0.35000     110.00000     180.00000
         3     10037   F   0.35000     110.00000       0.00000
         3     10041   F   0.35000     110.00000     180.00000
         3     10045   F   0.35000     110.00000       0.00000
         3     10049   F   0.35000     110.00000     180.00000
         3     10053   F   0.35000     110.00000       0.00000
         3     10057   F   0.35000     110.00000     180.00000
         3     10061   F   0.35000     110.00000       0.00000
         3     10065   F   0.35000     110.00000     180.00000
         3     10069   F   0.35000     110.00000       0.00000
         3     10073   F   0.35000     110.00000     180.00000
         3     10077   F   0.35000     110.00000       0.00000
         3     10081   F   0.35000     110.00000     180.00000
         3     10085   F   0.35000     110.00000       0.00000
         3     10089   F   0.35000     110.00000     180.00000
         3     10093   F   0.35000     110.00000       0.00000
         3     10097   F   0.35000     110.00000     180.00000
         3     10101   F   0.35000     110.00000       0.00000
         3     10105   F   0.35000     110.00000     180.00000
         3     10109   F   0.35000     110.00000       0.00000
         3     10113   F   0.35000     110.00000     180.00000
         3     10117   F   0.35000     110.00000       0.00000
         3     10121   F   0.35000     110.00000     180.00000
         3     10125   F   0.35000     110.00000       0.00000
         3     10129   F   0.35000     110.00000     180.00000
         3     10133   F   0.35000     110.00000       0.00000
         3     10137   F   0.35000     110.00000     180.00000
         3     10141   F   0.35000     110.00000       0.00000
         3     10145   F   0.35000     110.00000     180.00000
         3     10149   F   0.35000     110.00000       0.00000
         3     10153   F   0.35000     110.00000     180.00000
         3     10157   F  -0.35000     110.00000      90.00000
         3     10161   F  -0.35000     110.00000     270.00000
         3     10165   F   0.35000     110.00000       0.00000
         3     10169   F   0.35000     110.00000     180.00000
         3     10173   F   0.35000     110.00000       0.00000
         3     10177   F   0.35000     110.00000     180.00000
         3     10181   F   0.35000     110.00000       0.00000
         3     10185   F   0.35000     110.00000     180.00000
        20        17        14        11        40        37        34        31
        60        57        54        51        80        77        74        71
       100        97        94        91       120       117       114       111
       140       137       134       131       160       157       154       151
       180       177       174       171       200       197       194       191
       220       217       214       211       240       237       234       231
       260       257       254       251       280       277       274       271
       300       297       294       291       320       317       314       311
       340       337       334       331       360       357       354       351
       380       377       374       371       400       397       394       391
       420       417       414       411       440       437       434       431
       460       457       454       451       480       477       474       471
       500       497       494       491       520       517       514       511
       540       537       534       531       560       557       554       551
       580       577       574       571       600       597       594       591
       620       617       614       611       640       637       634       631
       660       657       654       651       680       677       674       671
       700       697       694       691       720       717       714       711
       740       737       734       731       760       757       754       751
       780       777       774       771       800       797       794       791
       820       817       814       811       840       837       834       831
       860       857       854       851       880       877       874       871
       900       897       894       891       920       917       914       911
       940       937       934       931       960       957       954       951
       980       977       974       971      1000       997       994       991
      1020      1017      1014      1011      1040      1037      1034      1031
      1060      1057      1054      1051      1080      1077      1074      1071
      1100      1097      1094      1091      1120      1117      1114      1111
      1140      1137      1134      1131      1160      1157      1154      1151
      1180      1177      1174      1171      1200      1197      1194      1191
      1220      1217      1214      1211      1240      1237      1234      1231
      1260      1257      1254      1251      1280      1277      1274      1271
      1300      1297      1294      1291      1320      1317      1314      1311
      1340      1337      1334      1331      1360      1357      1354      1351
      1380      1377      1374      1371      1400      1397      1394      1391
      1420      1417      1414      1411      1440      1437      1434      1431
      1460      1457      1454      1451      1480      1477      1474      1471
      1500      1497      1494      1491      1520      1517      1514      1511
      1540      1537      1534      1531      1560      1557      1554      1551
      1580      1577      1574      1571      1600      1597      1594      1591
      1620      1617      1614      1611      1640      1637      1634      1631
      1660      1657      1654      1651      1680      1677      1674      1671
      1700      1697      1694      1691      1720      1717      1714      1711
      1740      1737      1734      1731      1760      1757      1754      1751
      1780      1777      1774      1771      1800      1797      1794      1791
      1820      1817      1814      1811      1840      1837      1834      1831
      1860      1857      1854      1851      1880      1877      1874      1871
      1900      1897      1894      1891      1920      1917      1914      1911
      1940      1937      1934      1931      1960      1957      1954      1951
      1980      1977      1974      1971      2000      1997      1994      1991
      2020      2017      2014      2011      2040      2037      2034      2031
      2060      2057      2054      2051      2080      2077      2074      2071
      2100      2097      2094      2091      2120      2117      2114      2111
      2140      2137      2134      2131      2160      2157      2154      2151
      2180      2177      2174      2171      2200      2197      2194      2191
      2220      2217      2214      2211      2240      2237      2234      2231
      2260      2257      2254      2251      2280      2277      2274      2271
      2300      2297      2294      2291      2320      2317      2314      2311
      2340      2337      2334      2331      2360      2357      2354      2351
      2380      2377      2374      2371      2400      2397      2394      2391
      2420      2417      2414      2411      2440      2437      2434      2431
      2460      2457      2454      2451      2480      2477      2474      2471
      2500      2497      2494      2491      2520      2517      2514      2511
      2540      2537      2534      2531      2560      2557      2554      2551
      2580      2577      2574      2571      2600      2597      2594      2591
      2620      2617      2614      2611      2640      2637      2634      2631
      2660      2657      2654      2651      2680      2677      2674      2671
      2700      2697      2694      2691      2720      2717      2714      2711
      2740      2737      2734      2731      2760      2757      2754      2751
      2780      2777      2774      2771      2800      2797      2794      2791
      2820      2817      2814      2811      2840      2837      2834      2831
      2860      2857      2854      2851      2880      2877      2874      2871
      2900      2897      2894      2891      2920      2917      2914      2911
      2940      2937      2934      2931      2960      2957      2954      2951
      2980      2977      2974      2971      3000      2997      2994      2991
      3020      3017      3014      3011      3040      3037      3034      3031
      3060      3057      3054      3051      3080      3077      3074      3071
      3100      3097      3094      3091      3120      3117      3114      3111
      3140      3137      3134      3131      3153      3148      3141      3143
      3154      3148      3141      3143      3155      3150      3141      3143
      3156      3150      3141      3143      3169      3164      3157      3159
      3170      3164      3157      3159      3171      3166      3157      3159
      3172      3166      3157      3159      3185      3180      3173      3175
      3186      3180      3173      3175      3187      3182      3173      3175
      3188      3182      3173      3175      3201      3196      3189      3191
      3202      3196      3189      3191      3203      3198      3189      3191
      3204      3198      3189      3191      3217      3212      3205      3207
      3218      3212      3205      3207      3219      3214      3205      3207
      3220      3214      3205      3207      3233      3228      3221      3223
      3234      3228      3221      3223      3235      3230      3221      3223
      3236      3230      3221      3223      3249      3244      3237      3239
      3250      3244      3237      3239      3251      3246      3237      3239
      3252      3246      3237      3239      3265      3260      3253      3255
      3266      3260      3253      3255      3267      3262      3253      3255
      3268      3262      3253      3255      3281      3276      3269      3271
      3282      3276      3269      3271      3283      3278      3269      3271
      3284      3278      3269      3271      3297      3292      3285      3287
      3298      3292      3285      3287      3299      3294      3285      3287
      3300      3294      3285      3287      3313      3308      3301      3303
      3314      3308      3301      3303      3315      3310      3301      3303
      3316      3310      3301      3303      3329      3324      3317      3319
      3330      3324      3317      3319      3331      3326      3317      3319
      3332      3326      3317      3319      3345      3340      3333      3335
      3346      3340      3333      3335      3347      3342      3333      3335
      3348      3342      3333      3335      3361      3356      3349      3351
      3362      3356      3349      3351      3363      3358      3349      3351
      3364      3358      3349      3351      3377      3372      3365      3367
      3378      3372      3365      3367      3379      3374      3365      3367
      3380      3374      3365      3367      3393      3388      3381      3383
      3394      3388      3381      3383      3395      3390      3381      3383
      3396      3390      3381      3383      3409      3404      3397      3399
      3410      3404      3397      3399      3411      3406      3397      3399
      3412      3406      3397      3399      3425      3420      3413      3415
      3426      3420      3413      3415      3427      3422      3413      3415
      3428      3422      3413      3415      3441      3436      3429      3431
      3442      3436      3429      3431      3443      3438      3429      3431
      3444      3438      3429      3431      3457      3452      3445      3447
      3458      3452      3445      3447      3459      3454      3445      3447
      3460      3454      3445      3447      3473      3468      3461      3463
      3474      3468      3461      3463      3475      3470      3461      3463
      3476      3470      3461      3463      3489      3484      3477      3479
      3490      3484      3477      3479      3491      3486      3477      3479
      3492      3486      3477      3479      3505      3500      3493      3495
      3506      3500      3493      3495      3507      3502      3493      3495
      3508      3502      3493      3495      3521      3516      3509      3511
      3522      3516      3509      3511      3523      3518      3509      3511
      3524      3518      3509      3511      3537      3532      3525      3527
      3538      3532      3525      3527      3539      3534      3525      3527
      3540      3534      3525      3527      3553      3548      3541      3543
      3554      3548      3541      3543      3555      3550      3541      3543
      3556      3550      3541      3543      3569      3564      3557      3559
      3570      3564      3557      3559      3571      3566      3557      3559
      3572      3566      3557      3559      3585      3580      3573      3575
      3586      3580      3573      3575      3587      3582      3573      3575
      3588      3582      3573      3575      3601      3596      3589      3591
      3602      3596      3589      3591      3603      3598      3589      3591
      3604      3598      3589      3591      3617      3612      3605      3607
      3618      3612      3605      3607      3619      3614      3605      3607
      3620      3614      3605      3607      3633      3628      3621      3623
      3634      3628      3621      3623      3635      3630      3621      3623
      3636      3630      3621      3623      3649      3644      3637      3639
      3650      3644      3637      3639      3651      3646      3637      3639
      3652      3646      3637      3639      3665      3660      3653      3655
      3666      3660      3653      3655      3667      3662      3653      3655
      3668      3662      3653      3655      3681      3676      3669      3671
      3682      3676      3669      3671      3683      3678      3669      3671
      3684      3678      3669      3671      3697      3692      3685      3687
      3698      3692      3685      3687      3699      3694      3685      3687
      3700      3694      3685      3687      3713      3708      3701      3703
      3714      3708      3701      3703      3715      3710      3701      3703
      3716      3710      3701      3703      3729      3724      3717      3719
      3730      3724      3717      3719      3731      3726      3717      3719
      3732      3726      3717      3719      3745      3740      3733      3735
      3746      3740      3733      3735      3747      3742      3733      3735
      3748      3742      3733      3735      3761      3756      3749      3751
      3762      3756      3749      3751      3763      3758      3749      3751
      3764      3758      3749      3751      3777      3772      3765      3767
      3778      3772      3765      3767      3779      3774      3765      3767
      3780      3774      3765      3767      3793      3788      3781      3783
      3794      3788      3781      3783      3795      3790      3781      3783
      3796      3790      3781      3783      3809      3804      3797      3799
      3810      3804      3797      3799      3811      3806      3797      3799
      3812      3806      3797      3799      3825      3820      3813      3815
      3826      3820      3813      3815      3827      3822      3813      3815
      3828      3822      3813      3815      3841      3836      3829      3831
      3842      3836      3829      3831      3843      3838      3829      3831
      3844      3838      3829      3831      3857      3852      3845      3847
      3858      3852      3845      3847      3859      3854      3845      3847
      3860      3854      3845      3847      3873      3868      3861      3863
      3874      3868      3861      3863      3875      3870      3861      3863
      3876      3870      3861      3863      3889      3884      3877      3879
      3890      3884      3877      3879      3891      3886      3877      3879
      3892      3886      3877      3879      3905      3900      3893      3895
      3906      3900      3893      3895      3907      3902      3893      3895
      3908      3902      3893      3895      3921      3916      3909      3911
      3922      3916      3909      3911      3923      3918      3909      3911
      3924      3918      3909      3911      3937      3932      3925      3927
      3938      3932      3925      3927      3939      3934      3925      3927
      3940      3934      3925      3927      3953      3948      3941      3943
      3954      3948      3941      3943      3955      3950      3941      3943
      3956      3950      3941      3943      3969      3964      3957      3959
      3970      3964      3957      3959      3971      3966      3957      3959
      3972      3966      3957      3959      3985      3980      3973      3975
      3986      3980      3973      3975      3987      3982      3973      3975
      3988      3982      3973      3975      4001      3996      3989      3991
      4002      3996      3989      3991      4003      3998      3989      3991
      4004      3998      3989      3991      4017      4012      4005      4007
      4018      4012      4005      4007      4019      4014      4005      4007
      4020      4014      4005      4007      4033      4028      4021      4023
      4034      4028      4021      4023      4035      4030      4021      4023
      4036      4030      4021      4023      4049      4044      4037      4039
      4050      4044      4037      4039      4051      4046      4037      4039
      4052      4046      4037      4039      4065      4060      4053      4055
      4066      4060      4053      4055      4067      4062      4053      4055
      4068      4062      4053      4055      4081      4076      4069      4071
      4082      4076      4069      4071      4083      4078      4069      4071
      4084      4078      4069      4071      4097      4092      4085      4087
      4098      4092      4085      4087      4099      4094      4085      4087
      4100      4094      4085      4087      4113      4108      4101      4103
      4114      4108      4101      4103      4115      4110      4101      4103
      4116      4110      4101      4103      4129      4124      4117      4119
      4130      4124      4117      4119      4131      4126      4117      4119
      4132      4126      4117      4119      4145      4140      4133      4135
      4146      4140      4133      4135      4147      4142      4133      4135
      4148      4142      4133      4135      4161      4156      4149      4151
      4162      4156      4149      4151      4163      4158      4149      4151
      4164      4158      4149      4151      4177      4172      4165      4167
      4178      4172      4165      4167      4179      4174      4165      4167
      4180      4174      4165      4167      4193      4188      4181      4183
      4194      4188      4181      4183      4195      4190      4181      4183
      4196      4190      4181      4183      4209      4204      4197      4199
      4210      4204      4197      4199      4211      4206      4197      4199
      4212      4206      4197      4199      4225      4220      4213      4215
      4226      4220      4213      4215      4227      4222      4213      4215
      4228      4222      4213      4215      4241      4236      4229      4231
      4242      4236      4229      4231      4243      4238      4229      4231
      4244      4238      4229      4231      4257      4252      4245      4247
      4258      4252      4245      4247      4259      4254      4245      4247
      4260      4254      4245      4247      4273      4268      4261      4263
      4274      4268      4261      4263      4275      4270      4261      4263
      4276      4270      4261      4263      4289      4284      4277      4279
      4290      4284      4277      4279      4291      4286      4277      4279
      4292      4286      4277      4279      4305      4300      4293      4295
      4306      4300      4293      4295      4307      4302      4293      4295
      4308      4302      4293      4295      4321      4316      4309      4311
      4322      4316      4309      4311      4323      4318      4309      4311
      4324      4318      4309      4311      4337      4332      4325      4327
      4338      4332      4325      4327      4339      4334      4325      4327
      4340      4334      4325      4327      4353      4348      4341      4343
      4354      4348      4341      4343      4355      4350      4341      4343
      4356      4350      4341      4343      4369      4364      4357      4359
      4370      4364      4357      4359      4371      4366      4357      4359
      4372      4366      4357      4359      4385      4380      4373      4375
      4386      4380      4373      4375      4387      4382      4373      4375
      4388      4382      4373      4375      4401      4396      4389      4391
      4402      4396      4389      4391      4403      4398      4389      4391
      4404      4398      4389      4391      4417      4412      4405      4407
      4418      4412      4405      4407      4419      4414      4405      4407
      4420      4414      4405      4407      4433      4428      4421      4423
      4434      4428      4421      4423      4435      4430      4421      4423
      4436      4430      4421      4423      4449      4444      4437      4439
      4450      4444      4437      4439      4451      4446      4437      4439
      4452      4446      4437      4439      4465      4460      4453      4455
      4466      4460      4453      4455      4467      4462      4453      4455
      4468      4462      4453      4455      4481      4476      4469      4471
      4482      4476      4469      4471      4483      4478      4469      4471
      4484      4478      4469      4471      4497      4492      4485      4487
      4498      4492      4485      4487      4499      4494      4485      4487
      4500      4494      4485      4487      4513      4508      4501      4503
      4514      4508      4501      4503      4515      4510      4501      4503
      4516      4510      4501      4503      4529      4524      4517      4519
      4530      4524      4517      4519      4531      4526      4517      4519
      4532      4526      4517      4519      4545      4540      4533      4535
      4546      4540      4533      4535      4547      4542      4533      4535
      4548      4542      4533      4535      4561      4556      4549      4551
      4562      4556      4549      4551      4563      4558      4549      4551
      4564      4558      4549      4551      4577      4572      4565      4567
      4578      4572      4565      4567      4579      4574      4565      4567
      4580      4574      4565      4567      4593      4588      4581      4583
      4594      4588      4581      4583      4595      4590      4581      4583
      4596      4590      4581      4583      4609      4604      4597      4599
      4610      4604      4597      4599      4611      4606      4597      4599
      4612      4606      4597      4599      4625      4620      4613      4615
      4626      4620      4613      4615      4627      4622      4613      4615
      4628      4622      4613      4615      4641      4636      4629      4631
      4642      4636      4629      4631      4643      4638      4629      4631
      4644      4638      4629      4631      4657      4652      4645      4647
      4658      4652      4645      4647      4659      4654      4645      4647
      4660      4654      4645      4647      4673      4668      4661      4663
      4674      4668      4661      4663      4675      4670      4661      4663
      4676      4670      4661      4663      4689      4684      4677      4679
      4690      4684      4677      4679      4691      4686      4677      4679
      4692      4686      4677      4679      4705      4700      4693      4695
      4706      4700      4693      4695      4707      4702      4693      4695
      4708      4702      4693      4695      4721      4716      4709      4711
      4722      4716      4709      4711      4723      4718      4709      4711
      4724      4718      4709      4711      4737      4732      4725      4727
      4738      4732      4725      4727      4739      4734      4725      4727
      4740      4734      4725      4727      4753      4748      4741      4743
      4754      4748      4741      4743      4755      4750      4741      4743
      4756      4750      4741      4743      4769      4764      4757      4759
      4770      4764      4757      4759      4771      4766      4757      4759
      4772      4766      4757      4759      4785      4780      4773      4775
      4786      4780      4773      4775      4787      4782      4773      4775
      4788      4782      4773      4775      4801      4796      4789      4791
      4802      4796      4789      4791      4803      4798      4789      4791
      4804      4798      4789      4791      4817      4812      4805      4807
      4818      4812      4805      4807      4819      4814      4805      4807
      4820      4814      4805      4807      4833      4828      4821      4823
      4834      4828      4821      4823      4835      4830      4821      4823
      4836      4830      4821      4823      4849      4844      4837      4839
      4850      4844      4837      4839      4851      4846      4837      4839
      4852      4846      4837      4839      4865      4860      4853      4855
      4866      4860      4853      4855      4867      4862      4853      4855
      4868      4862      4853      4855      4881      4876      4869      4871
      4882      4876      4869      4871      4883      4878      4869      4871
      4884      4878      4869      4871      4897      4892      4885      4887
      4898      4892      4885      4887      4899      4894      4885      4887
      4900      4894      4885      4887      4913      4908      4901      4903
      4914      4908      4901      4903      4915      4910      4901      4903
      4916      4910      4901      4903      4929      4924      4917      4919
      4930      4924      4917      4919      4931      4926      4917      4919
      4932      4926      4917      4919      4945      4940      4933      4935
      4946      4940      4933      4935      4947      4942      4933      4935
      4948      4942      4933      4935      4961      4956      4949      4951
      4962      4956      4949      4951      4963      4958      4949      4951
      4964      4958      4949      4951      4977      4972      4965      4967
      4978      4972      4965      4967      4979      4974      4965      4967
      4980      4974      4965      4967      4993      4988      4981      4983
      4994      4988      4981      4983      4995      4990      4981      4983
      4996      4990      4981      4983      5009      5004      4997      4999
      5010      5004      4997      4999      5011      5006      4997      4999
      5012      5006      4997      4999      5025      5020      5013      5015
      5026      5020      5013      5015      5027      5022      5013      5015
      5028      5022      5013      5015      5041      5036      5029      5031
      5042      5036      5029      5031      5043      5038      5029      5031
      5044      5038      5029      5031      5057      5052      5045      5047
      5058      5052      5045      5047      5059      5054      5045      5047
      5060      5054      5045      5047      5073      5068      5061      5063
      5074      5068      5061      5063      5075      5070      5061      5063
      5076      5070      5061      5063      5089      5084      5077      5079
      5090      5084      5077      5079      5091      5086      5077      5079
      5092      5086      5077      5079      5105      5100      5093      5095
      5106      5100      5093      5095      5107      5102      5093      5095
      5108      5102      5093      5095      5121      5116      5109      5111
      5122      5116      5109      5111      5123      5118      5109      5111
      5124      5118      5109      5111      5137      5132      5125      5127
      5138      5132      5125      5127      5139      5134      5125      5127
      5140      5134      5125      5127      5153      5148      5141      5143
      5154      5148      5141      5143      5155      5150      5141      5143
      5156      5150      5141      5143      5169      5164      5157      5159
      5170      5164      5157      5159      5171      5166      5157      5159
      5172      5166      5157      5159      5185      5180      5173      5175
      5186      5180      5173      5175      5187      5182      5173      5175
      5188      5182      5173      5175      5201      5196      5189      5191
      5202      5196      5189      5191      5203      5198      5189      5191
      5204      5198      5189      5191      5217      5212      5205      5207
      5218      5212      5205      5207      5219      5214      5205      5207
      5220      5214      5205      5207      5233      5228      5221      5223
      5234      5228      5221      5223      5235      5230      5221      5223
      5236      5230      5221      5223      5249      5244      5237      5239
      5250      5244      5237      5239      5251      5246      5237      5239
      5252      5246      5237      5239      5265      5260      5253      5255
      5266      5260      5253      5255      5267      5262      5253      5255
      5268      5262      5253      5255      5281      5276      5269      5271
      5282      5276      5269      5271      5283      5278      5269      5271
      5284      5278      5269      5271      5297      5292      5285      5287
      5298      5292      5285      5287      5299      5294      5285      5287
      5300      5294      5285      5287      5313      5308      5301      5303
      5314      5308      5301      5303      5315      5310      5301      5303
      5316      5310      5301      5303      5329      5324      5317      5319
      5330      5324      5317      5319      5331      5326      5317      5319
      5332      5326      5317      5319      5345      5340      5333      5335
      5346      5340      5333      5335      5347      5342      5333      5335
      5348      5342      5333      5335      5361      5356      5349      5351
      5362      5356      5349      5351      5363      5358      5349      5351
      5364      5358      5349      5351      5377      5372      5365      5367
      5378      5372      5365      5367      5379      5374      5365      5367
      5380      5374      5365      5367      5393      5388      5381      5383
      5394      5388      5381      5383      5395      5390      5381      5383
      5396      5390      5381      5383      5409      5404      5397      5399
      5410      5404      5397      5399      5411      5406      5397      5399
      5412      5406      5397      5399      5425      5420      5413      5415
      5426      5420      5413      5415      5427      5422      5413      5415
      5428      5422      5413      5415      5441      5436      5429      5431
      5442      5436      5429      5431      5443      5438      5429      5431
      5444      5438      5429      5431      5457      5452      5445      5447
      5458      5452      5445      5447      5459      5454      5445      5447
      5460      5454      5445      5447      5473      5468      5461      5463
      5474      5468      5461      5463      5475      5470      5461      5463
      5476      5470      5461      5463      5489      5484      5477      5479
      5490      5484      5477      5479      5491      5486      5477      5479
      5492      5486      5477      5479      5505      5500      5493      5495
      5506      5500      5493      5495      5507      5502      5493      5495
      5508      5502      5493      5495      5521      5516      5509      5511
      5522      5516      5509      5511      5523      5518      5509      5511
      5524      5518      5509      5511      5537      5532      5525      5527
      5538      5532      5525      5527      5539      5534      5525      5527
      5540      5534      5525      5527      5560      5557      5554      5551
      5580      5577      5574      5571      5600      5597      5594      5591
      5620      5617      5614      5611      5640      5637      5634      5631
      5660      5657      5654      5651      5680      5677      5674      5671
      5700      5697      5694      5691      5720      5717      5714      5711
      5740      5737      5734      5731      5760      5757      5754      5751
      5780      5777      5774      5771      5800      5797      5794      5791
      5820      5817      5814      5811      5840      5837      5834      5831
      5860      5857      5854      5851      5880      5877      5874      5871
      5900      5897      5894      5891      5920      5917      5914      5911
      5940      5937      5934      5931      5960      5957      5954      5951
      5980      5977      5974      5971      6000      5997      5994      5991
      6020      6017      6014      6011      6040      6037      6034      6031
      6060      6057      6054      6051      6080      6077      6074      6071
      6100      6097      6094      6091      6120      6117      6114      6111
      6140      6137      6134      6131      6160      6157      6154      6151
      6180      6177      6174      6171      6200      6197      6194      6191
      6220      6217      6214      6211      6240      6237      6234      6231
      6260      6257      6254      6251      6280      6277      6274      6271
      6300      6297      6294      6291      6320      6317      6314      6311
      6340      6337      6334      6331      6360      6357      6354      6351
      6380      6377      6374      6371      6400      6397      6394      6391
      6420      6417      6414      6411      6440      6437      6434      6431
      6460      6457      6454      6451      6480      6477      6474      6471
      6500      6497      6494      6491      6520      6517      6514      6511
      6540      6537      6534      6531      6560      6557      6554      6551
      6580      6577      6574      6571      6600      6597      6594      6591
      6620      6617      6614      6611      6640      6637      6634      6631
      6660      6657      6654      6651      6680      6677      6674      6671
      6700      6697      6694      6691      6720      6717      6714      6711
      6740      6737      6734      6731      6760      6757      6754      6751
      6780      6777      6774      6771      6800      6797      6794      6791
      6820      6817      6814      6811      6840      6837      6834      6831
      6860      6857      6854      6851      6880      6877      6874      6871
      6900      6897      6894      6891      6920      6917      6914      6911
      6940      6937      6934      6931      6960      6957      6954      6951
      6980      6977      6974      6971      7000      6997      6994      6991
      7020      7017      7014      7011      7040      7037      7034      7031
      7060      7057      7054      7051      7080      7077      7074      7071
      7100      7097      7094      7091      7120      7117      7114      7111
      7140      7137      7134      7131      7160      7157      7154      7151
      7180      7177      7174      7171      7200      7197      7194      7191
      7220      7217      7214      7211      7240      7237      7234      7231
      7260      7257      7254      7251      7280      7277      7274      7271
      7300      7297      7294      7291      7320      7317      7314      7311
      7340      7337      7334      7331      7360      7357      7354      7351
      7380      7377      7374      7371      7400      7397      7394      7391
      7420      7417      7414      7411      7440      7437      7434      7431
      7460      7457      7454      7451      7480      7477      7474      7471
      7500      7497      7494      7491      7520      7517      7514      7511
      7540      7537      7534      7531      7560      7557      7554      7551
      7580      7577      7574      7571      7600      7597      7594      7591
      7620      7617      7614      7611      7640      7637      7634      7631
      7660      7657      7654      7651      7680      7677      7674      7671
      7700      7697      7694      7691      7720      7717      7714      7711
      7740      7737      7734      7731      7760      7757      7754      7751
      7780      7777      7774      7771      7800      7797      7794      7791
      7820      7817      7814      7811      7840      7837      7834      7831
      7860      7857      7854      7851      7880      7877      7874      7871
      7900      7897      7894      7891      7920      7917      7914      7911
      7940      7937      7934      7931      7960      7957      7954      7951
      7980      7977      7974      7971      8000      7997      7994      7991
      8020      8017      8014      8011      8040      8037      8034      8031
      8060      8057      8054      8051      8080      8077      8074      8071
      8100      8097      8094      8091      8120      8117      8114      8111
      8140      8137      8134      8131      8160      8157      8154      8151
      8180      8177      8174      8171      8200      8197      8194      8191
      8220      8217      8214      8211      8240      8237      8234      8231
      8260      8257      8254      8251      8280      8277      8274      8271
      8300      8297      8294      8291      8320      8317      8314      8311
      8340      8337      8334      8331      8360      8357      8354      8351
      8380      8377      8374      8371      8400      8397      8394      8391
      8420      8417      8414      8411      8440      8437      8434      8431
      8460      8457      8454      8451      8480      8477      8474      8471
      8500      8497      8494      8491      8520      8517      8514      8511
      8540      8537      8534      8531      8560      8557      8554      8551
      8580      8577      8574      8571      8600      8597      8594      8591
      8620      8617      8614      8611      8640      8637      8634      8631
      8660      8657      8654      8651      8680      8677      8674      8671
      8700      8697      8694      8691      8720      8717      8714      8711
      8740      8737      8734      8731      8760      8757      8754      8751
      8780      8777      8774      8771      8800      8797      8794      8791
      8820      8817      8814      8811      8840      8837      8834      8831
      8860      8857      8854      8851      8880      8877      8874      8871
      8900      8897      8894      8891      8920      8917      8914      8911
      8940      8937      8934      8931      8960      8957      8954      8951
      8980      8977      8974      8971      9000      8997      8994      8991
      9020      9017      9014      9011      9040      9037      9034      9031
      9060      9057      9054      9051      9080      9077      9074      9071
      9100      9097      9094      9091      9120      9117      9114      9111
      9140      9137      9134      9131      9160      9157      9154      9151
      9180      9177      9174      9171      9200      9197      9194      9191
      9220      9217      9214      9211      9240      9237      9234      9231
      9260      9257      9254      9251      9280      9277      9274      9271
      9300      9297      9294      9291      9320      9317      9314      9311
      9340      9337      9334      9331      9360      9357      9354      9351
      9380      9377      9374      9371      9400      9397      9394      9391
      9420      9417      9414      9411      9440      9437      9434      9431
      9460      9457      9454      9451      9480      9477      9474      9471
      9500      9497      9494      9491      9520      9517      9514      9511
      9540      9537      9534      9531      9560      9557      9554      9551
      9580      9577      9574      9571      9600      9597      9594      9591
      9620      9617      9614      9611      9640      9637      9634      9631
      9660      9657      9654      9651      9680      9677      9674      9671
      9700      9697      9694      9691      9720      9717      9714      9711
      9740      9737      9734      9731      9760      9757      9754      9751
      9780      9777      9774      9771      9800      9797      9794      9791
      9820      9817      9814      9811      9840      9837      9834      9831
      9860      9857      9854      9851      9880      9877      9874      9871
      9900      9897      9894      9891      9920      9917      9914      9911
      9940      9937      9934      9931      9960      9957      9954      9951
      9980      9977      9974      9971     10000      9997      9994      9991
     10020     10017     10014     10011     10040     10037     10034     10031
     10060     10057     10054     10051     10080     10077     10074     10071
     10100     10097     10094     10091     10120     10117     10114     10111
     10140     10137     10134     10131     10160     10157     10154     10151
     10180     10177     10174     10171     10200     10197     10194     10191
     10220     10217     10214     10211     10240     10237     10234     10231
     10260     10257     10254     10251     10280     10277     10274     10271
     10300     10297     10294     10291     10320     10317     10314     10311
     10340     10337     10334     10331     10360     10357     10354     10351
     10380     10377     10374     10371     10400     10397     10394     10391
     10420     10417     10414     10411     10440     10437     10434     10431
     10460     10457     10454     10451     10480     10477     10474     10471
     10500     10497     10494     10491     10520     10517     10514     10511
     10540     10537     10534     10531     10560     10557     10554     10551
     10580     10577     10574     10571     10600     10597     10594     10591
     10620     10617     10614     10611     10640     10637     10634     10631
     10660     10657     10654     10651     10680     10677     10674     10671
     10700     10697     10694     10691     10720     10717     10714     10711
     10740     10737     10734     10731     10760     10757     10754     10751
     10780     10777     10774     10771     10800     10797     10794     10791
     10820     10817     10814     10811     10840     10837     10834     10831
     10860     10857     10854     10851     10880     10877     10874     10871
     10900     10897     10894     10891     10920     10917     10914     10911
     10940     10937     10934     10931     10960     10957     10954     10951
     10980     10977     10974     10971     11000     10997     10994     10991
     11020     11017     11014     11011     11040     11037     11034     11031
     11060     11057     11054     11051     11080     11077     11074     11071
     11100     11097     11094     11091     11120     11117     11114     11111
     11140     11137     11134     11131     11160     11157     11154     11151
     11180     11177     11174     11171     11200     11197     11194     11191
     11220     11217     11214     11211     11240     11237     11234     11231
     11260     11257     11254     11251     11280     11277     11274     11271
     11300     11297     11294     11291     11320     11317     11314     11311
     11340     11337     11334     11331     11360     11357     11354     11351
     11380     11377     11374     11371     11400     11397     11394     11391
     11420     11417     11414     11411     11440     11437     11434     11431
     11460     11457     11454     11451     11480     11477     11474     11471
     11500     11497     11494     11491     11520     11517     11514     11511
     11540     11537     11534     11531     11560     11557     11554     11551
     11580     11577     11574     11571     11600     11597     11594     11591
     11620     11617     11614     11611     11640     11637     11634     11631
     11660     11657     11654     11651     11680     11677     11674     11671
     11700     11697     11694     11691     11720     11717     11714     11711
     11740     11737     11734     11731     11760     11757     11754     11751
     11780     11777     11774     11771     11800     11797     11794     11791
     11820     11817     11814     11811     11840     11837     11834     11831
     11860     11857     11854     11851     11880     11877     11874     11871
     11900     11897     11894     11891     11920     11917     11914     11911
     11940     11937     11934     11931     11960     11957     11954     11951
     11980     11977     11974     11971     12000     11997     11994     11991
     12020     12017     12014     12011     12040     12037     12034     12031
     12060     12057     12054     12051     12080     12077     12074     12071
     12100     12097     12094     12091     12120     12117     12114     12111
     12140     12137     12134     12131     12160     12157     12154     12151
     12180     12177     12174     12171     12200     12197     12194     12191
     12220     12217     12214     12211     12240     12237     12234     12231
     12260     12257     12254     12251     12280     12277     12274     12271
     12300     12297     12294     12291     12320     12317     12314     12311
     12340     12337     12334     12331     12360     12357     12354     12351
     12380     12377     12374     12371     12400     12397     12394     12391
     12420     12417     12414     12411     12440     12437     12434     12431
     12460     12457     12454     12451     12480     12477     12474     12471
     12500     12497     12494     12491     12520     12517     12514     12511
     12540     12537     12534     12531     12553     12548     12541     12550
     12554     12548     12541     12550     12555     12550     12541     12552
     12556     12550     12541     12552     12569     12564     12557     12566
     12570     12564     12557     12566     12571     12566     12557     12568
     12572     12566     12557     12568     12585     12580     12573     12582
     12586     12580     12573     12582     12587     12582     12573     12584
     12588     12582     12573     12584     12601     12596     12589     12598
     12602     12596     12589     12598     12603     12598     12589     12600
     12604     12598     12589     12600     12617     12612     12605     12614
     12618     12612     12605     12614     12619     12614     12605     12616
     12620     12614     12605     12616     12633     12628     12621     12630
     12634     12628     12621     12630     12635     12630     12621     12632
     12636     12630     12621     12632     12649     12644     12637     12646
     12650     12644     12637     12646     12651     12646     12637     12648
     12652     12646     12637     12648     12665     12660     12653     12662
     12666     12660     12653     12662     12667     12662     12653     12664
     12668     12662     12653     12664     12681     12676     12669     12678
     12682     12676     12669     12678     12683     12678     12669     12680
     12684     12678     12669     12680     12697     12692     12685     12694
     12698     12692     12685     12694     12699     12694     12685     12696
     12700     12694     12685     12696     12713     12708     12701     12710
     12714     12708     12701     12710     12715     12710     12701     12712
     12716     12710     12701     12712     12729     12724     12717     12726
     12730     12724     12717     12726     12731     12726     12717     12728
     12732     12726     12717     12728     12745     12740     12733     12742
     12746     12740     12733     12742     12747     12742     12733     12744
     12748     12742     12733     12744     12761     12756     12749     12758
     12762     12756     12749     12758     12763     12758     12749     12760
     12764     12758     12749     12760     12777     12772     12765     12774
     12778     12772     12765     12774     12779     12774     12765     12776
     12780     12774     12765     12776     12793     12788     12781     12790
     12794     12788     12781     12790     12795     12790     12781     12792
     12796     12790     12781     12792     12809     12804     12797     12806
     12810     12804     12797     12806     12811     12806     12797     12808
     12812     12806     12797     12808     12825     12820     12813     12822
     12826     12820     12813     12822     12827     12822     12813     12824
     12828     12822     12813     12824     12841     12836     12829     12838
     12842     12836     12829     12838     12843     12838     12829     12840
     12844     12838     12829     12840     12857     12852     12845     12854
     12858     12852     12845     12854     12859     12854     12845     12856
     12860     12854     12845     12856     12873     12868     12861     12870
     12874     12868     12861     12870     12875     12870     12861     12872
     12876     12870     12861     12872     12889     12884     12877     12886
     12890     12884     12877     12886     12891     12886     12877     12888
     12892     12886     12877     12888     12905     12900     12893     12902
     12906     12900     12893     12902     12907     12902     12893     12904
     12908     12902     12893     12904     12921     12916     12909     12918
     12922     12916     12909     12918     12923     12918     12909     12920
     12924     12918     12909     12920     12937     12932     12925     12934
     12938     12932     12925     12934     12939     12934     12925     12936
     12940     12934     12925     12936     12953     12948     12941     12950
     12954     12948     12941     12950     12955     12950     12941     12952
     12956     12950     12941     12952     12969     12964     12957     12966
     12970     12964     12957     12966     12971     12966     12957     12968
     12972     12966     12957     12968     12985     12980     12973     12982
     12986     12980     12973     12982     12987     12982     12973     12984
     12988     12982     12973     12984     13001     12996     12989     12998
     13002     12996     12989     12998     13003     12998     12989     13000
     13004     12998     12989     13000     13017     13012     13005     13014
     13018     13012     13005     13014     13019     13014     13005     13016
     13020     13014     13005     13016     13033     13028     13021     13030
     13034     13028     13021     13030     13035     13030     13021     13032
     13036     13030     13021     13032     13049     13044     13037     13046
     13050     13044     13037     13046     13051     13046     13037     13048
     13052     13046     13037     13048     13065     13060     13053     13062
     13066     13060     13053     13062     13067     13062     13053     13064
     13068     13062     13053     13064     13081     13076     13069     13078
     13082     13076     13069     13078     13083     13078     13069     13080
     13084     13078     13069     13080     13097     13092     13085     13094
     13098     13092     13085     13094     13099     13094     13085     13096
     13100     13094     13085     13096     13113     13108     13101     13110
     13114     13108     13101     13110     13115     13110     13101     13112
     13116     13110     13101     13112     13129     13124     13117     13126
     13130     13124     13117     13126     13131     13126     13117     13128
     13132     13126     13117     13128     13145     13140     13133     13142
     13146     13140     13133     13142     13147     13142     13133     13144
     13148     13142     13133     13144     13161     13156     13149     13158
     13162     13156     13149     13158     13163     13158     13149     13160
     13164     13158     13149     13160     13177     13172     13165     13174
     13178     13172     13165     13174     13179     13174     13165     13176
     13180     13174     13165     13176     13193     13188     13181     13190
     13194     13188     13181     13190     13195     13190     13181     13192
     13196     13190     13181     13192     13209     13204     13197     13206
     13210     13204     13197     13206     13211     13206     13197     13208
     13212     13206     13197     13208     13225     13220     13213     13222
     13226     13220     13213     13222     13227     13222     13213     13224
     13228     13222     13213     13224     13241     13236     13229     13238
     13242     13236     13229     13238     13243     13238     13229     13240
     13244     13238     13229     13240     13257     13252     13245     13254
     13258     13252     13245     13254     13259     13254     13245     13256
     13260     13254     13245     13256     13273     13268     13261     13270
     13274     13268     13261     13270     13275     13270     13261     13272
     13276     13270     13261     13272     13289     13284     13277     13286
     13290     13284     13277     13286     13291     13286     13277     13288
     13292     13286     13277     13288     13305     13300     13293     13302
     13306     13300     13293     13302     13307     13302     13293     13304
     13308     13302     13293     13304     13321     13316     13309     13318
     13322     13316     13309     13318     13323     13318     13309     13320
     13324     13318     13309     13320     13337     13332     13325     13334
     13338     13332     13325     13334     13339     13334     13325     13336
     13340     13334     13325     13336     13353     13348     13341     13350
     13354     13348     13341     13350     13355     13350     13341     13352
     13356     13350     13341     13352     13369     13364     13357     13366
     13370     13364     13357     13366     13371     13366     13357     13368
     13372     13366     13357     13368     13385     13380     13373     13382
     13386     13380     13373     13382     13387     13382     13373     13384
     13388     13382     13373     13384     13401     13396     13389     13398
     13402     13396     13389     13398     13403     13398     13389     13400
     13404     13398     13389     13400     13417     13412     13405     13414
     13418     13412     13405     13414     13419     13414     13405     13416
     13420     13414     13405     13416     13433     13428     13421     13430
     13434     13428     13421     13430     13435     13430     13421     13432
     13436     13430     13421     13432     13449     13444     13437     13446
     13450     13444     13437     13446     13451     13446     13437     13448
     13452     13446     13437     13448     13465     13460     13453     13462
     13466     13460     13453     13462     13467     13462     13453     13464
     13468     13462     13453     13464     13481     13476     13469     13478
     13482     13476     13469     13478     13483     13478     13469     13480
     13484     13478     13469     13480     13497     13492     13485     13494
     13498     13492     13485     13494     13499     13494     13485     13496
     13500     13494     13485     13496     13513     13508     13501     13510
     13514     13508     13501     13510     13515     13510     13501     13512
     13516     13510     13501     13512     13529     13524     13517     13526
     13530     13524     13517     13526     13531     13526     13517     13528
     13532     13526     13517     13528     13545     13540     13533     13542
     13546     13540     13533     13542     13547     13542     13533     13544
     13548     13542     13533     13544     13561     13556     13549     13558
     13562     13556     13549     13558     13563     13558     13549     13560
     13564     13558     13549     13560     13577     13572     13565     13574
     13578     13572     13565     13574     13579     13574     13565     13576
     13580     13574     13565     13576     13593     13588     13581     13590
     13594     13588     13581     13590     13595     13590     13581     13592
     13596     13590     13581     13592     13609     13604     13597     13606
     13610     13604     13597     13606     13611     13606     13597     13608
     13612     13606     13597     13608     13625     13620     13613     13622
     13626     13620     13613     13622     13627     13622     13613     13624
     13628     13622     13613     13624     13641     13636     13629     13638
     13642     13636     13629     13638     13643     13638     13629     13640
     13644     13638     13629     13640     13657     13652     13645     13654
     13658     13652     13645     13654     13659     13654     13645     13656
     13660     13654     13645     13656     13673     13668     13661     13670
     13674     13668     13661     13670     13675     13670     13661     13672
     13676     13670     13661     13672     13689     13684     13677     13686
     13690     13684     13677     13686     13691     13686     13677     13688
     13692     13686     13677     13688     13705     13700     13693     13702
     13706     13700     13693     13702     13707     13702     13693     13704
     13708     13702     13693     13704     13721     13716     13709     13718
     13722     13716     13709     13718     13723     13718     13709     13720
     13724     13718     13709     13720     13737     13732     13725     13734
     13738     13732     13725     13734     13739     13734     13725     13736
     13740     13734     13725     13736     13753     13748     13741     13750
     13754     13748     13741     13750     13755     13750     13741     13752
     13756     13750     13741     13752     13769     13764     13757     13766
     13770     13764     13757     13766     13771     13766     13757     13768
     13772     13766     13757     13768     13785     13780     13773     13782
     13786     13780     13773     13782     13787     13782     13773     13784
     13788     13782     13773     13784     13801     13796     13789     13798
     13802     13796     13789     13798     13803     13798     13789     13800
     13804     13798     13789     13800     13817     13812     13805     13814
     13818     13812     13805     13814     13819     13814     13805     13816
     13820     13814     13805     13816     13833     13828     13821     13830
     13834     13828     13821     13830     13835     13830     13821     13832
     13836     13830     13821     13832     13849     13844     13837     13846
     13850     13844     13837     13846     13851     13846     13837     13848
     13852     13846     13837     13848     13865     13860     13853     13862
     13866     13860     13853     13862     13867     13862     13853     13864
     13868     13862     13853     13864     13881     13876     13869     13878
     13882     13876     13869     13878     13883     13878     13869     13880
     13884     13878     13869     13880     13897     13892     13885     13894
     13898     13892     13885     13894     13899     13894     13885     13896
     13900     13894     13885     13896     13913     13908     13901     13910
     13914     13908     13901     13910     13915     13910     13901     13912
     13916     13910     13901     13912     13929     13924     13917     13926
     13930     13924     13917     13926     13931     13926     13917     13928
     13932     13926     13917     13928     13945     13940     13933     13942
     13946     13940     13933     13942     13947     13942     13933     13944
     13948     13942     13933     13944     13961     13956     13949     13958
     13962     13956     13949     13958     13963     13958     13949     13960
     13964     13958     13949     13960     13977     13972     13965     13974
     13978     13972     13965     13974     13979     13974     13965     13976
     13980     13974     13965     13976     13993     13988     13981     13990
     13994     13988     13981     13990     13995     13990     13981     13992
     13996     13990     13981     13992     14009     14004     13997     14006
     14010     14004     13997     14006     14011     14006     13997     14008
     14012     14006     13997     14008     14025     14020     14013     14022
     14026     14020     14013     14022     14027     14022     14013     14024
     14028     14022     14013     14024     14041     14036     14029     14038
     14042     14036     14029     14038     14043     14038     14029     14040
     14044     14038     14029     14040     14057     14052     14045     14054
     14058     14052     14045     14054     14059     14054     14045     14056
     14060     14054     14045     14056     14073     14068     14061     14070
     14074     14068     14061     14070     14075     14070     14061     14072
     14076     14070     14061     14072     14089     14084     14077     14086
     14090     14084     14077     14086     14091     14086     14077     14088
     14092     14086     14077     14088     14105     14100     14093     14102
     14106     14100     14093     14102     14107     14102     14093     14104
     14108     14102     14093     14104     14121     14116     14109     14118
     14122     14116     14109     14118     14123     14118     14109     14120
     14124     14118     14109     14120     14137     14132     14125     14134
     14138     14132     14125     14134     14139     14134     14125     14136
     14140     14134     14125     14136     14153     14148     14141     14150
     14154     14148     14141     14150     14155     14150     14141     14152
     14156     14150     14141     14152     14169     14164     14157     14166
     14170     14164     14157     14166     14171     14166     14157     14168
     14172     14166     14157     14168     14185     14180     14173     14182
     14186     14180     14173     14182     14187     14182     14173     14184
     14188     14182     14173     14184     14201     14196     14189     14198
     14202     14196     14189     14198     14203     14198     14189     14200
     14204     14198     14189     14200     14217     14212     14205     14214
     14218     14212     14205     14214     14219     14214     14205     14216
     14220     14214     14205     14216     14233     14228     14221     14230
     14234     14228     14221     14230     14235     14230     14221     14232
     14236     14230     14221     14232     14249     14244     14237     14246
     14250     14244     14237     14246     14251     14246     14237     14248
     14252     14246     14237     14248     14265     14260     14253     14262
     14266     14260     14253     14262     14267     14262     14253     14264
     14268     14262     14253     14264     14281     14276     14269     14278
     14282     14276     14269     14278     14283     14278     14269     14280
     14284     14278     14269     14280     14297     14292     14285     14294
     14298     14292     14285     14294     14299     14294     14285     14296
     14300     14294     14285     14296     14313     14308     14301     14310
     14314     14308     14301     14310     14315     14310     14301     14312
     14316     14310     14301     14312     14329     14324     14317     14326
     14330     14324     14317     14326     14331     14326     14317     14328
     14332     14326     14317     14328     14345     14340     14333     14342
     14346     14340     14333     14342     14347     14342     14333     14344
     14348     14342     14333     14344     14361     14356     14349     14358
     14362     14356     14349     14358     14363     14358     14349     14360
     14364     14358     14349     14360     14377     14372     14365     14374
     14378     14372     14365     14374     14379     14374     14365     14376
     14380     14374     14365     14376     14393     14388     14381     14390
     14394     14388     14381     14390     14395     14390     14381     14392
     14396     14390     14381     14392     14409     14404     14397     14406
     14410     14404     14397     14406     14411     14406     14397     14408
     14412     14406     14397     14408     14425     14420     14413     14422
     14426     14420     14413     14422     14427     14422     14413     14424
     14428     14422     14413     14424     14441     14436     14429     14438
     14442     14436     14429     14438     14443     14438     14429     14440
     14444     14438     14429     14440     14457     14452     14445     14454
     14458     14452     14445     14454     14459     14454     14445     14456
     14460     14454     14445     14456     14473     14468     14461     14470
     14474     14468     14461     14470     14475     14470     14461     14472
     14476     14470     14461     14472     14489     14484     14477     14486
     14490     14484     14477     14486     14491     14486     14477     14488
     14492     14486     14477     14488     14505     14500     14493     14502
     14506     14500     14493     14502     14507     14502     14493     14504
     14508     14502     14493     14504     14521     14516     14509     14518
     14522     14516     14509     14518     14523     14518     14509     14520
     14524     14518     14509     14520     14537     14532     14525     14534
     14538     14532     14525     14534     14539     14534     14525     14536
     14540     14534     14525     14536     14553     14548     14541     14550
     14554     14548     14541     14550     14555     14550     14541     14552
     14556     14550     14541     14552     14569     14564     14557     14566
     14570     14564     14557     14566     14571     14566     14557     14568
     14572     14566     14557     14568     14585     14580     14573     14582
     14586     14580     14573     14582     14587     14582     14573     14584
     14588     14582     14573     14584     14601     14596     14589     14598
     14602     14596     14589     14598     14603     14598     14589     14600
     14604     14598     14589     14600     14617     14612     14605     14614
     14618     14612     14605     14614     14619     14614     14605     14616
     14620     14614     14605     14616     14633     14628     14621     14630
     14634     14628     14621     14630     14635     14630     14621     14632
     14636     14630     14621     14632     14649     14644     14637     14646
     14650     14644     14637     14646     14651     14646     14637     14648
     14652     14646     14637     14648     14665     14660     14653     14662
     14666     14660     14653     14662     14667     14662     14653     14664
     14668     14662     14653     14664     14681     14676     14669     14678
     14682     14676     14669     14678     14683     14678     14669     14680
     14684     14678     14669     14680     14697     14692     14685     14694
     14698     14692     14685     14694     14699     14694     14685     14696
     14700     14694     14685     14696     14713     14708     14701     14710
     14714     14708     14701     14710     14715     14710     14701     14712
     14716     14710     14701     14712     14729     14724     14717     14726
     14730     14724     14717     14726     14731     14726     14717     14728
     14732     14726     14717     14728     14745     14740     14733     14742
     14746     14740     14733     14742     14747     14742     14733     14744
     14748     14742     14733     14744     14761     14756     14749     14758
     14762     14756     14749     14758     14763     14758     14749     14760
     14764     14758     14749     14760     14777     14772     14765     14774
     14778     14772     14765     14774     14779     14774     14765     14776
     14780     14774     14765     14776     14793     14788     14781     14790
     14794     14788     14781     14790     14795     14790     14781     14792
     14796     14790     14781     14792     14809     14804     14797     14806
     14810     14804     14797     14806     14811     14806     14797     14808
     14812     14806     14797     14808     14825     14820     14813     14822
     14826     14820     14813     14822     14827     14822     14813     14824
     14828     14822     14813     14824     14841     14836     14829     14838
     14842     14836     14829     14838     14843     14838     14829     14840
     14844     14838     14829     14840     14857     14852     14845     14854
     14858     14852     14845     14854     14859     14854     14845     14856
     14860     14854     14845     14856     14873     14868     14861     14870
     14874     14868     14861     14870     14875     14870     14861     14872
     14876     14870     14861     14872     14889     14884     14877     14886
     14890     14884     14877     14886     14891     14886     14877     14888
     14892     14886     14877     14888     14905     14900     14893     14902
     14906     14900     14893     14902     14907     14902     14893     14904
     14908     14902     14893     14904     14921     14916     14909     14918
     14922     14916     14909     14918     14923     14918     14909     14920
     14924     14918     14909     14920     14937     14932     14925     14934
     14938     14932     14925     14934     14939     14934     14925     14936
     14940     14934     14925     14936     14953     14948     14941     14950
     14954     14948     14941     14950     14955     14950     14941     14952
     14956     14950     14941     14952     14969     14964     14957     14966
     14970     14964     14957     14966     14971     14966     14957     14968
     14972     14966     14957     14968     14985     14980     14973     14982
     14986     14980     14973     14982     14987     14982     14973     14984
     14988     14982     14973     14984     15001     14996     14989     14998
     15002     14996     14989     14998     15003     14998     14989     15000
     15004     14998     14989     15000     15017     15012     15005     15014
     15018     15012     15005     15014     15019     15014     15005     15016
     15020     15014     15005     15016     15033     15028     15021     15030
     15034     15028     15021     15030     15035     15030     15021     15032
     15036     15030     15021     15032     15049     15044     15037     15046
     15050     15044     15037     15046     15051     15046     15037     15048
     15052     15046     15037     15048     15065     15060     15053     15062
     15066     15060     15053     15062     15067     15062     15053     15064
     15068     15062     15053     15064     15081     15076     15069     15078
     15082     15076     15069     15078     15083     15078     15069     15080
     15084     15078     15069     15080     15097     15092     15085     15094
     15098     15092     15085     15094     15099     15094     15085     15096
     15100     15094     15085     15096     15113     15108     15101     15110
     15114     15108     15101     15110     15115     15110     15101     15112
     15116     15110     15101     15112     15129     15124     15117     15126
     15130     15124     15117     15126     15131     15126     15117     15128
     15132     15126     15117     15128     15145     15140     15133     15142
     15146     15140     15133     15142     15147     15142     15133     15144
     15148     15142     15133     15144     15161     15156     15149     15158
     15162     15156     15149     15158     15163     15158     15149     15160
     15164     15158     15149     15160     15177     15172     15165     15174
     15178     15172     15165     15174     15179     15174     15165     15176
     15180     15174     15165     15176     15193     15188     15181     15190
     15194     15188     15181     15190     15195     15190     15181     15192
     15196     15190     15181     15192     15209     15204     15197     15206
     15210     15204     15197     15206     15211     15206     15197     15208
     15212     15206     15197     15208     15225     15220     15213     15222
     15226     15220     15213     15222     15227     15222     15213     15224
     15228     15222     15213     15224     15241     15236     15229     15238
     15242     15236     15229     15238     15243     15238     15229     15240
     15244     15238     15229     15240     15257     15252     15245     15254
     15258     15252     15245     15254     15259     15254     15245     15256
     15260     15254     15245     15256     15273     15268     15261     15270
     15274     15268     15261     15270     15275     15270     15261     15272
     15276     15270     15261     15272     15289     15284     15277     15286
     15290     15284     15277     15286     15291     15286     15277     15288
     15292     15286     15277     15288     15305     15300     15293     15302
     15306     15300     15293     15302     15307     15302     15293     15304
     15308     15302     15293     15304     15321     15316     15309     15318
     15322     15316     15309     15318     15323     15318     15309     15320
     15324     15318     15309     15320     15337     15332     15325     15334
     15338     15332     15325     15334     15339     15334     15325     15336
     15340     15334     15325     15336     15353     15348     15341     15350
     15354     15348     15341     15350     15355     15350     15341     15352
     15356     15350     15341     15352     15369     15364     15357     15366
     15370     15364     15357     15366     15371     15366     15357     15368
     15372     15366     15357     15368     15385     15380     15373     15382
     15386     15380     15373     15382     15387     15382     15373     15384
     15388     15382     15373     15384     15401     15396     15389     15398
     15402     15396     15389     15398     15403     15398     15389     15400
     15404     15398     15389     15400     15417     15412     15405     15414
     15418     15412     15405     15414     15419     15414     15405     15416
     15420     15414     15405     15416     15433     15428     15421     15430
     15434     15428     15421     15430     15435     15430     15421     15432
     15436     15430     15421     15432     15449     15444     15437     15446
     15450     15444     15437     15446     15451     15446     15437     15448
     15452     15446     15437     15448     15465     15460     15453     15462
     15466     15460     15453     15462     15467     15462     15453     15464
     15468     15462     15453     15464     15481     15476     15469     15478
     15482     15476     15469     15478     15483     15478     15469     15480
     15484     15478     15469     15480     15497     15492     15485     15494
     15498     15492     15485     15494     15499     15494     15485     15496
     15500     15494     15485     15496     15513     15508     15501     15510
     15514     15508     15501     15510     15515     15510     15501     15512
     15516     15510     15501     15512     15529     15524     15517     15526
     15530     15524     15517     15526     15531     15526     15517     15528
     15532     15526     15517     15528     15545     15540     15533     15542
     15546     15540     15533     15542     15547     15542     15533     15544
     15548     15542     15533     15544     15561     15556     15549     15558
     15562     15556     15549     15558     15563     15558     15549     15560
     15564     15558     15549     15560     15577     15572     15565     15574
     15578     15572     15565     15574     15579     15574     15565     15576
     15580     15574     15565     15576     15593     15588     15581     15590
     15594     15588     15581     15590     15595     15590     15581     15592
     15596     15590     15581     15592     15609     15604     15597     15606
     15610     15604     15597     15606     15611     15606     15597     15608
     15612     15606     15597     15608     15625     15620     15613     15622
     15626     15620     15613     15622     15627     15622     15613     15624
     15628     15622     15613     15624     15641     15636     15629     15638
     15642     15636     15629     15638     15643     15638     15629     15640
     15644     15638     15629     15640     15657     15652     15645     15654
     15658     15652     15645     15654     15659     15654     15645     15656
     15660     15654     15645     15656     15673     15668     15661     15670
     15674     15668     15661     15670     15675     15670     15661     15672
     15676     15670     15661     15672     15689     15684     15677     15686
     15690     15684     15677     15686     15691     15686     15677     15688
     15692     15686     15677     15688     15705     15700     15693     15702
     15706     15700     15693     15702     15707     15702     15693     15704
     15708     15702     15693     15704     15721     15716     15709     15718
     15722     15716     15709     15718     15723     15718     15709     15720
     15724     15718     15709     15720     15737     15732     15725     15734
     15738     15732     15725     15734     15739     15734     15725     15736
     15740     15734     15725     15736     15753     15748     15741     15750
     15754     15748     15741     15750     15755     15750     15741     15752
     15756     15750     15741     15752     15769     15764     15757     15766
     15770     15764     15757     15766     15771     15766     15757     15768
     15772     15766     15757     15768     15785     15780     15773     15782
     15786     15780     15773     15782     15787     15782     15773     15784
     15788     15782     15773     15784     15801     15796     15789     15798
     15802     15796     15789     15798     15803     15798     15789     15800
     15804     15798     15789     15800     15817     15812     15805     15814
     15818     15812     15805     15814     15819     15814     15805     15816
     15820     15814     15805     15816     15833     15828     15821     15830
     15834     15828     15821     15830     15835     15830     15821     15832
     15836     15830     15821     15832     15849     15844     15837     15846
     15850     15844     15837     15846     15851     15846     15837     15848
     15852     15846     15837     15848     15865     15860     15853     15862
     15866     15860     15853     15862     15867     15862     15853     15864
     15868     15862     15853     15864     15881     15876     15869     15878
     15882     15876     15869     15878     15883     15878     15869     15880
     15884     15878     15869     15880     15897     15892     15885     15894
     15898     15892     15885     15894     15899     15894     15885     15896
     15900     15894     15885     15896     15913     15908     15901     15910
     15914     15908     15901     15910     15915     15910     15901     15912
     15916     15910     15901     15912     15929     15924     15917     15926
     15930     15924     15917     15926     15931     15926     15917     15928
     15932     15926     15917     15928     15945     15940     15933     15942
     15946     15940     15933     15942     15947     15942     15933     15944
     15948     15942     15933     15944     15961     15956     15949     15958
     15962     15956     15949     15958     15963     15958     15949     15960
     15964     15958     15949     15960     15977     15972     15965     15974
     15978     15972     15965     15974     15979     15974     15965     15976
     15980     15974     15965     15976     15993     15988     15981     15990
     15994     15988     15981     15990     15995     15990     15981     15992
     15996     15990     15981     15992     16009     16004     15997     16006
     16010     16004     15997     16006     16011     16006     15997     16008
     16012     16006     15997     16008     16025     16020     16013     16022
     16026     16020     16013     16022     16027     16022     16013     16024
     16028     16022     16013     16024     16041     16036     16029     16038
     16042     16036     16029     16038     16043     16038     16029     16040
     16044     16038     16029     16040     16057     16052     16045     16054
     16058     16052     16045     16054     16059     16054     16045     16056
     16060     16054     16045     16056     16073     16068     16061     16070
     16074     16068     16061     16070     16075     16070     16061     16072
     16076     16070     16061     16072     16089     16084     16077     16086
     16090     16084     16077     16086     16091     16086     16077     16088
     16092     16086     16077     16088     16105     16100     16093     16102
     16106     16100     16093     16102     16107     16102     16093     16104
     16108     16102     16093     16104     16121     16116     16109     16118
     16122     16116     16109     16118     16123     16118     16109     16120
     16124     16118     16109     16120     16137     16132     16125     16134
     16138     16132     16125     16134     16139     16134     16125     16136
     16140     16134     16125     16136     16153     16148     16141     16150
     16154     16148     16141     16150     16155     16150     16141     16152
     16156     16150     16141     16152     16169     16164     16157     16166
     16170     16164     16157     16166     16171     16166     16157     16168
     16172     16166     16157     16168     16185     16180     16173     16182
     16186     16180     16173     16182     16187     16182     16173     16184
     16188     16182     16173     16184     16201     16196     16189     16198
     16202     16196     16189     16198     16203     16198     16189     16200
     16204     16198     16189     16200     16217     16212     16205     16214
     16218     16212     16205     16214     16219     16214     16205     16216
     16220     16214     16205     16216     16233     16228     16221     16230
     16234     16228     16221     16230     16235     16230     16221     16232
     16236     16230     16221     16232     16249     16244     16237     16246
     16250     16244     16237     16246     16251     16246     16237     16248
     16252     16246     16237     16248     16265     16260     16253     16262
     16266     16260     16253     16262     16267     16262     16253     16264
     16268     16262     16253     16264     16281     16276     16269     16278
     16282     16276     16269     16278     16283     16278     16269     16280
     16284     16278     16269     16280     16297     16292     16285     16294
     16298     16292     16285     16294     16299     16294     16285     16296
     16300     16294     16285     16296     16313     16308     16301     16310
     16314     16308     16301     16310     16315     16310     16301     16312
     16316     16310     16301     16312     16329     16324     16317     16326
     16330     16324     16317     16326     16331     16326     16317     16328
     16332     16326     16317     16328     16345     16340     16333     16342
     16346     16340     16333     16342     16347     16342     16333     16344
     16348     16342     16333     16344     16361     16356     16349     16358
     16362     16356     16349     16358     16363     16358     16349     16360
     16364     16358     16349     16360     16377     16372     16365     16374
     16378     16372     16365     16374     16379     16374     16365     16376
     16380     16374     16365     16376     16393     16388     16381     16390
     16394     16388     16381     16390     16395     16390     16381     16392
     16396     16390     16381     16392     16409     16404     16397     16406
     16410     16404     16397     16406     16411     16406     16397     16408
     16412     16406     16397     16408     16425     16420     16413     16422
     16426     16420     16413     16422     16427     16422     16413     16424
     16428     16422     16413     16424     16441     16436     16429     16438
     16442     16436     16429     16438     16443     16438     16429     16440
     16444     16438     16429     16440     16457     16452     16445     16454
     16458     16452     16445     16454     16459     16454     16445     16456
     16460     16454     16445     16456     16473     16468     16461     16470
     16474     16468     16461     16470     16475     16470     16461     16472
     16476     16470     16461     16472     16489     16484     16477     16486
     16490     16484     16477     16486     16491     16486     16477     16488
     16492     16486     16477     16488     16505     16500     16493     16502
     16506     16500     16493     16502     16507     16502     16493     16504
     16508     16502     16493     16504     16521     16516     16509     16518
     16522     16516     16509     16518     16523     16518     16509     16520
     16524     16518     16509     16520     16537     16532     16525     16534
     16538     16532     16525     16534     16539     16534     16525     16536
     16540     16534     16525     16536     16553     16548     16541     16550
     16554     16548     16541     16550     16555     16550     16541     16552
     16556     16550     16541     16552     16569     16564     16557     16566
     16570     16564     16557     16566     16571     16566     16557     16568
     16572     16566     16557     16568     16585     16580     16573     16582
     16586     16580     16573     16582     16587     16582     16573     16584
     16588     16582     16573     16584     16601     16596     16589     16598
     16602     16596     16589     16598     16603     16598     16589     16600
     16604     16598     16589     16600     16617     16612     16605     16614
     16618     16612     16605     16614     16619     16614     16605     16616
     16620     16614     16605     16616     16633     16628     16621     16630
     16634     16628     16621     16630     16635     16630     16621     16632
     16636     16630     16621     16632     16649     16644     16637     16646
     16650     16644     16637     16646     16651     16646     16637     16648
     16652     16646     16637     16648     16665     16660     16653     16662
     16666     16660     16653     16662     16667     16662     16653     16664
     16668     16662     16653     16664     16681     16676     16669     16678
     16682     16676     16669     16678     16683     16678     16669     16680
     16684     16678     16669     16680     16697     16692     16685     16694
     16698     16692     16685     16694     16699     16694     16685     16696
     16700     16694     16685     16696     16713     16708     16701     16710
     16714     16708     16701     16710     16715     16710     16701     16712
     16716     16710     16701     16712     16729     16724     16717     16726
     16730     16724     16717     16726     16731     16726     16717     16728
     16732     16726     16717     16728     16745     16740     16733     16742
     16746     16740     16733     16742     16747     16742     16733     16744
     16748     16742     16733     16744     16761     16756     16749     16758
     16762     16756     16749     16758     16763     16758     16749     16760
     16764     16758     16749     16760     16777     16772     16765     16774
     16778     16772     16765     16774     16779     16774     16765     16776
     16780     16774     16765     16776     16793     16788     16781     16790
     16794     16788     16781     16790     16795     16790     16781     16792
     16796     16790     16781     16792     16809     16804     16797     16806
     16810     16804     16797     16806     16811     16806     16797     16808
     16812     16806     16797     16808     16825     16820     16813     16822
     16826     16820     16813     16822     16827     16822     16813     16824
     16828     16822     16813     16824     16841     16836     16829     16838
     16842     16836     16829     16838     16843     16838     16829     16840
     16844     16838     16829     16840     16857     16852     16845     16854
     16858     16852     16845     16854     16859     16854     16845     16856
     16860     16854     16845     16856     16873     16868     16861     16870
     16874     16868     16861     16870     16875     16870     16861     16872
     16876     16870     16861     16872     16889     16884     16877     16886
     16890     16884     16877     16886     16891     16886     16877     16888
     16892     16886     16877     16888     16905     16900     16893     16902
     16906     16900     16893     16902     16907     16902     16893     16904
     16908     16902     16893     16904     16921     16916     16909     16918
     16922     16916     16909     16918     16923     16918     16909     16920
     16924     16918     16909     16920     16937     16932     16925     16934
     16938     16932     16925     16934     16939     16934     16925     16936
     16940     16934     16925     16936     16953     16948     16941     16950
     16954     16948     16941     16950     16955     16950     16941     16952
     16956     16950     16941     16952     16969     16964     16957     16966
     16970     16964     16957     16966     16971     16966     16957     16968
     16972     16966     16957     16968     16985     16980     16973     16982
     16986     16980     16973     16982     16987     16982     16973     16984
     16988     16982     16973     16984     17001     16996     16989     16998
     17002     16996     16989     16998     17003     16998     16989     17000
     17004     16998     16989     17000     17017     17012     17005     17014
     17018     17012     17005     17014     17019     17014     17005     17016
     17020     17014     17005     17016     17033     17028     17021     17030
     17034     17028     17021     17030     17035     17030     17021     17032
     17036     17030     17021     17032     17049     17044     17037     17046
     17050     17044     17037     17046     17051     17046     17037     17048
     17052     17046     17037     17048     17065     17060     17053     17062
     17066     17060     17053     17062     17067     17062     17053     17064
     17068     17062     17053     17064     17081     17076     17069     17078
     17082     17076     17069     17078     17083     17078     17069     17080
     17084     17078     17069     17080     17097     17092     17085     17094
     17098     17092     17085     17094     17099     17094     17085     17096
     17100     17094     17085     17096     17113     17108     17101     17110
     17114     17108     17101     17110     17115     17110     17101     17112
     17116     17110     17101     17112     17129     17124     17117     17126
     17130     17124     17117     17126     17131     17126     17117     17128
     17132     17126     17117     17128     17145     17140     17133     17142
     17146     17140     17133     17142     17147     17142     17133     17144
     17148     17142     17133     17144     17161     17156     17149     17158
     17162     17156     17149     17158     17163     17158     17149     17160
     17164     17158     17149     17160     17177     17172     17165     17174
     17178     17172     17165     17174     17179     17174     17165     17176
     17180     17174     17165     17176     17193     17188     17181     17190
     17194     17188     17181     17190     17195     17190     17181     17192
     17196     17190     17181     17192     17209     17204     17197     17206
     17210     17204     17197     17206     17211     17206     17197     17208
     17212     17206     17197     17208     17225     17220     17213     17222
     17226     17220     17213     17222     17227     17222     17213     17224
     17228     17222     17213     17224     17241     17236     17229     17238
     17242     17236     17229     17238     17243     17238     17229     17240
     17244     17238     17229     17240     17257     17252     17245     17254
     17258     17252     17245     17254     17259     17254     17245     17256
     17260     17254     17245     17256     17273     17268     17261     17270
     17274     17268     17261     17270     17275     17270     17261     17272
     17276     17270     17261     17272     17289     17284     17277     17286
     17290     17284     17277     17286     17291     17286     17277     17288
     17292     17286     17277     17288     17305     17300     17293     17302
     17306     17300     17293     17302     17307     17302     17293     17304
     17308     17302     17293     17304     17321     17316     17309     17318
     17322     17316     17309     17318     17323     17318     17309     17320
     17324     17318     17309     17320     17337     17332     17325     17334
     17338     17332     17325     17334     17339     17334     17325     17336
     17340     17334     17325     17336     17353     17348     17341     17350
     17354     17348     17341     17350     17355     17350     17341     17352
     17356     17350     17341     17352     17369     17364     17357     17366
     17370     17364     17357     17366     17371     17366     17357     17368
     17372     17366     17357     17368     17385     17380     17373     17382
     17386     17380     17373     17382     17387     17382     17373     17384
     17388     17382     17373     17384     17401     17396     17389     17398
     17402     17396     17389     17398     17403     17398     17389     17400
     17404     17398     17389     17400     17417     17412     17405     17414
     17418     17412     17405     17414     17419     17414     17405     17416
     17420     17414     17405     17416     17433     17428     17421     17430
     17434     17428     17421     17430     17435     17430     17421     17432
     17436     17430     17421     17432     17449     17444     17437     17446
     17450     17444     17437     17446     17451     17446     17437     17448
     17452     17446     17437     17448     17465     17460     17453     17462
     17466     17460     17453     17462     17467     17462     17453     17464
     17468     17462     17453     17464     17481     17476     17469     17478
     17482     17476     17469     17478     17483     17478     17469     17480
     17484     17478     17469     17480     17497     17492     17485     17494
     17498     17492     17485     17494     17499     17494     17485     17496
     17500     17494     17485     17496     17513     17508     17501     17510
     17514     17508     17501     17510     17515     17510     17501     17512
     17516     17510     17501     17512     17529     17524     17517     17526
     17530     17524     17517     17526     17531     17526     17517     17528
     17532     17526     17517     17528     17545     17540     17533     17542
     17546     17540     17533     17542     17547     17542     17533     17544
     17548     17542     17533     17544     17561     17556     17549     17558
     17562     17556     17549     17558     17563     17558     17549     17560
     17564     17558     17549     17560     17577     17572     17565     17574
     17578     17572     17565     17574     17579     17574     17565     17576
     17580     17574     17565     17576     17593     17588     17581     17590
     17594     17588     17581     17590     17595     17590     17581     17592
     17596     17590     17581     17592     17609     17604     17597     17606
     17610     17604     17597     17606     17611     17606     17597     17608
     17612     17606     17597     17608     17625     17620     17613     17622
     17626     17620     17613     17622     17627     17622     17613     17624
     17628     17622     17613     17624     17641     17636     17629     17638
     17642     17636     17629     17638     17643     17638     17629     17640
     17644     17638     17629     17640     17657     17652     17645     17654
     17658     17652     17645     17654     17659     17654     17645     17656
     17660     17654     17645     17656     17673     17668     17661     17670
     17674     17668     17661     17670     17675     17670     17661     17672
     17676     17670     17661     17672     17689     17684     17677     17686
     17690     17684     17677     17686     17691     17686     17677     17688
     17692     17686     17677     17688     17705     17700     17693     17702
     17706     17700     17693     17702     17707     17702     17693     17704
     17708     17702     17693     17704     17721     17716     17709     17718
     17722     17716     17709     17718     17723     17718     17709     17720
     17724     17718     17709     17720     17737     17732     17725     17734
     17738     17732     17725     17734     17739     17734     17725     17736
     17740     17734     17725     17736     17753     17748     17741     17750
     17754     17748     17741     17750     17755     17750     17741     17752
     17756     17750     17741     17752     17769     17764     17757     17766
     17770     17764     17757     17766     17771     17766     17757     17768
     17772     17766     17757     17768     17785     17780     17773     17782
     17786     17780     17773     17782     17787     17782     17773     17784
     17788     17782     17773     17784     17801     17796     17789     17798
     17802     17796     17789     17798     17803     17798     17789     17800
     17804     17798     17789     17800     17817     17812     17805     17814
     17818     17812     17805     17814     17819     17814     17805     17816
     17820     17814     17805     17816     17833     17828     17821     17830
     17834     17828     17821     17830     17835     17830     17821     17832
     17836     17830     17821     17832     17849     17844     17837     17846
     17850     17844     17837     17846     17851     17846     17837     17848
     17852     17846     17837     17848     17865     17860     17853     17862
     17866     17860     17853     17862     17867     17862     17853     17864
     17868     17862     17853     17864     17881     17876     17869     17878
     17882     17876     17869     17878     17883     17878     17869     17880
     17884     17878     17869     17880     17897     17892     17885     17894
     17898     17892     17885     17894     17899     17894     17885     17896
     17900     17894     17885     17896     17913     17908     17901     17910
     17914     17908     17901     17910     17915     17910     17901     17912
     17916     17910     17901     17912     17929     17924     17917     17926
     17930     17924     17917     17926     17931     17926     17917     17928
     17932     17926     17917     17928     17945     17940     17933     17942
     17946     17940     17933     17942     17947     17942     17933     17944
     17948     17942     17933     17944     17961     17956     17949     17958
     17962     17956     17949     17958     17963     17958     17949     17960
     17964     17958     17949     17960     17977     17972     17965     17974
     17978     17972     17965     17974     17979     17974     17965     17976
     17980     17974     17965     17976     17993     17988     17981     17990
     17994     17988     17981     17990     17995     17990     17981     17992
     17996     17990     17981     17992     18009     18004     17997     18006
     18010     18004     17997     18006     18011     18006     17997     18008
     18012     18006     17997     18008     18025     18020     18013     18022
     18026     18020     18013     18022     18027     18022     18013     18024
     18028     18022     18013     18024     18041     18036     18029     18038
     18042     18036     18029     18038     18043     18038     18029     18040
     18044     18038     18029     18040     18057     18052     18045     18054
     18058     18052     18045     18054     18059     18054     18045     18056
     18060     18054     18045     18056     18073     18068     18061     18070
     18074     18068     18061     18070     18075     18070     18061     18072
     18076     18070     18061     18072     18089     18084     18077     18086
     18090     18084     18077     18086     18091     18086     18077     18088
     18092     18086     18077     18088     18105     18100     18093     18102
     18106     18100     18093     18102     18107     18102     18093     18104
     18108     18102     18093     18104     18121     18116     18109     18118
     18122     18116     18109     18118     18123     18118     18109     18120
     18124     18118     18109     18120     18137     18132     18125     18134
     18138     18132     18125     18134     18139     18134     18125     18136
     18140     18134     18125     18136     18206     18159     18157     18155
     18207     18159     18157     18155     18208     18161     18157     18155
     18209     18161     18157     18155     18210     18163     18157     18155
     18211     18163     18157     18155     18212     18167     18165     18151
     18213     18167     18165     18151     18214     18169     18165     18151
     18215     18169     18165     18151     18216     18171     18165     18151
     18217     18171     18165     18151     18218     18189     18183     18181
     18219     18189     18183     18181     18220     18193     18191     18179
     18221     18193     18191     18179     18222     18195     18191     18179
     18223     18195     18191     18179     18224     18197     18191     18179
     18225     18197     18191     18179     18291     18244     18242     18240
     18292     18244     18242     18240     18293     18246     18242     18240
     18294     18246     18242     18240     18295     18248     18242     18240
     18296     18248     18242     18240     18297     18252     18250     18236
     18298     18252     18250     18236     18299     18254     18250     18236
     18300     18254     18250     18236     18301     18256     18250     18236
     18302     18256     18250     18236     18303     18274     18268     18290
     18304     18274     18268     18290     18305     18278     18276     18264
     18306     18278     18276     18264     18307     18280     18276     18264
     18308     18280     18276     18264     18309     18282     18276     18264
     18310     18282     18276     18264

      1000 !NUMANISO
             395.27300    -197.53100     -11.95530
             395.27300    -197.53100     -11.95530
             395.27300    -197.53100     -11.95530
             395.27300    -197.53100     -11.95530
             395.27300    -197.53100     -11.95530
             395.27300    -197.53100     -11.95530
             395.27300    -197.53100     -11.95530
             395.27300    -197.53100     -11.95530
             395.27300    -197.53100     -11.95530
             395.27300    -197.53100     -11.95530
             395.27300    -197.53100     -11.95530
             395.27300    -197.53100     -11.95530
             395.27300    -197.53100     -11.95530
             395.27300    -197.53100     -11.95530
             395.27300    -197.53100     -11.95530
             395.27300    -197.53100     -11.95530
             395.27300    -197.53100     -11.95530
             395.27300    -197.53100     -11.95530
             395.27300    -197.53100     -11.95530
             395.27300    -197.53100     -11.95530
             395.27300    -197.53100     -11.95530
             395.27300    -197.53100     -11.95530
             395.27300    -197.53100     -11.95530
             395.27300    -197.53100     -11.95530
             395.27300    -197.53100     -11.95530
             395.27300    -197.53100     -11.95530
             395.27300    -197.53100     -11.95530
             395.27300    -197.53100     -11.95530
             395.27300    -197.53100     -11.95530
             395.27300    -197.53100     -11.95530
             395.27300    -197.53100     -11.95530
             395.27300    -197.53100     -11.95530
             395.27300    -197.53100     -11.95530
             395.27300    -197.53100     -11.95530
             395.27300    -197.53100     -11.95530
             395.27300    -197.53100     -11.95530
             395.27300    -197.53100     -11.95530
             395.27300    -197.53100     -11.95530
             395.27300    -197.53100     -11.95530
             395.27300    -197.53100     -11.95530
             395.27300    -197.53100     -11.95530
             395.27300    -197.53100     -11.95530
             395.27300    -197.53100     -11.95530
             395.27300    -197.53100     -11.95530
             395.27300    -197.53100     -11.95530
             395.27300    -197.53100     -11.95530
             395.27300    -197.53100     -11.95530
             395.27300    -197.53100     -11.95530
             395.27300    -197.53100     -11.95530
             395.27300    -197.53100     -11.95530
             395.27300    -197.53100     -11.95530
             395.27300    -197.53100     -11.95530
             395.27300    -197.53100     -11.95530
             395.27300    -197.53100     -11.95530
             395.27300    -197.53100     -11.95530
             395.27300    -197.53100     -11.95530
             395.27300    -197.53100     -11.95530
             395.27300    -197.53100     -11.95530
             395.27300    -197.53100     -11.95530
             395.27300    -197.53100     -11.95530
             395.27300    -197.53100     -11.95530
             395.27300    -197.53100     -11.95530
             395.27300    -197.53100     -11.95530
             395.27300    -197.53100     -11.95530
             395.27300    -197.53100     -11.95530
             395.27300    -197.53100     -11.95530
             395.27300    -197.53100     -11.95530
             395.27300    -197.53100     -11.95530
             395.27300    -197.53100     -11.95530
             395.27300    -197.53100     -11.95530
             395.27300    -197.53100     -11.95530
             395.27300    -197.53100     -11.95530
             395.27300    -197.53100     -11.95530
             395.27300    -197.53100     -11.95530
             395.27300    -197.53100     -11.95530
             395.27300    -197.53100     -11.95530
             395.27300    -197.53100     -11.95530
             395.27300    -197.53100     -11.95530
             395.27300    -197.53100     -11.95530
             395.27300    -197.53100     -11.95530
             395.27300    -197.53100     -11.95530
             395.27300    -197.53100     -11.95530
             395.27300    -197.53100     -11.95530
             395.27300    -197.53100     -11.95530
             395.27300    -197.53100     -11.95530
             395.27300    -197.53100     -11.95530
             395.27300    -197.53100     -11.95530
             395.27300    -197.53100     -11.95530
             395.27300    -197.53100     -11.95530
             395.27300    -197.53100     -11.95530
             395.27300    -197.53100     -11.95530
             395.27300    -197.53100     -11.95530
             395.27300    -197.53100     -11.95530
             395.27300    -197.53100     -11.95530
             395.27300    -197.53100     -11.95530
             395.27300    -197.53100     -11.95530
             395.27300    -197.53100     -11.95530
             395.27300    -197.53100     -11.95530
             395.27300    -197.53100     -11.95530
             395.27300    -197.53100     -11.95530
             395.27300    -197.53100     -11.95530
             395.27300    -197.53100     -11.95530
             395.27300    -197.53100     -11.95530
             395.27300    -197.53100     -11.95530
             395.27300    -197.53100     -11.95530
             395.27300    -197.53100     -11.95530
             395.27300    -197.53100     -11.95530
             395.27300    -197.53100     -11.95530
             395.27300    -197.53100     -11.95530
             395.27300    -197.53100     -11.95530
             395.27300    -197.53100     -11.95530
             395.27300    -197.53100     -11.95530
             395.27300    -197.53100     -11.95530
             395.27300    -197.53100     -11.95530
             395.27300    -197.53100     -11.95530
             395.27300    -197.53100     -11.95530
             395.27300    -197.53100     -11.95530
             395.27300    -197.53100     -11.95530
             395.27300    -197.53100     -11.95530
             395.27300    -197.53100     -11.95530
             395.27300    -197.53100     -11.95530
             395.27300    -197.53100     -11.95530
             395.27300    -197.53100     -11.95530
             395.27300    -197.53100     -11.95530
             395.27300    -197.53100     -11.95530
             395.27300    -197.53100     -11.95530
             395.27300    -197.53100     -11.95530
             395.27300    -197.53100     -11.95530
             395.27300    -197.53100     -11.95530
             395.27300    -197.53100     -11.95530
             395.27300    -197.53100     -11.95530
             395.27300    -197.53100     -11.95530
             395.27300    -197.53100     -11.95530
             395.27300    -197.53100     -11.95530
             395.27300    -197.53100     -11.95530
             395.27300    -197.53100     -11.95530
             395.27300    -197.53100     -11.95530
             395.27300    -197.53100     -11.95530
             395.27300    -197.53100     -11.95530
             395.27300    -197.53100     -11.95530
             395.27300    -197.53100     -11.95530
             395.27300    -197.53100     -11.95530
             395.27300    -197.53100     -11.95530
             395.27300    -197.53100     -11.95530
             395.27300    -197.53100     -11.95530
             395.27300    -197.53100     -11.95530
             395.27300    -197.53100     -11.95530
             395.27300    -197.53100     -11.95530
             395.27300    -197.53100     -11.95530
             395.27300    -197.53100     -11.95530
             395.27300    -197.53100     -11.95530
             395.27300    -197.53100     -11.95530
             395.27300    -197.53100     -11.95530
             395.27300    -197.53100     -11.95530
             395.27300    -197.53100     -11.95530
             395.27300    -197.53100     -11.95530
             395.27300    -197.53100     -11.95530
             395.27300    -197.53100     -11.95530
             395.27300    -197.53100     -11.95530
             395.27300    -197.53100     -11.95530
             395.27300    -197.53100     -11.95530
             395.27300    -197.53100     -11.95530
             395.27300    -197.53100     -11.95530
             395.27300    -197.53100     -11.95530
             395.27300    -197.53100     -11.95530
             395.27300    -197.53100     -11.95530
             395.27300    -197.53100     -11.95530
             395.27300    -197.53100     -11.95530
             395.27300    -197.53100     -11.95530
             395.27300    -197.53100     -11.95530
             395.27300    -197.53100     -11.95530
             395.27300    -197.53100     -11.95530
             395.27300    -197.53100     -11.95530
             395.27300    -197.53100     -11.95530
             395.27300    -197.53100     -11.95530
             395.27300    -197.53100     -11.95530
             395.27300    -197.53100     -11.95530
             395.27300    -197.53100     -11.95530
             395.27300    -197.53100     -11.95530
             395.27300    -197.53100     -11.95530
             395.27300    -197.53100     -11.95530
             395.27300    -197.53100     -11.95530
             395.27300    -197.53100     -11.95530
             395.27300    -197.53100     -11.95530
             395.27300    -197.53100     -11.95530
             395.27300    -197.53100     -11.95530
             395.27300    -197.53100     -11.95530
             395.27300    -197.53100     -11.95530
             395.27300    -197.53100     -11.95530
             395.27300    -197.53100     -11.95530
             395.27300    -197.53100     -11.95530
             395.27300    -197.53100     -11.95530
             395.27300    -197.53100     -11.95530
             395.27300    -197.53100     -11.95530
             395.27300    -197.53100     -11.95530
             395.27300    -197.53100     -11.95530
             395.27300    -197.53100     -11.95530
             395.27300    -197.53100     -11.95530
             395.27300    -197.53100     -11.95530
             395.27300    -197.53100     -11.95530
             395.27300    -197.53100     -11.95530
             395.27300    -197.53100     -11.95530
             395.27300    -197.53100     -11.95530
             395.27300    -197.53100     -11.95530
             395.27300    -197.53100     -11.95530
             395.27300    -197.53100     -11.95530
             395.27300    -197.53100     -11.95530
             395.27300    -197.53100     -11.95530
             395.27300    -197.53100     -11.95530
             395.27300    -197.53100     -11.95530
             395.27300    -197.53100     -11.95530
             395.27300    -197.53100     -11.95530
             395.27300    -197.53100     -11.95530
             395.27300    -197.53100     -11.95530
             395.27300    -197.53100     -11.95530
             395.27300    -197.53100     -11.95530
             395.27300    -197.53100     -11.95530
             395.27300    -197.53100     -11.95530
             395.27300    -197.53100     -11.95530
             395.27300    -197.53100     -11.95530
             395.27300    -197.53100     -11.95530
             395.27300    -197.53100     -11.95530
             395.27300    -197.53100     -11.95530
             395.27300    -197.53100     -11.95530
             395.27300    -197.53100     -11.95530
             395.27300    -197.53100     -11.95530
             395.27300    -197.53100     -11.95530
             395.27300    -197.53100     -11.95530
             395.27300    -197.53100     -11.95530
             395.27300    -197.53100     -11.95530
             395.27300    -197.53100     -11.95530
             395.27300    -197.53100     -11.95530
             395.27300    -197.53100     -11.95530
             395.27300    -197.53100     -11.95530
             395.27300    -197.53100     -11.95530
             395.27300    -197.53100     -11.95530
             395.27300    -197.53100     -11.95530
             395.27300    -197.53100     -11.95530
             395.27300    -197.53100     -11.95530
             395.27300    -197.53100     -11.95530
             395.27300    -197.53100     -11.95530
             395.27300    -197.53100     -11.95530
             395.27300    -197.53100     -11.95530
             395.27300    -197.53100     -11.95530
             395.27300    -197.53100     -11.95530
             395.27300    -197.53100     -11.95530
             395.27300    -197.53100     -11.95530
             395.27300    -197.53100     -11.95530
             395.27300    -197.53100     -11.95530
             395.27300    -197.53100     -11.95530
             395.27300    -197.53100     -11.95530
             395.27300    -197.53100     -11.95530
             395.27300    -197.53100     -11.95530
             395.27300    -197.53100     -11.95530
             395.27300    -197.53100     -11.95530
             395.27300    -197.53100     -11.95530
             395.27300    -197.53100     -11.95530
             395.27300    -197.53100     -11.95530
             395.27300    -197.53100     -11.95530
             395.27300    -197.53100     -11.95530
             395.27300    -197.53100     -11.95530
             395.27300    -197.53100     -11.95530
             395.27300    -197.53100     -11.95530
             395.27300    -197.53100     -11.95530
             395.27300    -197.53100     -11.95530
             395.27300    -197.53100     -11.95530
             395.27300    -197.53100     -11.95530
             395.27300    -197.53100     -11.95530
             395.27300    -197.53100     -11.95530
             395.27300    -197.53100     -11.95530
             395.27300    -197.53100     -11.95530
             395.27300    -197.53100     -11.95530
             395.27300    -197.53100     -11.95530
             395.27300    -197.53100     -11.95530
             395.27300    -197.53100     -11.95530
             395.27300    -197.53100     -11.95530
             395.27300    -197.53100     -11.95530
             395.27300    -197.53100     -11.95530
             395.27300    -197.53100     -11.95530
             395.27300    -197.53100     -11.95530
             395.27300    -197.53100     -11.95530
             395.27300    -197.53100     -11.95530
             395.27300    -197.53100     -11.95530
             395.27300    -197.53100     -11.95530
             395.27300    -197.53100     -11.95530
             395.27300    -197.53100     -11.95530
             395.27300    -197.53100     -11.95530
             395.27300    -197.53100     -11.95530
             395.27300    -197.53100     -11.95530
             395.27300    -197.53100     -11.95530
             395.27300    -197.53100     -11.95530
             395.27300    -197.53100     -11.95530
             395.27300    -197.53100     -11.95530
             395.27300    -197.53100     -11.95530
             395.27300    -197.53100     -11.95530
             395.27300    -197.53100     -11.95530
             395.27300    -197.53100     -11.95530
             395.27300    -197.53100     -11.95530
             395.27300    -197.53100     -11.95530
             395.27300    -197.53100     -11.95530
             512.45300    -102.60400     -77.32050
             205.60100    -205.51600      27.74920
             512.45300    -102.60400     -77.32050
             205.60100    -205.51600      27.74920
             512.45300    -102.60400     -77.32050
             205.60100    -205.51600      27.74920
             512.45300    -102.60400     -77.32050
             205.60100    -205.51600      27.74920
             512.45300    -102.60400     -77.32050
             205.60100    -205.51600      27.74920
             512.45300    -102.60400     -77.32050
             205.60100    -205.51600      27.74920
             512.45300    -102.60400     -77.32050
             205.60100    -205.51600      27.74920
             512.45300    -102.60400     -77.32050
             205.60100    -205.51600      27.74920
             512.45300    -102.60400     -77.32050
             205.60100    -205.51600      27.74920
             512.45300    -102.60400     -77.32050
             205.60100    -205.51600      27.74920
             512.45300    -102.60400     -77.32050
             205.60100    -205.51600      27.74920
             512.45300    -102.60400     -77.32050
             205.60100    -205.51600      27.74920
             512.45300    -102.60400     -77.32050
             205.60100    -205.51600      27.74920
             512.45300    -102.60400     -77.32050
             205.60100    -205.51600      27.74920
             512.45300    -102.60400     -77.32050
             205.60100    -205.51600      27.74920
             512.45300    -102.60400     -77.32050
             205.60100    -205.51600      27.74920
             512.45300    -102.60400     -77.32050
             205.60100    -205.51600      27.74920
             512.45300    -102.60400     -77.32050
             205.60100    -205.51600      27.74920
             512.45300    -102.60400     -77.32050
             205.60100    -205.51600      27.74920
             512.45300    -102.60400     -77.32050
             205.60100    -205.51600      27.74920
             512.45300    -102.60400     -77.32050
             205.60100    -205.51600      27.74920
             512.45300    -102.60400     -77.32050
             205.60100    -205.51600      27.74920
             512.45300    -102.60400     -77.32050
             205.60100    -205.51600      27.74920
             512.45300    -102.60400     -77.32050
             205.60100    -205.51600      27.74920
             512.45300    -102.60400     -77.32050
             205.60100    -205.51600      27.74920
             512.45300    -102.60400     -77.32050
             205.60100    -205.51600      27.74920
             512.45300    -102.60400     -77.32050
             205.60100    -205.51600      27.74920
             512.45300    -102.60400     -77.32050
             205.60100    -205.51600      27.74920
             512.45300    -102.60400     -77.32050
             205.60100    -205.51600      27.74920
             512.45300    -102.60400     -77.32050
             205.60100    -205.51600      27.74920
             512.45300    -102.60400     -77.32050
             205.60100    -205.51600      27.74920
             512.45300    -102.60400     -77.32050
             205.60100    -205.51600      27.74920
             512.45300    -102.60400     -77.32050
             205.60100    -205.51600      27.74920
             512.45300    -102.60400     -77.32050
             205.60100    -205.51600      27.74920
             512.45300    -102.60400     -77.32050
             205.60100    -205.51600      27.74920
             512.45300    -102.60400     -77.32050
             205.60100    -205.51600      27.74920
             512.45300    -102.60400     -77.32050
             205.60100    -205.51600      27.74920
             512.45300    -102.60400     -77.32050
             205.60100    -205.51600      27.74920
             512.45300    -102.60400     -77.32050
             205.60100    -205.51600      27.74920
             512.45300    -102.60400     -77.32050
             205.60100    -205.51600      27.74920
             512.45300    -102.60400     -77.32050
             205.60100    -205.51600      27.74920
             512.45300    -102.60400     -77.32050
             205.60100    -205.51600      27.74920
             512.45300    -102.60400     -77.32050
             205.60100    -205.51600      27.74920
             512.45300    -102.60400     -77.32050
             205.60100    -205.51600      27.74920
             512.45300    -102.60400     -77.32050
             205.60100    -205.51600      27.74920
             512.45300    -102.60400     -77.32050
             205.60100    -205.51600      27.74920
             512.45300    -102.60400     -77.32050
             205.60100    -205.51600      27.74920
             512.45300    -102.60400     -77.32050
             205.60100    -205.51600      27.74920
             512.45300    -102.60400     -77.32050
             205.60100    -205.51600      27.74920
             512.45300    -102.60400     -77.32050
             205.60100    -205.51600      27.74920
             512.45300    -102.60400     -77.32050
             205.60100    -205.51600      27.74920
             512.45300    -102.60400     -77.32050
             205.60100    -205.51600      27.74920
             512.45300    -102.60400     -77.32050
             205.60100    -205.51600      27.74920
             512.45300    -102.60400     -77.32050
             205.60100    -205.51600      27.74920
             512.45300    -102.60400     -77.32050
             205.60100    -205.51600      27.74920
             512.45300    -102.60400     -77.32050
             205.60100    -205.51600      27.74920
             512.45300    -102.60400     -77.32050
             205.60100    -205.51600      27.74920
             512.45300    -102.60400     -77.32050
             205.60100    -205.51600      27.74920
             512.45300    -102.60400     -77.32050
             205.60100    -205.51600      27.74920
             512.45300    -102.60400     -77.32050
             205.60100    -205.51600      27.74920
             512.45300    -102.60400     -77.32050
             205.60100    -205.51600      27.74920
             512.45300    -102.60400     -77.32050
             205.60100    -205.51600      27.74920
             512.45300    -102.60400     -77.32050
             205.60100    -205.51600      27.74920
             512.45300    -102.60400     -77.32050
             205.60100    -205.51600      27.74920
             512.45300    -102.60400     -77.32050
             205.60100    -205.51600      27.74920
             512.45300    -102.60400     -77.32050
             205.60100    -205.51600      27.74920
             512.45300    -102.60400     -77.32050
             205.60100    -205.51600      27.74920
             512.45300    -102.60400     -77.32050
             205.60100    -205.51600      27.74920
             512.45300    -102.60400     -77.32050
             205.60100    -205.51600      27.74920
             512.45300    -102.60400     -77.32050
             205.60100    -205.51600      27.74920
             512.45300    -102.60400     -77.32050
             205.60100    -205.51600      27.74920
             512.45300    -102.60400     -77.32050
             205.60100    -205.51600      27.74920
             512.45300    -102.60400     -77.32050
             205.60100    -205.51600      27.74920
             512.45300    -102.60400     -77.32050
             205.60100    -205.51600      27.74920
             512.45300    -102.60400     -77.32050
             205.60100    -205.51600      27.74920
             512.45300    -102.60400     -77.32050
             205.60100    -205.51600      27.74920
             512.45300    -102.60400     -77.32050
             205.60100    -205.51600      27.74920
             512.45300    -102.60400     -77.32050
             205.60100    -205.51600      27.74920
             512.45300    -102.60400     -77.32050
             205.60100    -205.51600      27.74920
             512.45300    -102.60400     -77.32050
             205.60100    -205.51600      27.74920
             512.45300    -102.60400     -77.32050
             205.60100    -205.51600      27.74920
             512.45300    -102.60400     -77.32050
             205.60100    -205.51600      27.74920
             512.45300    -102.60400     -77.32050
             205.60100    -205.51600      27.74920
             512.45300    -102.60400     -77.32050
             205.60100    -205.51600      27.74920
             512.45300    -102.60400     -77.32050
             205.60100    -205.51600      27.74920
             512.45300    -102.60400     -77.32050
             205.60100    -205.51600      27.74920
             512.45300    -102.60400     -77.32050
             205.60100    -205.51600      27.74920
             512.45300    -102.60400     -77.32050
             205.60100    -205.51600      27.74920
             512.45300    -102.60400     -77.32050
             205.60100    -205.51600      27.74920
             512.45300    -102.60400     -77.32050
             205.60100    -205.51600      27.74920
             512.45300    -102.60400     -77.32050
             205.60100    -205.51600      27.74920
             512.45300    -102.60400     -77.32050
             205.60100    -205.51600      27.74920
             512.45300    -102.60400     -77.32050
             205.60100    -205.51600      27.74920
             512.45300    -102.60400     -77.32050
             205.60100    -205.51600      27.74920
             512.45300    -102.60400     -77.32050
             205.60100    -205.51600      27.74920
             512.45300    -102.60400     -77.32050
             205.60100    -205.51600      27.74920
             512.45300    -102.60400     -77.32050
             205.60100    -205.51600      27.74920
             512.45300    -102.60400     -77.32050
             205.60100    -205.51600      27.74920
             512.45300    -102.60400     -77.32050
             205.60100    -205.51600      27.74920
             512.45300    -102.60400     -77.32050
             205.60100    -205.51600      27.74920
             512.45300    -102.60400     -77.32050
             205.60100    -205.51600      27.74920
             512.45300    -102.60400     -77.32050
             205.60100    -205.51600      27.74920
             512.45300    -102.60400     -77.32050
             205.60100    -205.51600      27.74920
             512.45300    -102.60400     -77.32050
             205.60100    -205.51600      27.74920
             512.45300    -102.60400     -77.32050
             205.60100    -205.51600      27.74920
             512.45300    -102.60400     -77.32050
             205.60100    -205.51600      27.74920
             512.45300    -102.60400     -77.32050
             205.60100    -205.51600      27.74920
             512.45300    -102.60400     -77.32050
             205.60100    -205.51600      27.74920
             512.45300    -102.60400     -77.32050
             205.60100    -205.51600      27.74920
             512.45300    -102.60400     -77.32050
             205.60100    -205.51600      27.74920
             512.45300    -102.60400     -77.32050
             205.60100    -205.51600      27.74920
             512.45300    -102.60400     -77.32050
             205.60100    -205.51600      27.74920
             512.45300    -102.60400     -77.32050
             205.60100    -205.51600      27.74920
             512.45300    -102.60400     -77.32050
             205.60100    -205.51600      27.74920
             512.45300    -102.60400     -77.32050
             205.60100    -205.51600      27.74920
             512.45300    -102.60400     -77.32050
             205.60100    -205.51600      27.74920
             512.45300    -102.60400     -77.32050
             205.60100    -205.51600      27.74920
             512.45300    -102.60400     -77.32050
             205.60100    -205.51600      27.74920
             512.45300    -102.60400     -77.32050
             205.60100    -205.51600      27.74920
             512.45300    -102.60400     -77.32050
             205.60100    -205.51600      27.74920
             512.45300    -102.60400     -77.32050
             205.60100    -205.51600      27.74920
             512.45300    -102.60400     -77.32050
             205.60100    -205.51600      27.74920
             512.45300    -102.60400     -77.32050
             205.60100    -205.51600      27.74920
             512.45300    -102.60400     -77.32050
             205.60100    -205.51600      27.74920
             512.45300    -102.60400     -77.32050
             205.60100    -205.51600      27.74920
             512.45300    -102.60400     -77.32050
             205.60100    -205.51600      27.74920
             512.45300    -102.60400     -77.32050
             205.60100    -205.51600      27.74920
             512.45300    -102.60400     -77.32050
             205.60100    -205.51600      27.74920
             512.45300    -102.60400     -77.32050
             205.60100    -205.51600      27.74920
             512.45300    -102.60400     -77.32050
             205.60100    -205.51600      27.74920
             512.45300    -102.60400     -77.32050
             205.60100    -205.51600      27.74920
             512.45300    -102.60400     -77.32050
             205.60100    -205.51600      27.74920
             512.45300    -102.60400     -77.32050
             205.60100    -205.51600      27.74920
             512.45300    -102.60400     -77.32050
             205.60100    -205.51600      27.74920
             512.45300    -102.60400     -77.32050
             205.60100    -205.51600      27.74920
             512.45300    -102.60400     -77.32050
             205.60100    -205.51600      27.74920
             512.45300    -102.60400     -77.32050
             205.60100    -205.51600      27.74920
             512.45300    -102.60400     -77.32050
             205.60100    -205.51600      27.74920
             512.45300    -102.60400     -77.32050
             205.60100    -205.51600      27.74920
             512.45300    -102.60400     -77.32050
             205.60100    -205.51600      27.74920
             512.45300    -102.60400     -77.32050
             205.60100    -205.51600      27.74920
             512.45300    -102.60400     -77.32050
             205.60100    -205.51600      27.74920
             512.45300    -102.60400     -77.32050
             205.60100    -205.51600      27.74920
             512.45300    -102.60400     -77.32050
             205.60100    -205.51600      27.74920
             512.45300    -102.60400     -77.32050
             205.60100    -205.51600      27.74920
             512.45300    -102.60400     -77.32050
             205.60100    -205.51600      27.74920
             512.45300    -102.60400     -77.32050
             205.60100    -205.51600      27.74920
             512.45300    -102.60400     -77.32050
             205.60100    -205.51600      27.74920
             512.45300    -102.60400     -77.32050
             205.60100    -205.51600      27.74920
             512.45300    -102.60400     -77.32050
             205.60100    -205.51600      27.74920
             512.45300    -102.60400     -77.32050
             205.60100    -205.51600      27.74920
             512.45300    -102.60400     -77.32050
             205.60100    -205.51600      27.74920
             512.45300    -102.60400     -77.32050
             205.60100    -205.51600      27.74920
             512.45300    -102.60400     -77.32050
             205.60100    -205.51600      27.74920
             512.45300    -102.60400     -77.32050
             205.60100    -205.51600      27.74920
             512.45300    -102.60400     -77.32050
             205.60100    -205.51600      27.74920
             512.45300    -102.60400     -77.32050
             205.60100    -205.51600      27.74920
             512.45300    -102.60400     -77.32050
             205.60100    -205.51600      27.74920
             512.45300    -102.60400     -77.32050
             205.60100    -205.51600      27.74920
             512.45300    -102.60400     -77.32050
             205.60100    -205.51600      27.74920
             512.45300    -102.60400     -77.32050
             205.60100    -205.51600      27.74920
             512.45300    -102.60400     -77.32050
             205.60100    -205.51600      27.74920
             512.45300    -102.60400     -77.32050
             205.60100    -205.51600      27.74920
             512.45300    -102.60400     -77.32050
             205.60100    -205.51600      27.74920
             512.45300    -102.60400     -77.32050
             205.60100    -205.51600      27.74920
             512.45300    -102.60400     -77.32050
             205.60100    -205.51600      27.74920
             512.45300    -102.60400     -77.32050
             205.60100    -205.51600      27.74920
             512.45300    -102.60400     -77.32050
             205.60100    -205.51600      27.74920
             512.45300    -102.60400     -77.32050
             205.60100    -205.51600      27.74920
             512.45300    -102.60400     -77.32050
             205.60100    -205.51600      27.74920
             512.45300    -102.60400     -77.32050
             205.60100    -205.51600      27.74920
             512.45300    -102.60400     -77.32050
             205.60100    -205.51600      27.74920
             512.45300    -102.60400     -77.32050
             205.60100    -205.51600      27.74920
             512.45300    -102.60400     -77.32050
             205.60100    -205.51600      27.74920
             512.45300    -102.60400     -77.32050
             205.60100    -205.51600      27.74920
             512.45300    -102.60400     -77.32050
             205.60100    -205.51600      27.74920
             512.45300    -102.60400     -77.32050
             205.60100    -205.51600      27.74920
             512.45300    -102.60400     -77.32050
             205.60100    -205.51600      27.74920
             512.45300    -102.60400     -77.32050
             205.60100    -205.51600      27.74920
             512.45300    -102.60400     -77.32050
             205.60100    -205.51600      27.74920
             512.45300    -102.60400     -77.32050
             205.60100    -205.51600      27.74920
             512.45300    -102.60400     -77.32050
             205.60100    -205.51600      27.74920
             512.45300    -102.60400     -77.32050
             205.60100    -205.51600      27.74920
             512.45300    -102.60400     -77.32050
             205.60100    -205.51600      27.74920
             512.45300    -102.60400     -77.32050
             205.60100    -205.51600      27.74920
             512.45300    -102.60400     -77.32050
             205.60100    -205.51600      27.74920
             512.45300    -102.60400     -77.32050
             205.60100    -205.51600      27.74920
             512.45300    -102.60400     -77.32050
             205.60100    -205.51600      27.74920
             512.45300    -102.60400     -77.32050
             205.60100    -205.51600      27.74920
             512.45300    -102.60400     -77.32050
             205.60100    -205.51600      27.74920
             512.45300    -102.60400     -77.32050
             205.60100    -205.51600      27.74920
             512.45300    -102.60400     -77.32050
             205.60100    -205.51600      27.74920
             512.45300    -102.60400     -77.32050
             205.60100    -205.51600      27.74920
             512.45300    -102.60400     -77.32050
             205.60100    -205.51600      27.74920
             512.45300    -102.60400     -77.32050
             205.60100    -205.51600      27.74920
             512.45300    -102.60400     -77.32050
             205.60100    -205.51600      27.74920
             512.45300    -102.60400     -77.32050
             205.60100    -205.51600      27.74920
             512.45300    -102.60400     -77.32050
             205.60100    -205.51600      27.74920
             512.45300    -102.60400     -77.32050
             205.60100    -205.51600      27.74920
             512.45300    -102.60400     -77.32050
             205.60100    -205.51600      27.74920
             512.45300    -102.60400     -77.32050
             205.60100    -205.51600      27.74920
             512.45300    -102.60400     -77.32050
             205.60100    -205.51600      27.74920
             512.45300    -102.60400     -77.32050
             205.60100    -205.51600      27.74920
             512.45300    -102.60400     -77.32050
             205.60100    -205.51600      27.74920
             512.45300    -102.60400     -77.32050
             205.60100    -205.51600      27.74920
             512.45300    -102.60400     -77.32050
             205.60100    -205.51600      27.74920
             512.45300    -102.60400     -77.32050
             205.60100    -205.51600      27.74920
             512.45300    -102.60400     -77.32050
             205.60100    -205.51600      27.74920
             512.45300    -102.60400     -77.32050
             205.60100    -205.51600      27.74920
             512.45300    -102.60400     -77.32050
             205.60100    -205.51600      27.74920
             512.45300    -102.60400     -77.32050
             205.60100    -205.51600      27.74920
             512.45300    -102.60400     -77.32050
             205.60100    -205.51600      27.74920
             512.45300    -102.60400     -77.32050
             205.60100    -205.51600      27.74920
             512.45300    -102.60400     -77.32050
             205.60100    -205.51600      27.74920
             512.45300    -102.60400     -77.32050
             205.60100    -205.51600      27.74920
             512.45300    -102.60400     -77.32050
             205.60100    -205.51600      27.74920
             512.45300    -102.60400     -77.32050
             205.60100    -205.51600      27.74920
             512.45300    -102.60400     -77.32050
             205.60100    -205.51600      27.74920
             512.45300    -102.60400     -77.32050
             205.60100    -205.51600      27.74920
             512.45300    -102.60400     -77.32050
             205.60100    -205.51600      27.74920
             512.45300    -102.60400     -77.32050
             205.60100    -205.51600      27.74920
             512.45300    -102.60400     -77.32050
             205.60100    -205.51600      27.74920
             512.45300    -102.60400     -77.32050
             205.60100    -205.51600      27.74920
             512.45300    -102.60400     -77.32050
             205.60100    -205.51600      27.74920
             512.45300    -102.60400     -77.32050
             205.60100    -205.51600      27.74920
             512.45300    -102.60400     -77.32050
             205.60100    -205.51600      27.74920
             512.45300    -102.60400     -77.32050
             205.60100    -205.51600      27.74920
             512.45300    -102.60400     -77.32050
             205.60100    -205.51600      27.74920
             512.45300    -102.60400     -77.32050
             205.60100    -205.51600      27.74920
             512.45300    -102.60400     -77.32050
             205.60100    -205.51600      27.74920
             512.45300    -102.60400     -77.32050
             205.60100    -205.51600      27.74920
             512.45300    -102.60400     -77.32050
             205.60100    -205.51600      27.74920
             512.45300    -102.60400     -77.32050
             205.60100    -205.51600      27.74920
             512.45300    -102.60400     -77.32050
             205.60100    -205.51600      27.74920
             512.45300    -102.60400     -77.32050
             205.60100    -205.51600      27.74920
             512.45300    -102.60400     -77.32050
             205.60100    -205.51600      27.74920
             512.45300    -102.60400     -77.32050
             205.60100    -205.51600      27.74920
             512.45300    -102.60400     -77.32050
             205.60100    -205.51600      27.74920
             512.45300    -102.60400     -77.32050
             205.60100    -205.51600      27.74920
             512.45300    -102.60400     -77.32050
             205.60100    -205.51600      27.74920
             512.45300    -102.60400     -77.32050
             205.60100    -205.51600      27.74920
             512.45300    -102.60400     -77.32050
             205.60100    -205.51600      27.74920
             512.45300    -102.60400     -77.32050
             205.60100    -205.51600      27.74920
             512.45300    -102.60400     -77.32050
             205.60100    -205.51600      27.74920
             512.45300    -102.60400     -77.32050
             205.60100    -205.51600      27.74920
             512.45300    -102.60400     -77.32050
             205.60100    -205.51600      27.74920
             512.45300    -102.60400     -77.32050
             205.60100    -205.51600      27.74920
             512.45300    -102.60400     -77.32050
             205.60100    -205.51600      27.74920
             512.45300    -102.60400     -77.32050
             205.60100    -205.51600      27.74920
             512.45300    -102.60400     -77.32050
             205.60100    -205.51600      27.74920
             512.45300    -102.60400     -77.32050
             205.60100    -205.51600      27.74920
             512.45300    -102.60400     -77.32050
             205.60100    -205.51600      27.74920
             512.45300    -102.60400     -77.32050
             205.60100    -205.51600      27.74920
             512.45300    -102.60400     -77.32050
             205.60100    -205.51600      27.74920
             512.45300    -102.60400     -77.32050
             205.60100    -205.51600      27.74920
             512.45300    -102.60400     -77.32050
             205.60100    -205.51600      27.74920
             512.45300    -102.60400     -77.32050
             205.60100    -205.51600      27.74920
             512.45300    -102.60400     -77.32050
             205.60100    -205.51600      27.74920
             512.45300    -102.60400     -77.32050
             205.60100    -205.51600      27.74920
             512.45300    -102.60400     -77.32050
             205.60100    -205.51600      27.74920
             512.45300    -102.60400     -77.32050
             205.60100    -205.51600      27.74920
             512.45300    -102.60400     -77.32050
             205.60100    -205.51600      27.74920
             512.45300    -102.60400     -77.32050
             205.60100    -205.51600      27.74920
             512.45300    -102.60400     -77.32050
             205.60100    -205.51600      27.74920
             512.45300    -102.60400     -77.32050
             205.60100    -205.51600      27.74920
             512.45300    -102.60400     -77.32050
             205.60100    -205.51600      27.74920
             512.45300    -102.60400     -77.32050
             205.60100    -205.51600      27.74920
             512.45300    -102.60400     -77.32050
             205.60100    -205.51600      27.74920
             512.45300    -102.60400     -77.32050
             205.60100    -205.51600      27.74920
             512.45300    -102.60400     -77.32050
             205.60100    -205.51600      27.74920
             512.45300    -102.60400     -77.32050
             205.60100    -205.51600      27.74920
             512.45300    -102.60400     -77.32050
             205.60100    -205.51600      27.74920
             512.45300    -102.60400     -77.32050
             205.60100    -205.51600      27.74920
             512.45300    -102.60400     -77.32050
             205.60100    -205.51600      27.74920
             512.45300    -102.60400     -77.32050
             205.60100    -205.51600      27.74920
             512.45300    -102.60400     -77.32050
             205.60100    -205.51600      27.74920
             512.45300    -102.60400     -77.32050
             205.60100    -205.51600      27.74920
             512.45300    -102.60400     -77.32050
             205.60100    -205.51600      27.74920
             512.45300    -102.60400     -77.32050
             205.60100    -205.51600      27.74920
             512.45300    -102.60400     -77.32050
             205.60100    -205.51600      27.74920
             512.45300    -102.60400     -77.32050
             205.60100    -205.51600      27.74920
             512.45300    -102.60400     -77.32050
             205.60100    -205.51600      27.74920
             512.45300    -102.60400     -77.32050
             205.60100    -205.51600      27.74920
             512.45300    -102.60400     -77.32050
             205.60100    -205.51600      27.74920
             512.45300    -102.60400     -77.32050
             205.60100    -205.51600      27.74920
             512.45300    -102.60400     -77.32050
             205.60100    -205.51600      27.74920
             512.45300    -102.60400     -77.32050
             205.60100    -205.51600      27.74920
             512.45300    -102.60400     -77.32050
             205.60100    -205.51600      27.74920
             512.45300    -102.60400     -77.32050
             205.60100    -205.51600      27.74920
             512.45300    -102.60400     -77.32050
             205.60100    -205.51600      27.74920
             512.45300    -102.60400     -77.32050
             205.60100    -205.51600      27.74920
             512.45300    -102.60400     -77.32050
             205.60100    -205.51600      27.74920
             512.45300    -102.60400     -77.32050
             205.60100    -205.51600      27.74920
             512.45300    -102.60400     -77.32050
             205.60100    -205.51600      27.74920
             512.45300    -102.60400     -77.32050
             205.60100    -205.51600      27.74920
             512.45300    -102.60400     -77.32050
             205.60100    -205.51600      27.74920
             512.45300    -102.60400     -77.32050
             205.60100    -205.51600      27.74920
             512.45300    -102.60400     -77.32050
             205.60100    -205.51600      27.74920
             512.45300    -102.60400     -77.32050
             205.60100    -205.51600      27.74920
             512.45300    -102.60400     -77.32050
             205.60100    -205.51600      27.74920
             512.45300    -102.60400     -77.32050
             205.60100    -205.51600      27.74920
             512.45300    -102.60400     -77.32050
             205.60100    -205.51600      27.74920
             512.45300    -102.60400     -77.32050
             205.60100    -205.51600      27.74920
             512.45300    -102.60400     -77.32050
             205.60100    -205.51600      27.74920
             512.45300    -102.60400     -77.32050
             205.60100    -205.51600      27.74920
             512.45300    -102.60400     -77.32050
             205.60100    -205.51600      27.74920
             512.45300    -102.60400     -77.32050
             205.60100    -205.51600      27.74920
             512.45300    -102.60400     -77.32050
             205.60100    -205.51600      27.74920
             512.45300    -102.60400     -77.32050
             205.60100    -205.51600      27.74920
             512.45300    -102.60400     -77.32050
             205.60100    -205.51600      27.74920
             512.45300    -102.60400     -77.32050
             205.60100    -205.51600      27.74920
             512.45300    -102.60400     -77.32050
             205.60100    -205.51600      27.74920
             512.45300    -102.60400     -77.32050
             205.60100    -205.51600      27.74920
             512.45300    -102.60400     -77.32050
             205.60100    -205.51600      27.74920
             512.45300    -102.60400     -77.32050
             205.60100    -205.51600      27.74920
             512.45300    -102.60400     -77.32050
             205.60100    -205.51600      27.74920
             512.45300    -102.60400     -77.32050
             205.60100    -205.51600      27.74920
             512.45300    -102.60400     -77.32050
             205.60100    -205.51600      27.74920
             512.45300    -102.60400     -77.32050
             205.60100    -205.51600      27.74920
             512.45300    -102.60400     -77.32050
             205.60100    -205.51600      27.74920
             512.45300    -102.60400     -77.32050
             205.60100    -205.51600      27.74920
             512.45300    -102.60400     -77.32050
             205.60100    -205.51600      27.74920
             512.45300    -102.60400     -77.32050
             205.60100    -205.51600      27.74920
             512.45300    -102.60400     -77.32050
             205.60100    -205.51600      27.74920
             512.45300    -102.60400     -77.32050
             205.60100    -205.51600      27.74920
             512.45300    -102.60400     -77.32050
             205.60100    -205.51600      27.74920
             512.45300    -102.60400     -77.32050
             205.60100    -205.51600      27.74920
             512.45300    -102.60400     -77.32050
             205.60100    -205.51600      27.74920
             512.45300    -102.60400     -77.32050
             205.60100    -205.51600      27.74920
             512.45300    -102.60400     -77.32050
             205.60100    -205.51600      27.74920
             512.45300    -102.60400     -77.32050
             205.60100    -205.51600      27.74920
             512.45300    -102.60400     -77.32050
             205.60100    -205.51600      27.74920
             512.45300    -102.60400     -77.32050
             205.60100    -205.51600      27.74920
             512.45300    -102.60400     -77.32050
             205.60100    -205.51600      27.74920
             512.45300    -102.60400     -77.32050
             205.60100    -205.51600      27.74920
             512.45300    -102.60400     -77.32050
             205.60100    -205.51600      27.74920
             512.45300    -102.60400     -77.32050
             205.60100    -205.51600      27.74920
             512.45300    -102.60400     -77.32050
             205.60100    -205.51600      27.74920
             512.45300    -102.60400     -77.32050
             205.60100    -205.51600      27.74920
             512.45300    -102.60400     -77.32050
             205.60100    -205.51600      27.74920
             512.45300    -102.60400     -77.32050
             205.60100    -205.51600      27.74920
             512.45300    -102.60400     -77.32050
             205.60100    -205.51600      27.74920
             512.45300    -102.60400     -77.32050
             205.60100    -205.51600      27.74920
             512.45300    -102.60400     -77.32050
             205.60100    -205.51600      27.74920
             512.45300    -102.60400     -77.32050
             205.60100    -205.51600      27.74920
             512.45300    -102.60400     -77.32050
             205.60100    -205.51600      27.74920
             512.45300    -102.60400     -77.32050
             205.60100    -205.51600      27.74920
             512.45300    -102.60400     -77.32050
             205.60100    -205.51600      27.74920
             512.45300    -102.60400     -77.32050
             205.60100    -205.51600      27.74920
             512.45300    -102.60400     -77.32050
             205.60100    -205.51600      27.74920
      3148      3141      3153      3154      3150      3141      3155      3156
      3164      3157      3169      3170      3166      3157      3171      3172
      3180      3173      3185      3186      3182      3173      3187      3188
      3196      3189      3201      3202      3198      3189      3203      3204
      3212      3205      3217      3218      3214      3205      3219      3220
      3228      3221      3233      3234      3230      3221      3235      3236
      3244      3237      3249      3250      3246      3237      3251      3252
      3260      3253      3265      3266      3262      3253      3267      3268
      3276      3269      3281      3282      3278      3269      3283      3284
      3292      3285      3297      3298      3294      3285      3299      3300
      3308      3301      3313      3314      3310      3301      3315      3316
      3324      3317      3329      3330      3326      3317      3331      3332
      3340      3333      3345      3346      3342      3333      3347      3348
      3356      3349      3361      3362      3358      3349      3363      3364
      3372      3365      3377      3378      3374      3365      3379      3380
      3388      3381      3393      3394      3390      3381      3395      3396
      3404      3397      3409      3410      3406      3397      3411      3412
      3420      3413      3425      3426      3422      3413      3427      3428
      3436      3429      3441      3442      3438      3429      3443      3444
      3452      3445      3457      3458      3454      3445      3459      3460
      3468      3461      3473      3474      3470      3461      3475      3476
      3484      3477      3489      3490      3486      3477      3491      3492
      3500      3493      3505      3506      3502      3493      3507      3508
      3516      3509      3521      3522      3518      3509      3523      3524
      3532      3525      3537      3538      3534      3525      3539      3540
      3548      3541      3553      3554      3550      3541      3555      3556
      3564      3557      3569      3570      3566      3557      3571      3572
      3580      3573      3585      3586      3582      3573      3587      3588
      3596      3589      3601      3602      3598      3589      3603      3604
      3612      3605      3617      3618      3614      3605      3619      3620
      3628      3621      3633      3634      3630      3621      3635      3636
      3644      3637      3649      3650      3646      3637      3651      3652
      3660      3653      3665      3666      3662      3653      3667      3668
      3676      3669      3681      3682      3678      3669      3683      3684
      3692      3685      3697      3698      3694      3685      3699      3700
      3708      3701      3713      3714      3710      3701      3715      3716
      3724      3717      3729      3730      3726      3717      3731      3732
      3740      3733      3745      3746      3742      3733      3747      3748
      3756      3749      3761      3762      3758      3749      3763      3764
      3772      3765      3777      3778      3774      3765      3779      3780
      3788      3781      3793      3794      3790      3781      3795      3796
      3804      3797      3809      3810      3806      3797      3811      3812
      3820      3813      3825      3826      3822      3813      3827      3828
      3836      3829      3841      3842      3838      3829      3843      3844
      3852      3845      3857      3858      3854      3845      3859      3860
      3868      3861      3873      3874      3870      3861      3875      3876
      3884      3877      3889      3890      3886      3877      3891      3892
      3900      3893      3905      3906      3902      3893      3907      3908
      3916      3909      3921      3922      3918      3909      3923      3924
      3932      3925      3937      3938      3934      3925      3939      3940
      3948      3941      3953      3954      3950      3941      3955      3956
      3964      3957      3969      3970      3966      3957      3971      3972
      3980      3973      3985      3986      3982      3973      3987      3988
      3996      3989      4001      4002      3998      3989      4003      4004
      4012      4005      4017      4018      4014      4005      4019      4020
      4028      4021      4033      4034      4030      4021      4035      4036
      4044      4037      4049      4050      4046      4037      4051      4052
      4060      4053      4065      4066      4062      4053      4067      4068
      4076      4069      4081      4082      4078      4069      4083      4084
      4092      4085      4097      4098      4094      4085      4099      4100
      4108      4101      4113      4114      4110      4101      4115      4116
      4124      4117      4129      4130      4126      4117      4131      4132
      4140      4133      4145      4146      4142      4133      4147      4148
      4156      4149      4161      4162      4158      4149      4163      4164
      4172      4165      4177      4178      4174      4165      4179      4180
      4188      4181      4193      4194      4190      4181      4195      4196
      4204      4197      4209      4210      4206      4197      4211      4212
      4220      4213      4225      4226      4222      4213      4227      4228
      4236      4229      4241      4242      4238      4229      4243      4244
      4252      4245      4257      4258      4254      4245      4259      4260
      4268      4261      4273      4274      4270      4261      4275      4276
      4284      4277      4289      4290      4286      4277      4291      4292
      4300      4293      4305      4306      4302      4293      4307      4308
      4316      4309      4321      4322      4318      4309      4323      4324
      4332      4325      4337      4338      4334      4325      4339      4340
      4348      4341      4353      4354      4350      4341      4355      4356
      4364      4357      4369      4370      4366      4357      4371      4372
      4380      4373      4385      4386      4382      4373      4387      4388
      4396      4389      4401      4402      4398      4389      4403      4404
      4412      4405      4417      4418      4414      4405      4419      4420
      4428      4421      4433      4434      4430      4421      4435      4436
      4444      4437      4449      4450      4446      4437      4451      4452
      4460      4453      4465      4466      4462      4453      4467      4468
      4476      4469      4481      4482      4478      4469      4483      4484
      4492      4485      4497      4498      4494      4485      4499      4500
      4508      4501      4513      4514      4510      4501      4515      4516
      4524      4517      4529      4530      4526      4517      4531      4532
      4540      4533      4545      4546      4542      4533      4547      4548
      4556      4549      4561      4562      4558      4549      4563      4564
      4572      4565      4577      4578      4574      4565      4579      4580
      4588      4581      4593      4594      4590      4581      4595      4596
      4604      4597      4609      4610      4606      4597      4611      4612
      4620      4613      4625      4626      4622      4613      4627      4628
      4636      4629      4641      4642      4638      4629      4643      4644
      4652      4645      4657      4658      4654      4645      4659      4660
      4668      4661      4673      4674      4670      4661      4675      4676
      4684      4677      4689      4690      4686      4677      4691      4692
      4700      4693      4705      4706      4702      4693      4707      4708
      4716      4709      4721      4722      4718      4709      4723      4724
      4732      4725      4737      4738      4734      4725      4739      4740
      4748      4741      4753      4754      4750      4741      4755      4756
      4764      4757      4769      4770      4766      4757      4771      4772
      4780      4773      4785      4786      4782      4773      4787      4788
      4796      4789      4801      4802      4798      4789      4803      4804
      4812      4805      4817      4818      4814      4805      4819      4820
      4828      4821      4833      4834      4830      4821      4835      4836
      4844      4837      4849      4850      4846      4837      4851      4852
      4860      4853      4865      4866      4862      4853      4867      4868
      4876      4869      4881      4882      4878      4869      4883      4884
      4892      4885      4897      4898      4894      4885      4899      4900
      4908      4901      4913      4914      4910      4901      4915      4916
      4924      4917      4929      4930      4926      4917      4931      4932
      4940      4933      4945      4946      4942      4933      4947      4948
      4956      4949      4961      4962      4958      4949      4963      4964
      4972      4965      4977      4978      4974      4965      4979      4980
      4988      4981      4993      4994      4990      4981      4995      4996
      5004      4997      5009      5010      5006      4997      5011      5012
      5020      5013      5025      5026      5022      5013      5027      5028
      5036      5029      5041      5042      5038      5029      5043      5044
      5052      5045      5057      5058      5054      5045      5059      5060
      5068      5061      5073      5074      5070      5061      5075      5076
      5084      5077      5089      5090      5086      5077      5091      5092
      5100      5093      5105      5106      5102      5093      5107      5108
      5116      5109      5121      5122      5118      5109      5123      5124
      5132      5125      5137      5138      5134      5125      5139      5140
      5148      5141      5153      5154      5150      5141      5155      5156
      5164      5157      5169      5170      5166      5157      5171      5172
      5180      5173      5185      5186      5182      5173      5187      5188
      5196      5189      5201      5202      5198      5189      5203      5204
      5212      5205      5217      5218      5214      5205      5219      5220
      5228      5221      5233      5234      5230      5221      5235      5236
      5244      5237      5249      5250      5246      5237      5251      5252
      5260      5253      5265      5266      5262      5253      5267      5268
      5276      5269      5281      5282      5278      5269      5283      5284
      5292      5285      5297      5298      5294      5285      5299      5300
      5308      5301      5313      5314      5310      5301      5315      5316
      5324      5317      5329      5330      5326      5317      5331      5332
      5340      5333      5345      5346      5342      5333      5347      5348
      5356      5349      5361      5362      5358      5349      5363      5364
      5372      5365      5377      5378      5374      5365      5379      5380
      5388      5381      5393      5394      5390      5381      5395      5396
      5404      5397      5409      5410      5406      5397      5411      5412
      5420      5413      5425      5426      5422      5413      5427      5428
      5436      5429      5441      5442      5438      5429      5443      5444
      5452      5445      5457      5458      5454      5445      5459      5460
      5468      5461      5473      5474      5470      5461      5475      5476
      5484      5477      5489      5490      5486      5477      5491      5492
      5500      5493      5505      5506      5502      5493      5507      5508
      5516      5509      5521      5522      5518      5509      5523      5524
      5532      5525      5537      5538      5534      5525      5539      5540
     12548     12541     12553     12554     12550     12541     12555     12556
     12564     12557     12569     12570     12566     12557     12571     12572
     12580     12573     12585     12586     12582     12573     12587     12588
     12596     12589     12601     12602     12598     12589     12603     12604
     12612     12605     12617     12618     12614     12605     12619     12620
     12628     12621     12633     12634     12630     12621     12635     12636
     12644     12637     12649     12650     12646     12637     12651     12652
     12660     12653     12665     12666     12662     12653     12667     12668
     12676     12669     12681     12682     12678     12669     12683     12684
     12692     12685     12697     12698     12694     12685     12699     12700
     12708     12701     12713     12714     12710     12701     12715     12716
     12724     12717     12729     12730     12726     12717     12731     12732
     12740     12733     12745     12746     12742     12733     12747     12748
     12756     12749     12761     12762     12758     12749     12763     12764
     12772     12765     12777     12778     12774     12765     12779     12780
     12788     12781     12793     12794     12790     12781     12795     12796
     12804     12797     12809     12810     12806     12797     12811     12812
     12820     12813     12825     12826     12822     12813     12827     12828
     12836     12829     12841     12842     12838     12829     12843     12844
     12852     12845     12857     12858     12854     12845     12859     12860
     12868     12861     12873     12874     12870     12861     12875     12876
     12884     12877     12889     12890     12886     12877     12891     12892
     12900     12893     12905     12906     12902     12893     12907     12908
     12916     12909     12921     12922     12918     12909     12923     12924
     12932     12925     12937     12938     12934     12925     12939     12940
     12948     12941     12953     12954     12950     12941     12955     12956
     12964     12957     12969     12970     12966     12957     12971     12972
     12980     12973     12985     12986     12982     12973     12987     12988
     12996     12989     13001     13002     12998     12989     13003     13004
     13012     13005     13017     13018     13014     13005     13019     13020
     13028     13021     13033     13034     13030     13021     13035     13036
     13044     13037     13049     13050     13046     13037     13051     13052
     13060     13053     13065     13066     13062     13053     13067     13068
     13076     13069     13081     13082     13078     13069     13083     13084
     13092     13085     13097     13098     13094     13085     13099     13100
     13108     13101     13113     13114     13110     13101     13115     13116
     13124     13117     13129     13130     13126     13117     13131     13132
     13140     13133     13145     13146     13142     13133     13147     13148
     13156     13149     13161     13162     13158     13149     13163     13164
     13172     13165     13177     13178     13174     13165     13179     13180
     13188     13181     13193     13194     13190     13181     13195     13196
     13204     13197     13209     13210     13206     13197     13211     13212
     13220     13213     13225     13226     13222     13213     13227     13228
     13236     13229     13241     13242     13238     13229     13243     13244
     13252     13245     13257     13258     13254     13245     13259     13260
     13268     13261     13273     13274     13270     13261     13275     13276
     13284     13277     13289     13290     13286     13277     13291     13292
     13300     13293     13305     13306     13302     13293     13307     13308
     13316     13309     13321     13322     13318     13309     13323     13324
     13332     13325     13337     13338     13334     13325     13339     13340
     13348     13341     13353     13354     13350     13341     13355     13356
     13364     13357     13369     13370     13366     13357     13371     13372
     13380     13373     13385     13386     13382     13373     13387     13388
     13396     13389     13401     13402     13398     13389     13403     13404
     13412     13405     13417     13418     13414     13405     13419     13420
     13428     13421     13433     13434     13430     13421     13435     13436
     13444     13437     13449     13450     13446     13437     13451     13452
     13460     13453     13465     13466     13462     13453     13467     13468
     13476     13469     13481     13482     13478     13469     13483     13484
     13492     13485     13497     13498     13494     13485     13499     13500
     13508     13501     13513     13514     13510     13501     13515     13516
     13524     13517     13529     13530     13526     13517     13531     13532
     13540     13533     13545     13546     13542     13533     13547     13548
     13556     13549     13561     13562     13558     13549     13563     13564
     13572     13565     13577     13578     13574     13565     13579     13580
     13588     13581     13593     13594     13590     13581     13595     13596
     13604     13597     13609     13610     13606     13597     13611     13612
     13620     13613     13625     13626     13622     13613     13627     13628
     13636     13629     13641     13642     13638     13629     13643     13644
     13652     13645     13657     13658     13654     13645     13659     13660
     13668     13661     13673     13674     13670     13661     13675     13676
     13684     13677     13689     13690     13686     13677     13691     13692
     13700     13693     13705     13706     13702     13693     13707     13708
     13716     13709     13721     13722     13718     13709     13723     13724
     13732     13725     13737     13738     13734     13725     13739     13740
     13748     13741     13753     13754     13750     13741     13755     13756
     13764     13757     13769     13770     13766     13757     13771     13772
     13780     13773     13785     13786     13782     13773     13787     13788
     13796     13789     13801     13802     13798     13789     13803     13804
     13812     13805     13817     13818     13814     13805     13819     13820
     13828     13821     13833     13834     13830     13821     13835     13836
     13844     13837     13849     13850     13846     13837     13851     13852
     13860     13853     13865     13866     13862     13853     13867     13868
     13876     13869     13881     13882     13878     13869     13883     13884
     13892     13885     13897     13898     13894     13885     13899     13900
     13908     13901     13913     13914     13910     13901     13915     13916
     13924     13917     13929     13930     13926     13917     13931     13932
     13940     13933     13945     13946     13942     13933     13947     13948
     13956     13949     13961     13962     13958     13949     13963     13964
     13972     13965     13977     13978     13974     13965     13979     13980
     13988     13981     13993     13994     13990     13981     13995     13996
     14004     13997     14009     14010     14006     13997     14011     14012
     14020     14013     14025     14026     14022     14013     14027     14028
     14036     14029     14041     14042     14038     14029     14043     14044
     14052     14045     14057     14058     14054     14045     14059     14060
     14068     14061     14073     14074     14070     14061     14075     14076
     14084     14077     14089     14090     14086     14077     14091     14092
     14100     14093     14105     14106     14102     14093     14107     14108
     14116     14109     14121     14122     14118     14109     14123     14124
     14132     14125     14137     14138     14134     14125     14139     14140
     14148     14141     14153     14154     14150     14141     14155     14156
     14164     14157     14169     14170     14166     14157     14171     14172
     14180     14173     14185     14186     14182     14173     14187     14188
     14196     14189     14201     14202     14198     14189     14203     14204
     14212     14205     14217     14218     14214     14205     14219     14220
     14228     14221     14233     14234     14230     14221     14235     14236
     14244     14237     14249     14250     14246     14237     14251     14252
     14260     14253     14265     14266     14262     14253     14267     14268
     14276     14269     14281     14282     14278     14269     14283     14284
     14292     14285     14297     14298     14294     14285     14299     14300
     14308     14301     14313     14314     14310     14301     14315     14316
     14324     14317     14329     14330     14326     14317     14331     14332
     14340     14333     14345     14346     14342     14333     14347     14348
     14356     14349     14361     14362     14358     14349     14363     14364
     14372     14365     14377     14378     14374     14365     14379     14380
     14388     14381     14393     14394     14390     14381     14395     14396
     14404     14397     14409     14410     14406     14397     14411     14412
     14420     14413     14425     14426     14422     14413     14427     14428
     14436     14429     14441     14442     14438     14429     14443     14444
     14452     14445     14457     14458     14454     14445     14459     14460
     14468     14461     14473     14474     14470     14461     14475     14476
     14484     14477     14489     14490     14486     14477     14491     14492
     14500     14493     14505     14506     14502     14493     14507     14508
     14516     14509     14521     14522     14518     14509     14523     14524
     14532     14525     14537     14538     14534     14525     14539     14540
     14548     14541     14553     14554     14550     14541     14555     14556
     14564     14557     14569     14570     14566     14557     14571     14572
     14580     14573     14585     14586     14582     14573     14587     14588
     14596     14589     14601     14602     14598     14589     14603     14604
     14612     14605     14617     14618     14614     14605     14619     14620
     14628     14621     14633     14634     14630     14621     14635     14636
     14644     14637     14649     14650     14646     14637     14651     14652
     14660     14653     14665     14666     14662     14653     14667     14668
     14676     14669     14681     14682     14678     14669     14683     14684
     14692     14685     14697     14698     14694     14685     14699     14700
     14708     14701     14713     14714     14710     14701     14715     14716
     14724     14717     14729     14730     14726     14717     14731     14732
     14740     14733     14745     14746     14742     14733     14747     14748
     14756     14749     14761     14762     14758     14749     14763     14764
     14772     14765     14777     14778     14774     14765     14779     14780
     14788     14781     14793     14794     14790     14781     14795     14796
     14804     14797     14809     14810     14806     14797     14811     14812
     14820     14813     14825     14826     14822     14813     14827     14828
     14836     14829     14841     14842     14838     14829     14843     14844
     14852     14845     14857     14858     14854     14845     14859     14860
     14868     14861     14873     14874     14870     14861     14875     14876
     14884     14877     14889     14890     14886     14877     14891     14892
     14900     14893     14905     14906     14902     14893     14907     14908
     14916     14909     14921     14922     14918     14909     14923     14924
     14932     14925     14937     14938     14934     14925     14939     14940
     14948     14941     14953     14954     14950     14941     14955     14956
     14964     14957     14969     14970     14966     14957     14971     14972
     14980     14973     14985     14986     14982     14973     14987     14988
     14996     14989     15001     15002     14998     14989     15003     15004
     15012     15005     15017     15018     15014     15005     15019     15020
     15028     15021     15033     15034     15030     15021     15035     15036
     15044     15037     15049     15050     15046     15037     15051     15052
     15060     15053     15065     15066     15062     15053     15067     15068
     15076     15069     15081     15082     15078     15069     15083     15084
     15092     15085     15097     15098     15094     15085     15099     15100
     15108     15101     15113     15114     15110     15101     15115     15116
     15124     15117     15129     15130     15126     15117     15131     15132
     15140     15133     15145     15146     15142     15133     15147     15148
     15156     15149     15161     15162     15158     15149     15163     15164
     15172     15165     15177     15178     15174     15165     15179     15180
     15188     15181     15193     15194     15190     15181     15195     15196
     15204     15197     15209     15210     15206     15197     15211     15212
     15220     15213     15225     15226     15222     15213     15227     15228
     15236     15229     15241     15242     15238     15229     15243     15244
     15252     15245     15257     15258     15254     15245     15259     15260
     15268     15261     15273     15274     15270     15261     15275     15276
     15284     15277     15289     15290     15286     15277     15291     15292
     15300     15293     15305     15306     15302     15293     15307     15308
     15316     15309     15321     15322     15318     15309     15323     15324
     15332     15325     15337     15338     15334     15325     15339     15340
     15348     15341     15353     15354     15350     15341     15355     15356
     15364     15357     15369     15370     15366     15357     15371     15372
     15380     15373     15385     15386     15382     15373     15387     15388
     15396     15389     15401     15402     15398     15389     15403     15404
     15412     15405     15417     15418     15414     15405     15419     15420
     15428     15421     15433     15434     15430     15421     15435     15436
     15444     15437     15449     15450     15446     15437     15451     15452
     15460     15453     15465     15466     15462     15453     15467     15468
     15476     15469     15481     15482     15478     15469     15483     15484
     15492     15485     15497     15498     15494     15485     15499     15500
     15508     15501     15513     15514     15510     15501     15515     15516
     15524     15517     15529     15530     15526     15517     15531     15532
     15540     15533     15545     15546     15542     15533     15547     15548
     15556     15549     15561     15562     15558     15549     15563     15564
     15572     15565     15577     15578     15574     15565     15579     15580
     15588     15581     15593     15594     15590     15581     15595     15596
     15604     15597     15609     15610     15606     15597     15611     15612
     15620     15613     15625     15626     15622     15613     15627     15628
     15636     15629     15641     15642     15638     15629     15643     15644
     15652     15645     15657     15658     15654     15645     15659     15660
     15668     15661     15673     15674     15670     15661     15675     15676
     15684     15677     15689     15690     15686     15677     15691     15692
     15700     15693     15705     15706     15702     15693     15707     15708
     15716     15709     15721     15722     15718     15709     15723     15724
     15732     15725     15737     15738     15734     15725     15739     15740
     15748     15741     15753     15754     15750     15741     15755     15756
     15764     15757     15769     15770     15766     15757     15771     15772
     15780     15773     15785     15786     15782     15773     15787     15788
     15796     15789     15801     15802     15798     15789     15803     15804
     15812     15805     15817     15818     15814     15805     15819     15820
     15828     15821     15833     15834     15830     15821     15835     15836
     15844     15837     15849     15850     15846     15837     15851     15852
     15860     15853     15865     15866     15862     15853     15867     15868
     15876     15869     15881     15882     15878     15869     15883     15884
     15892     15885     15897     15898     15894     15885     15899     15900
     15908     15901     15913     15914     15910     15901     15915     15916
     15924     15917     15929     15930     15926     15917     15931     15932
     15940     15933     15945     15946     15942     15933     15947     15948
     15956     15949     15961     15962     15958     15949     15963     15964
     15972     15965     15977     15978     15974     15965     15979     15980
     15988     15981     15993     15994     15990     15981     15995     15996
     16004     15997     16009     16010     16006     15997     16011     16012
     16020     16013     16025     16026     16022     16013     16027     16028
     16036     16029     16041     16042     16038     16029     16043     16044
     16052     16045     16057     16058     16054     16045     16059     16060
     16068     16061     16073     16074     16070     16061     16075     16076
     16084     16077     16089     16090     16086     16077     16091     16092
     16100     16093     16105     16106     16102     16093     16107     16108
     16116     16109     16121     16122     16118     16109     16123     16124
     16132     16125     16137     16138     16134     16125     16139     16140
     16148     16141     16153     16154     16150     16141     16155     16156
     16164     16157     16169     16170     16166     16157     16171     16172
     16180     16173     16185     16186     16182     16173     16187     16188
     16196     16189     16201     16202     16198     16189     16203     16204
     16212     16205     16217     16218     16214     16205     16219     16220
     16228     16221     16233     16234     16230     16221     16235     16236
     16244     16237     16249     16250     16246     16237     16251     16252
     16260     16253     16265     16266     16262     16253     16267     16268
     16276     16269     16281     16282     16278     16269     16283     16284
     16292     16285     16297     16298     16294     16285     16299     16300
     16308     16301     16313     16314     16310     16301     16315     16316
     16324     16317     16329     16330     16326     16317     16331     16332
     16340     16333     16345     16346     16342     16333     16347     16348
     16356     16349     16361     16362     16358     16349     16363     16364
     16372     16365     16377     16378     16374     16365     16379     16380
     16388     16381     16393     16394     16390     16381     16395     16396
     16404     16397     16409     16410     16406     16397     16411     16412
     16420     16413     16425     16426     16422     16413     16427     16428
     16436     16429     16441     16442     16438     16429     16443     16444
     16452     16445     16457     16458     16454     16445     16459     16460
     16468     16461     16473     16474     16470     16461     16475     16476
     16484     16477     16489     16490     16486     16477     16491     16492
     16500     16493     16505     16506     16502     16493     16507     16508
     16516     16509     16521     16522     16518     16509     16523     16524
     16532     16525     16537     16538     16534     16525     16539     16540
     16548     16541     16553     16554     16550     16541     16555     16556
     16564     16557     16569     16570     16566     16557     16571     16572
     16580     16573     16585     16586     16582     16573     16587     16588
     16596     16589     16601     16602     16598     16589     16603     16604
     16612     16605     16617     16618     16614     16605     16619     16620
     16628     16621     16633     16634     16630     16621     16635     16636
     16644     16637     16649     16650     16646     16637     16651     16652
     16660     16653     16665     16666     16662     16653     16667     16668
     16676     16669     16681     16682     16678     16669     16683     16684
     16692     16685     16697     16698     16694     16685     16699     16700
     16708     16701     16713     16714     16710     16701     16715     16716
     16724     16717     16729     16730     16726     16717     16731     16732
     16740     16733     16745     16746     16742     16733     16747     16748
     16756     16749     16761     16762     16758     16749     16763     16764
     16772     16765     16777     16778     16774     16765     16779     16780
     16788     16781     16793     16794     16790     16781     16795     16796
     16804     16797     16809     16810     16806     16797     16811     16812
     16820     16813     16825     16826     16822     16813     16827     16828
     16836     16829     16841     16842     16838     16829     16843     16844
     16852     16845     16857     16858     16854     16845     16859     16860
     16868     16861     16873     16874     16870     16861     16875     16876
     16884     16877     16889     16890     16886     16877     16891     16892
     16900     16893     16905     16906     16902     16893     16907     16908
     16916     16909     16921     16922     16918     16909     16923     16924
     16932     16925     16937     16938     16934     16925     16939     16940
     16948     16941     16953     16954     16950     16941     16955     16956
     16964     16957     16969     16970     16966     16957     16971     16972
     16980     16973     16985     16986     16982     16973     16987     16988
     16996     16989     17001     17002     16998     16989     17003     17004
     17012     17005     17017     17018     17014     17005     17019     17020
     17028     17021     17033     17034     17030     17021     17035     17036
     17044     17037     17049     17050     17046     17037     17051     17052
     17060     17053     17065     17066     17062     17053     17067     17068
     17076     17069     17081     17082     17078     17069     17083     17084
     17092     17085     17097     17098     17094     17085     17099     17100
     17108     17101     17113     17114     17110     17101     17115     17116
     17124     17117     17129     17130     17126     17117     17131     17132
     17140     17133     17145     17146     17142     17133     17147     17148
     17156     17149     17161     17162     17158     17149     17163     17164
     17172     17165     17177     17178     17174     17165     17179     17180
     17188     17181     17193     17194     17190     17181     17195     17196
     17204     17197     17209     17210     17206     17197     17211     17212
     17220     17213     17225     17226     17222     17213     17227     17228
     17236     17229     17241     17242     17238     17229     17243     17244
     17252     17245     17257     17258     17254     17245     17259     17260
     17268     17261     17273     17274     17270     17261     17275     17276
     17284     17277     17289     17290     17286     17277     17291     17292
     17300     17293     17305     17306     17302     17293     17307     17308
     17316     17309     17321     17322     17318     17309     17323     17324
     17332     17325     17337     17338     17334     17325     17339     17340
     17348     17341     17353     17354     17350     17341     17355     17356
     17364     17357     17369     17370     17366     17357     17371     17372
     17380     17373     17385     17386     17382     17373     17387     17388
     17396     17389     17401     17402     17398     17389     17403     17404
     17412     17405     17417     17418     17414     17405     17419     17420
     17428     17421     17433     17434     17430     17421     17435     17436
     17444     17437     17449     17450     17446     17437     17451     17452
     17460     17453     17465     17466     17462     17453     17467     17468
     17476     17469     17481     17482     17478     17469     17483     17484
     17492     17485     17497     17498     17494     17485     17499     17500
     17508     17501     17513     17514     17510     17501     17515     17516
     17524     17517     17529     17530     17526     17517     17531     17532
     17540     17533     17545     17546     17542     17533     17547     17548
     17556     17549     17561     17562     17558     17549     17563     17564
     17572     17565     17577     17578     17574     17565     17579     17580
     17588     17581     17593     17594     17590     17581     17595     17596
     17604     17597     17609     17610     17606     17597     17611     17612
     17620     17613     17625     17626     17622     17613     17627     17628
     17636     17629     17641     17642     17638     17629     17643     17644
     17652     17645     17657     17658     17654     17645     17659     17660
     17668     17661     17673     17674     17670     17661     17675     17676
     17684     17677     17689     17690     17686     17677     17691     17692
     17700     17693     17705     17706     17702     17693     17707     17708
     17716     17709     17721     17722     17718     17709     17723     17724
     17732     17725     17737     17738     17734     17725     17739     17740
     17748     17741     17753     17754     17750     17741     17755     17756
     17764     17757     17769     17770     17766     17757     17771     17772
     17780     17773     17785     17786     17782     17773     17787     17788
     17796     17789     17801     17802     17798     17789     17803     17804
     17812     17805     17817     17818     17814     17805     17819     17820
     17828     17821     17833     17834     17830     17821     17835     17836
     17844     17837     17849     17850     17846     17837     17851     17852
     17860     17853     17865     17866     17862     17853     17867     17868
     17876     17869     17881     17882     17878     17869     17883     17884
     17892     17885     17897     17898     17894     17885     17899     17900
     17908     17901     17913     17914     17910     17901     17915     17916
     17924     17917     17929     17930     17926     17917     17931     17932
     17940     17933     17945     17946     17942     17933     17947     17948
     17956     17949     17961     17962     17958     17949     17963     17964
     17972     17965     17977     17978     17974     17965     17979     17980
     17988     17981     17993     17994     17990     17981     17995     17996
     18004     17997     18009     18010     18006     17997     18011     18012
     18020     18013     18025     18026     18022     18013     18027     18028
     18036     18029     18041     18042     18038     18029     18043     18044
     18052     18045     18057     18058     18054     18045     18059     18060
     18068     18061     18073     18074     18070     18061     18075     18076
     18084     18077     18089     18090     18086     18077     18091     18092
     18100     18093     18105     18106     18102     18093     18107     18108
     18116     18109     18121     18122     18118     18109     18123     18124
     18132     18125     18137     18138     18134     18125     18139     18140

         0 !NCRTERM: cross-terms

