*    Packmol generated pdb file  
*    Home-Page: http://m3g.iqm.unicamp.br/packmol 
*  
      2430  EXT
         1         1  MEOH2     C1             -7.2180000000        1.6480000000        7.9450000000  MEOH2     1               0.0000000000
         2         1  MEOH2     DC1            -7.2180000000        1.6480000000        7.9450000000  MEOH2     1               0.0000000000
         3         1  MEOH2     O1             -8.6250000000        1.6450000000        8.3050000000  MEOH2     1               0.0000000000
         4         1  MEOH2     DO1            -8.6250000000        1.6450000000        8.3050000000  MEOH2     1               0.0000000000
         5         1  MEOH2     HO1            -8.8410000000        0.8560000000        8.8430000000  MEOH2     1               0.0000000000
         6         1  MEOH2     HO2            -8.9020000000        2.5310000000        8.6160000000  MEOH2     1               0.0000000000
         7         1  MEOH2     H1A            -6.9900000000        2.4610000000        7.2100000000  MEOH2     1               0.0000000000
         8         1  MEOH2     H1B            -6.9250000000        0.6860000000        7.4510000000  MEOH2     1               0.0000000000
         9         1  MEOH2     H1C            -6.5510000000        1.7920000000        8.8330000000  MEOH2     1               0.0000000000
        10         1  MEOH2     LP1A           -8.6730000000        1.8180000000        8.6070000000  MEOH2     1               0.0000000000
        11         1  MEOH2     LP1B           -8.8130000000        1.4820000000        8.0580000000  MEOH2     1               0.0000000000
        12         2  MEOH2     C1             -0.5330000000       -1.4690000000        1.7250000000  MEOH2     2               0.0000000000
        13         2  MEOH2     DC1            -0.5330000000       -1.4690000000        1.7250000000  MEOH2     2               0.0000000000
        14         2  MEOH2     O1             -0.4920000000       -1.7570000000        0.3010000000  MEOH2     2               0.0000000000
        15         2  MEOH2     DO1            -0.4920000000       -1.7570000000        0.3010000000  MEOH2     2               0.0000000000
        16         2  MEOH2     HO1             0.0090000000       -2.5800000000        0.1310000000  MEOH2     2               0.0000000000
        17         2  MEOH2     HO2            -1.3780000000       -1.6390000000       -0.0990000000  MEOH2     2               0.0000000000
        18         2  MEOH2     H1A            -0.9720000000       -0.4580000000        1.9210000000  MEOH2     2               0.0000000000
        19         2  MEOH2     H1B             0.4970000000       -1.4550000000        2.1650000000  MEOH2     2               0.0000000000
        20         2  MEOH2     H1C            -1.1380000000       -2.2210000000        2.2940000000  MEOH2     2               0.0000000000
        21         2  MEOH2     LP1A           -0.7700000000       -1.9500000000        0.2090000000  MEOH2     2               0.0000000000
        22         2  MEOH2     LP1B           -0.2140000000       -1.6020000000        0.1550000000  MEOH2     2               0.0000000000
        23         3  MEOH2     C1              6.9050000000       -7.3730000000        0.9710000000  MEOH2     3               0.0000000000
        24         3  MEOH2     DC1             6.9050000000       -7.3730000000        0.9710000000  MEOH2     3               0.0000000000
        25         3  MEOH2     O1              8.2370000000       -7.6980000000        1.4540000000  MEOH2     3               0.0000000000
        26         3  MEOH2     DO1             8.2370000000       -7.6980000000        1.4540000000  MEOH2     3               0.0000000000
        27         3  MEOH2     HO1             8.7180000000       -8.2400000000        0.7960000000  MEOH2     3               0.0000000000
        28         3  MEOH2     HO2             8.6660000000       -6.9060000000        1.8360000000  MEOH2     3               0.0000000000
        29         3  MEOH2     H1A             6.2930000000       -6.8840000000        1.7700000000  MEOH2     3               0.0000000000
        30         3  MEOH2     H1B             6.3480000000       -8.2970000000        0.6690000000  MEOH2     3               0.0000000000
        31         3  MEOH2     H1C             6.9290000000       -6.6840000000        0.0880000000  MEOH2     3               0.0000000000
        32         3  MEOH2     LP1A            8.4640000000       -7.4480000000        1.3600000000  MEOH2     3               0.0000000000
        33         3  MEOH2     LP1B            8.2290000000       -7.9960000000        1.6380000000  MEOH2     3               0.0000000000
        34         4  MEOH2     C1             -1.4580000000       -3.7970000000       -3.9090000000  MEOH2     4               0.0000000000
        35         4  MEOH2     DC1            -1.4580000000       -3.7970000000       -3.9090000000  MEOH2     4               0.0000000000
        36         4  MEOH2     O1             -0.1320000000       -3.7410000000       -4.5030000000  MEOH2     4               0.0000000000
        37         4  MEOH2     DO1            -0.1320000000       -3.7410000000       -4.5030000000  MEOH2     4               0.0000000000
        38         4  MEOH2     HO1            -0.1740000000       -3.3510000000       -5.4000000000  MEOH2     4               0.0000000000
        39         4  MEOH2     HO2             0.5180000000       -3.3980000000       -3.8560000000  MEOH2     4               0.0000000000
        40         4  MEOH2     H1A            -1.4470000000       -4.3730000000       -2.9490000000  MEOH2     4               0.0000000000
        41         4  MEOH2     H1B            -2.1810000000       -4.3230000000       -4.5840000000  MEOH2     4               0.0000000000
        42         4  MEOH2     H1C            -1.8720000000       -2.7790000000       -3.6930000000  MEOH2     4               0.0000000000
        43         4  MEOH2     LP1A            0.0250000000       -3.4390000000       -4.4190000000  MEOH2     4               0.0000000000
        44         4  MEOH2     LP1B           -0.0650000000       -4.0380000000       -4.6750000000  MEOH2     4               0.0000000000
        45         5  MEOH2     C1              1.9220000000       -6.8180000000       -3.3180000000  MEOH2     5               0.0000000000
        46         5  MEOH2     DC1             1.9220000000       -6.8180000000       -3.3180000000  MEOH2     5               0.0000000000
        47         5  MEOH2     O1              1.2730000000       -5.6460000000       -3.8810000000  MEOH2     5               0.0000000000
        48         5  MEOH2     DO1             1.2730000000       -5.6460000000       -3.8810000000  MEOH2     5               0.0000000000
        49         5  MEOH2     HO1             0.6050000000       -5.2920000000       -3.2590000000  MEOH2     5               0.0000000000
        50         5  MEOH2     HO2             1.9350000000       -5.0420000000       -4.2740000000  MEOH2     5               0.0000000000
        51         5  MEOH2     H1A             2.5780000000       -7.3190000000       -4.0750000000  MEOH2     5               0.0000000000
        52         5  MEOH2     H1B             1.1690000000       -7.5840000000       -2.9990000000  MEOH2     5               0.0000000000
        53         5  MEOH2     H1C             2.5550000000       -6.5690000000       -2.4280000000  MEOH2     5               0.0000000000
        54         5  MEOH2     LP1A            1.4520000000       -5.3570000000       -3.7960000000  MEOH2     5               0.0000000000
        55         5  MEOH2     LP1B            0.9930000000       -5.7420000000       -4.0680000000  MEOH2     5               0.0000000000
        56         6  MEOH2     C1              0.2800000000        3.1420000000       -8.1100000000  MEOH2     6               0.0000000000
        57         6  MEOH2     DC1             0.2800000000        3.1420000000       -8.1100000000  MEOH2     6               0.0000000000
        58         6  MEOH2     O1              0.7450000000        4.4650000000       -8.4920000000  MEOH2     6               0.0000000000
        59         6  MEOH2     DO1             0.7450000000        4.4650000000       -8.4920000000  MEOH2     6               0.0000000000
        60         6  MEOH2     HO1             1.6110000000        4.4080000000       -8.9440000000  MEOH2     6               0.0000000000
        61         6  MEOH2     HO2             0.0190000000        4.9790000000       -8.9020000000  MEOH2     6               0.0000000000
        62         6  MEOH2     H1A            -0.6320000000        3.2050000000       -7.4640000000  MEOH2     6               0.0000000000
        63         6  MEOH2     H1B             1.0540000000        2.5990000000       -7.5090000000  MEOH2     6               0.0000000000
        64         6  MEOH2     H1C             0.0280000000        2.5060000000       -8.9980000000  MEOH2     6               0.0000000000
        65         6  MEOH2     LP1A            0.6250000000        4.5480000000       -8.8110000000  MEOH2     6               0.0000000000
        66         6  MEOH2     LP1B            0.9320000000        4.6070000000       -8.2320000000  MEOH2     6               0.0000000000
        67         7  MEOH2     C1             -7.9380000000        7.1700000000       -1.4960000000  MEOH2     7               0.0000000000
        68         7  MEOH2     DC1            -7.9380000000        7.1700000000       -1.4960000000  MEOH2     7               0.0000000000
        69         7  MEOH2     O1             -7.8320000000        8.6190000000       -1.4560000000  MEOH2     7               0.0000000000
        70         7  MEOH2     DO1            -7.8320000000        8.6190000000       -1.4560000000  MEOH2     7               0.0000000000
        71         7  MEOH2     HO1            -8.0680000000        8.9560000000       -0.5680000000  MEOH2     7               0.0000000000
        72         7  MEOH2     HO2            -7.0010000000        8.9130000000       -1.8800000000  MEOH2     7               0.0000000000
        73         7  MEOH2     H1A            -7.8160000000        6.7840000000       -2.5400000000  MEOH2     7               0.0000000000
        74         7  MEOH2     H1B            -8.9480000000        6.8280000000       -1.1510000000  MEOH2     7               0.0000000000
        75         7  MEOH2     H1C            -7.1690000000        6.6680000000       -0.8540000000  MEOH2     7               0.0000000000
        76         7  MEOH2     LP1A           -7.5070000000        8.7130000000       -1.3660000000  MEOH2     7               0.0000000000
        77         7  MEOH2     LP1B           -8.1360000000        8.7640000000       -1.5520000000  MEOH2     7               0.0000000000
        78         8  MEOH2     C1             -4.8570000000       -4.1730000000       -5.5380000000  MEOH2     8               0.0000000000
        79         8  MEOH2     DC1            -4.8570000000       -4.1730000000       -5.5380000000  MEOH2     8               0.0000000000
        80         8  MEOH2     O1             -5.6080000000       -3.4030000000       -6.5150000000  MEOH2     8               0.0000000000
        81         8  MEOH2     DO1            -5.6080000000       -3.4030000000       -6.5150000000  MEOH2     8               0.0000000000
        82         8  MEOH2     HO1            -6.3550000000       -3.9290000000       -6.8660000000  MEOH2     8               0.0000000000
        83         8  MEOH2     HO2            -5.7690000000       -2.4950000000       -6.1860000000  MEOH2     8               0.0000000000
        84         8  MEOH2     H1A            -3.9180000000       -3.6410000000       -5.2390000000  MEOH2     8               0.0000000000
        85         8  MEOH2     H1B            -4.5390000000       -5.1610000000       -5.9590000000  MEOH2     8               0.0000000000
        86         8  MEOH2     H1C            -5.4480000000       -4.3730000000       -4.6070000000  MEOH2     8               0.0000000000
        87         8  MEOH2     LP1A           -5.8600000000       -3.2190000000       -6.3550000000  MEOH2     8               0.0000000000
        88         8  MEOH2     LP1B           -5.4730000000       -3.4500000000       -6.8350000000  MEOH2     8               0.0000000000
        89         9  MEOH2     C1              2.9110000000        0.6940000000       -5.8260000000  MEOH2     9               0.0000000000
        90         9  MEOH2     DC1             2.9110000000        0.6940000000       -5.8260000000  MEOH2     9               0.0000000000
        91         9  MEOH2     O1              3.4560000000       -0.3270000000       -6.7060000000  MEOH2     9               0.0000000000
        92         9  MEOH2     DO1             3.4560000000       -0.3270000000       -6.7060000000  MEOH2     9               0.0000000000
        93         9  MEOH2     HO1             4.2970000000       -0.6770000000       -6.3470000000  MEOH2     9               0.0000000000
        94         9  MEOH2     HO2             2.7540000000       -0.9480000000       -6.9870000000  MEOH2     9               0.0000000000
        95         9  MEOH2     H1A             2.0330000000        1.2060000000       -6.2960000000  MEOH2     9               0.0000000000
        96         9  MEOH2     H1B             3.6670000000        1.4930000000       -5.6180000000  MEOH2     9               0.0000000000
        97         9  MEOH2     H1C             2.5780000000        0.2740000000       -4.8430000000  MEOH2     9               0.0000000000
        98         9  MEOH2     LP1A            3.3300000000       -0.6420000000       -6.6190000000  MEOH2     9               0.0000000000
        99         9  MEOH2     LP1B            3.6630000000       -0.1800000000       -6.9470000000  MEOH2     9               0.0000000000
       100        10  MEOH2     C1             -8.0650000000        1.8140000000        0.1660000000  MEOH2     10              0.0000000000
       101        10  MEOH2     DC1            -8.0650000000        1.8140000000        0.1660000000  MEOH2     10              0.0000000000
       102        10  MEOH2     O1             -8.1050000000        2.6680000000        1.3420000000  MEOH2     10              0.0000000000
       103        10  MEOH2     DO1            -8.1050000000        2.6680000000        1.3420000000  MEOH2     10              0.0000000000
       104        10  MEOH2     HO1            -7.2640000000        3.1580000000        1.4390000000  MEOH2     10              0.0000000000
       105        10  MEOH2     HO2            -8.9550000000        3.1520000000        1.3850000000  MEOH2     10              0.0000000000
       106        10  MEOH2     H1A            -8.9580000000        1.1400000000        0.1250000000  MEOH2     10              0.0000000000
       107        10  MEOH2     H1B            -7.1660000000        1.1460000000        0.1820000000  MEOH2     10              0.0000000000
       108        10  MEOH2     H1C            -8.0370000000        2.4030000000       -0.7870000000  MEOH2     10              0.0000000000
       109        10  MEOH2     LP1A           -8.2360000000        2.9820000000        1.2590000000  MEOH2     10              0.0000000000
       110        10  MEOH2     LP1B           -7.9920000000        2.4910000000        1.6230000000  MEOH2     10              0.0000000000
       111        11  MEOH2     C1              5.1940000000        3.9550000000       -2.3610000000  MEOH2     11              0.0000000000
       112        11  MEOH2     DC1             5.1940000000        3.9550000000       -2.3610000000  MEOH2     11              0.0000000000
       113        11  MEOH2     O1              5.0180000000        4.5940000000       -1.0680000000  MEOH2     11              0.0000000000
       114        11  MEOH2     DO1             5.0180000000        4.5940000000       -1.0680000000  MEOH2     11              0.0000000000
       115        11  MEOH2     HO1             4.2660000000        4.1940000000       -0.5860000000  MEOH2     11              0.0000000000
       116        11  MEOH2     HO2             5.8800000000        4.6980000000       -0.6160000000  MEOH2     11              0.0000000000
       117        11  MEOH2     H1A             5.9510000000        4.4990000000       -2.9810000000  MEOH2     11              0.0000000000
       118        11  MEOH2     H1B             4.2410000000        3.9650000000       -2.9490000000  MEOH2     11              0.0000000000
       119        11  MEOH2     H1C             5.5280000000        2.8900000000       -2.2680000000  MEOH2     11              0.0000000000
       120        11  MEOH2     LP1A            5.2120000000        4.4320000000       -0.8250000000  MEOH2     11              0.0000000000
       121        11  MEOH2     LP1B            4.8040000000        4.8700000000       -1.0980000000  MEOH2     11              0.0000000000
       122        12  MEOH2     C1             -1.0690000000       -3.6230000000        8.2430000000  MEOH2     12              0.0000000000
       123        12  MEOH2     DC1            -1.0690000000       -3.6230000000        8.2430000000  MEOH2     12              0.0000000000
       124        12  MEOH2     O1             -0.0340000000       -4.4820000000        8.7930000000  MEOH2     12              0.0000000000
       125        12  MEOH2     DO1            -0.0340000000       -4.4820000000        8.7930000000  MEOH2     12              0.0000000000
       126        12  MEOH2     HO1             0.0620000000       -5.2930000000        8.2540000000  MEOH2     12              0.0000000000
       127        12  MEOH2     HO2             0.7600000000       -3.9580000000        9.0230000000  MEOH2     12              0.0000000000
       128        12  MEOH2     H1A            -1.2920000000       -2.7670000000        8.9290000000  MEOH2     12              0.0000000000
       129        12  MEOH2     H1B            -2.0320000000       -4.1820000000        8.1150000000  MEOH2     12              0.0000000000
       130        12  MEOH2     H1C            -0.7850000000       -3.1980000000        7.2460000000  MEOH2     12              0.0000000000
       131        12  MEOH2     LP1A            0.2780000000       -4.3980000000        8.6560000000  MEOH2     12              0.0000000000
       132        12  MEOH2     LP1B           -0.1710000000       -4.7000000000        9.0300000000  MEOH2     12              0.0000000000
       133        13  MEOH2     C1              8.3110000000        5.8500000000        5.9400000000  MEOH2     13              0.0000000000
       134        13  MEOH2     DC1             8.3110000000        5.8500000000        5.9400000000  MEOH2     13              0.0000000000
       135        13  MEOH2     O1              7.1900000000        5.8180000000        5.0160000000  MEOH2     13              0.0000000000
       136        13  MEOH2     DO1             7.1900000000        5.8180000000        5.0160000000  MEOH2     13              0.0000000000
       137        13  MEOH2     HO1             6.5930000000        6.5780000000        5.1730000000  MEOH2     13              0.0000000000
       138        13  MEOH2     HO2             7.5000000000        5.6260000000        4.1080000000  MEOH2     13              0.0000000000
       139        13  MEOH2     H1A             8.9190000000        4.9120000000        5.8720000000  MEOH2     13              0.0000000000
       140        13  MEOH2     H1B             7.9590000000        5.9210000000        7.0010000000  MEOH2     13              0.0000000000
       141        13  MEOH2     H1C             8.9960000000        6.7160000000        5.7490000000  MEOH2     13              0.0000000000
       142        13  MEOH2     LP1A            7.2710000000        5.9900000000        4.7220000000  MEOH2     13              0.0000000000
       143        13  MEOH2     LP1B            6.9270000000        5.6310000000        5.1530000000  MEOH2     13              0.0000000000
       144        14  MEOH2     C1              5.0490000000       -4.4230000000        0.9380000000  MEOH2     14              0.0000000000
       145        14  MEOH2     DC1             5.0490000000       -4.4230000000        0.9380000000  MEOH2     14              0.0000000000
       146        14  MEOH2     O1              6.1550000000       -4.5240000000        0.0010000000  MEOH2     14              0.0000000000
       147        14  MEOH2     DO1             6.1550000000       -4.5240000000        0.0010000000  MEOH2     14              0.0000000000
       148        14  MEOH2     HO1             7.0060000000       -4.5910000000        0.4810000000  MEOH2     14              0.0000000000
       149        14  MEOH2     HO2             5.9480000000       -5.1670000000       -0.7070000000  MEOH2     14              0.0000000000
       150        14  MEOH2     H1A             4.0890000000       -4.1970000000        0.4070000000  MEOH2     14              0.0000000000
       151        14  MEOH2     H1B             5.2100000000       -3.5870000000        1.6660000000  MEOH2     14              0.0000000000
       152        14  MEOH2     H1C             4.9010000000       -5.3650000000        1.5260000000  MEOH2     14              0.0000000000
       153        14  MEOH2     LP1A            6.2160000000       -4.8600000000       -0.0790000000  MEOH2     14              0.0000000000
       154        14  MEOH2     LP1B            6.2710000000       -4.2040000000       -0.0830000000  MEOH2     14              0.0000000000
       155        15  MEOH2     C1              3.1860000000       -3.7770000000       -8.1690000000  MEOH2     15              0.0000000000
       156        15  MEOH2     DC1             3.1860000000       -3.7770000000       -8.1690000000  MEOH2     15              0.0000000000
       157        15  MEOH2     O1              4.5330000000       -4.3180000000       -8.0990000000  MEOH2     15              0.0000000000
       158        15  MEOH2     DO1             4.5330000000       -4.3180000000       -8.0990000000  MEOH2     15              0.0000000000
       159        15  MEOH2     HO1             4.7970000000       -4.6950000000       -8.9620000000  MEOH2     15              0.0000000000
       160        15  MEOH2     HO2             5.1300000000       -3.6920000000       -7.6410000000  MEOH2     15              0.0000000000
       161        15  MEOH2     H1A             2.8170000000       -3.4780000000       -7.1550000000  MEOH2     15              0.0000000000
       162        15  MEOH2     H1B             2.4630000000       -4.5410000000       -8.5540000000  MEOH2     15              0.0000000000
       163        15  MEOH2     H1C             3.1210000000       -2.8790000000       -8.8350000000  MEOH2     15              0.0000000000
       164        15  MEOH2     LP1A            4.7670000000       -4.0690000000       -8.1770000000  MEOH2     15              0.0000000000
       165        15  MEOH2     LP1B            4.5230000000       -4.6530000000       -7.9970000000  MEOH2     15              0.0000000000
       166        16  MEOH2     C1             -0.6570000000       -7.9240000000       -0.2640000000  MEOH2     16              0.0000000000
       167        16  MEOH2     DC1            -0.6570000000       -7.9240000000       -0.2640000000  MEOH2     16              0.0000000000
       168        16  MEOH2     O1              0.2590000000       -8.4080000000       -1.2840000000  MEOH2     16              0.0000000000
       169        16  MEOH2     DO1             0.2590000000       -8.4080000000       -1.2840000000  MEOH2     16              0.0000000000
       170        16  MEOH2     HO1             1.0790000000       -8.7490000000       -0.8740000000  MEOH2     16              0.0000000000
       171        16  MEOH2     HO2            -0.2180000000       -8.9550000000       -1.9410000000  MEOH2     16              0.0000000000
       172        16  MEOH2     H1A            -1.5320000000       -7.3960000000       -0.7230000000  MEOH2     16              0.0000000000
       173        16  MEOH2     H1B            -0.1580000000       -7.1790000000        0.4070000000  MEOH2     16              0.0000000000
       174        16  MEOH2     H1C            -1.0540000000       -8.7510000000        0.3790000000  MEOH2     16              0.0000000000
       175        16  MEOH2     LP1A            0.1960000000       -8.7450000000       -1.3520000000  MEOH2     16              0.0000000000
       176        16  MEOH2     LP1B            0.4660000000       -8.1470000000       -1.3930000000  MEOH2     16              0.0000000000
       177        17  MEOH2     C1              8.3430000000        8.0230000000       -2.9860000000  MEOH2     17              0.0000000000
       178        17  MEOH2     DC1             8.3430000000        8.0230000000       -2.9860000000  MEOH2     17              0.0000000000
       179        17  MEOH2     O1              6.9090000000        8.2580000000       -2.9740000000  MEOH2     17              0.0000000000
       180        17  MEOH2     DO1             6.9090000000        8.2580000000       -2.9740000000  MEOH2     17              0.0000000000
       181        17  MEOH2     HO1             6.6000000000        8.4520000000       -2.0650000000  MEOH2     17              0.0000000000
       182        17  MEOH2     HO2             6.6530000000        8.8520000000       -3.7080000000  MEOH2     17              0.0000000000
       183        17  MEOH2     H1A             8.6840000000        7.6550000000       -3.9870000000  MEOH2     17              0.0000000000
       184        17  MEOH2     H1B             8.6290000000        7.2320000000       -2.2460000000  MEOH2     17              0.0000000000
       185        17  MEOH2     H1C             8.9290000000        8.9460000000       -2.7420000000  MEOH2     17              0.0000000000
       186        17  MEOH2     LP1A            6.8420000000        8.5980000000       -3.0300000000  MEOH2     17              0.0000000000
       187        17  MEOH2     LP1B            6.7380000000        7.9560000000       -2.9280000000  MEOH2     17              0.0000000000
       188        18  MEOH2     C1              2.2390000000       -0.0730000000        1.0630000000  MEOH2     18              0.0000000000
       189        18  MEOH2     DC1             2.2390000000       -0.0730000000        1.0630000000  MEOH2     18              0.0000000000
       190        18  MEOH2     O1              3.3900000000       -0.8060000000        0.5620000000  MEOH2     18              0.0000000000
       191        18  MEOH2     DO1             3.3900000000       -0.8060000000        0.5620000000  MEOH2     18              0.0000000000
       192        18  MEOH2     HO1             3.4410000000       -0.7410000000       -0.4130000000  MEOH2     18              0.0000000000
       193        18  MEOH2     HO2             4.1820000000       -0.6110000000        1.1030000000  MEOH2     18              0.0000000000
       194        18  MEOH2     H1A             2.0830000000       -0.2610000000        2.1550000000  MEOH2     18              0.0000000000
       195        18  MEOH2     H1B             1.2980000000       -0.3990000000        0.5500000000  MEOH2     18              0.0000000000
       196        18  MEOH2     H1C             2.3420000000        1.0330000000        0.9170000000  MEOH2     18              0.0000000000
       197        18  MEOH2     LP1A            3.6710000000       -0.5980000000        0.5550000000  MEOH2     18              0.0000000000
       198        18  MEOH2     LP1B            3.3020000000       -1.1390000000        0.4980000000  MEOH2     18              0.0000000000
       199        19  MEOH2     C1              7.9900000000       -6.5400000000       -0.4750000000  MEOH2     19              0.0000000000
       200        19  MEOH2     DC1             7.9900000000       -6.5400000000       -0.4750000000  MEOH2     19              0.0000000000
       201        19  MEOH2     O1              8.5190000000       -7.6220000000       -1.2880000000  MEOH2     19              0.0000000000
       202        19  MEOH2     DO1             8.5190000000       -7.6220000000       -1.2880000000  MEOH2     19              0.0000000000
       203        19  MEOH2     HO1             8.9630000000       -7.2680000000       -2.0850000000  MEOH2     19              0.0000000000
       204        19  MEOH2     HO2             8.9820000000       -8.2770000000       -0.7270000000  MEOH2     19              0.0000000000
       205        19  MEOH2     H1A             7.3530000000       -6.9340000000        0.3580000000  MEOH2     19              0.0000000000
       206        19  MEOH2     H1B             7.3330000000       -5.8640000000       -1.0790000000  MEOH2     19              0.0000000000
       207        19  MEOH2     H1C             8.8000000000       -5.9140000000       -0.0200000000  MEOH2     19              0.0000000000
       208        19  MEOH2     LP1A            8.8450000000       -7.7010000000       -1.1860000000  MEOH2     19              0.0000000000
       209        19  MEOH2     LP1B            8.2760000000       -7.7310000000       -1.5160000000  MEOH2     19              0.0000000000
       210        20  MEOH2     C1              3.1670000000        5.1330000000       -6.6350000000  MEOH2     20              0.0000000000
       211        20  MEOH2     DC1             3.1670000000        5.1330000000       -6.6350000000  MEOH2     20              0.0000000000
       212        20  MEOH2     O1              3.1560000000        3.8350000000       -5.9810000000  MEOH2     20              0.0000000000
       213        20  MEOH2     DO1             3.1560000000        3.8350000000       -5.9810000000  MEOH2     20              0.0000000000
       214        20  MEOH2     HO1             3.2040000000        3.1160000000       -6.6430000000  MEOH2     20              0.0000000000
       215        20  MEOH2     HO2             3.7680000000        3.8310000000       -5.2170000000  MEOH2     20              0.0000000000
       216        20  MEOH2     H1A             2.9630000000        5.9560000000       -5.9040000000  MEOH2     20              0.0000000000
       217        20  MEOH2     H1B             2.3660000000        5.1990000000       -7.4150000000  MEOH2     20              0.0000000000
       218        20  MEOH2     H1C             4.1470000000        5.3510000000       -7.1320000000  MEOH2     20              0.0000000000
       219        20  MEOH2     LP1A            3.4830000000        3.7360000000       -5.9030000000  MEOH2     20              0.0000000000
       220        20  MEOH2     LP1B            2.8260000000        3.7240000000       -5.9390000000  MEOH2     20              0.0000000000
       221        21  MEOH2     C1              7.8870000000       -6.4630000000        7.1880000000  MEOH2     21              0.0000000000
       222        21  MEOH2     DC1             7.8870000000       -6.4630000000        7.1880000000  MEOH2     21              0.0000000000
       223        21  MEOH2     O1              8.2640000000       -7.0460000000        8.4650000000  MEOH2     21              0.0000000000
       224        21  MEOH2     DO1             8.2640000000       -7.0460000000        8.4650000000  MEOH2     21              0.0000000000
       225        21  MEOH2     HO1             8.9230000000       -6.4820000000        8.9180000000  MEOH2     21              0.0000000000
       226        21  MEOH2     HO2             7.4700000000       -7.3480000000        8.9520000000  MEOH2     21              0.0000000000
       227        21  MEOH2     H1A             7.2490000000       -7.1670000000        6.5950000000  MEOH2     21              0.0000000000
       228        21  MEOH2     H1B             8.7890000000       -6.2500000000        6.5590000000  MEOH2     21              0.0000000000
       229        21  MEOH2     H1C             7.3190000000       -5.5050000000        7.3070000000  MEOH2     21              0.0000000000
       230        21  MEOH2     LP1A            8.0480000000       -6.9330000000        8.7170000000  MEOH2     21              0.0000000000
       231        21  MEOH2     LP1B            8.5340000000       -7.2640000000        8.4230000000  MEOH2     21              0.0000000000
       232        22  MEOH2     C1             -8.1030000000        0.8780000000        6.1960000000  MEOH2     22              0.0000000000
       233        22  MEOH2     DC1            -8.1030000000        0.8780000000        6.1960000000  MEOH2     22              0.0000000000
       234        22  MEOH2     O1             -8.1340000000        0.8060000000        4.7450000000  MEOH2     22              0.0000000000
       235        22  MEOH2     DO1            -8.1340000000        0.8060000000        4.7450000000  MEOH2     22              0.0000000000
       236        22  MEOH2     HO1            -7.9090000000       -0.0960000000        4.4410000000  MEOH2     22              0.0000000000
       237        22  MEOH2     HO2            -8.9350000000        1.2480000000        4.3970000000  MEOH2     22              0.0000000000
       238        22  MEOH2     H1A            -8.2120000000        1.9350000000        6.5510000000  MEOH2     22              0.0000000000
       239        22  MEOH2     H1B            -7.1250000000        0.5100000000        6.5990000000  MEOH2     22              0.0000000000
       240        22  MEOH2     H1C            -8.9170000000        0.2720000000        6.6700000000  MEOH2     22              0.0000000000
       241        22  MEOH2     LP1A           -8.4560000000        0.7240000000        4.6350000000  MEOH2     22              0.0000000000
       242        22  MEOH2     LP1B           -7.8200000000        0.8890000000        4.6140000000  MEOH2     22              0.0000000000
       243        23  MEOH2     C1              5.1910000000       -5.7210000000       -4.6700000000  MEOH2     23              0.0000000000
       244        23  MEOH2     DC1             5.1910000000       -5.7210000000       -4.6700000000  MEOH2     23              0.0000000000
       245        23  MEOH2     O1              5.6950000000       -5.2410000000       -3.3940000000  MEOH2     23              0.0000000000
       246        23  MEOH2     DO1             5.6950000000       -5.2410000000       -3.3940000000  MEOH2     23              0.0000000000
       247        23  MEOH2     HO1             5.7370000000       -5.9720000000       -2.7450000000  MEOH2     23              0.0000000000
       248        23  MEOH2     HO2             6.4760000000       -4.6670000000       -3.5280000000  MEOH2     23              0.0000000000
       249        23  MEOH2     H1A             4.9970000000       -4.8710000000       -5.3740000000  MEOH2     23              0.0000000000
       250        23  MEOH2     H1B             4.2140000000       -6.2540000000       -4.5450000000  MEOH2     23              0.0000000000
       251        23  MEOH2     H1C             5.9030000000       -6.4250000000       -5.1720000000  MEOH2     23              0.0000000000
       252        23  MEOH2     LP1A            6.0440000000       -5.2630000000       -3.3870000000  MEOH2     23              0.0000000000
       253        23  MEOH2     LP1B            5.4290000000       -5.1290000000       -3.1950000000  MEOH2     23              0.0000000000
       254        24  MEOH2     C1             -1.2940000000       -7.1650000000        2.6080000000  MEOH2     24              0.0000000000
       255        24  MEOH2     DC1            -1.2940000000       -7.1650000000        2.6080000000  MEOH2     24              0.0000000000
       256        24  MEOH2     O1             -1.1310000000       -8.5360000000        3.0620000000  MEOH2     24              0.0000000000
       257        24  MEOH2     DO1            -1.1310000000       -8.5360000000        3.0620000000  MEOH2     24              0.0000000000
       258        24  MEOH2     HO1            -2.0000000000       -8.9810000000        3.1280000000  MEOH2     24              0.0000000000
       259        24  MEOH2     HO2            -0.4000000000       -8.9720000000        2.5790000000  MEOH2     24              0.0000000000
       260        24  MEOH2     H1A            -0.3290000000       -6.6010000000        2.6700000000  MEOH2     24              0.0000000000
       261        24  MEOH2     H1B            -2.0240000000       -6.6100000000        3.2520000000  MEOH2     24              0.0000000000
       262        24  MEOH2     H1C            -1.6580000000       -7.1060000000        1.5500000000  MEOH2     24              0.0000000000
       263        24  MEOH2     LP1A           -1.0840000000       -8.7490000000        2.7880000000  MEOH2     24              0.0000000000
       264        24  MEOH2     LP1B           -1.1390000000       -8.5490000000        3.4120000000  MEOH2     24              0.0000000000
       265        25  MEOH2     C1              4.4710000000        5.7970000000        6.8810000000  MEOH2     25              0.0000000000
       266        25  MEOH2     DC1             4.4710000000        5.7970000000        6.8810000000  MEOH2     25              0.0000000000
       267        25  MEOH2     O1              5.6390000000        5.7410000000        7.7430000000  MEOH2     25              0.0000000000
       268        25  MEOH2     DO1             5.6390000000        5.7410000000        7.7430000000  MEOH2     25              0.0000000000
       269        25  MEOH2     HO1             5.5090000000        5.0810000000        8.4540000000  MEOH2     25              0.0000000000
       270        25  MEOH2     HO2             6.4590000000        5.7230000000        7.2100000000  MEOH2     25              0.0000000000
       271        25  MEOH2     H1A             4.5430000000        6.6490000000        6.1570000000  MEOH2     25              0.0000000000
       272        25  MEOH2     H1B             3.5370000000        5.9680000000        7.4750000000  MEOH2     25              0.0000000000
       273        25  MEOH2     H1C             4.3320000000        4.8560000000        6.2900000000  MEOH2     25              0.0000000000
       274        25  MEOH2     LP1A            5.8690000000        5.5090000000        7.6190000000  MEOH2     25              0.0000000000
       275        25  MEOH2     LP1B            5.6070000000        5.9730000000        8.0040000000  MEOH2     25              0.0000000000
       276        26  MEOH2     C1             -3.0410000000        8.5320000000        2.0210000000  MEOH2     26              0.0000000000
       277        26  MEOH2     DC1            -3.0410000000        8.5320000000        2.0210000000  MEOH2     26              0.0000000000
       278        26  MEOH2     O1             -3.1330000000        7.0830000000        2.0610000000  MEOH2     26              0.0000000000
       279        26  MEOH2     DO1            -3.1330000000        7.0830000000        2.0610000000  MEOH2     26              0.0000000000
       280        26  MEOH2     HO1            -3.6330000000        6.7480000000        1.2890000000  MEOH2     26              0.0000000000
       281        26  MEOH2     HO2            -2.2630000000        6.6900000000        2.2800000000  MEOH2     26              0.0000000000
       282        26  MEOH2     H1A            -2.6030000000        8.9370000000        2.9690000000  MEOH2     26              0.0000000000
       283        26  MEOH2     H1B            -4.0550000000        8.9990000000        1.9190000000  MEOH2     26              0.0000000000
       284        26  MEOH2     H1C            -2.4100000000        8.8960000000        1.1690000000  MEOH2     26              0.0000000000
       285        26  MEOH2     LP1A           -2.8570000000        6.9400000000        1.8980000000  MEOH2     26              0.0000000000
       286        26  MEOH2     LP1B           -3.4170000000        6.9850000000        2.2410000000  MEOH2     26              0.0000000000
       287        27  MEOH2     C1             -7.2490000000       -6.1260000000       -3.3240000000  MEOH2     27              0.0000000000
       288        27  MEOH2     DC1            -7.2490000000       -6.1260000000       -3.3240000000  MEOH2     27              0.0000000000
       289        27  MEOH2     O1             -6.3180000000       -6.1990000000       -2.2110000000  MEOH2     27              0.0000000000
       290        27  MEOH2     DO1            -6.3180000000       -6.1990000000       -2.2110000000  MEOH2     27              0.0000000000
       291        27  MEOH2     HO1            -6.5340000000       -6.9590000000       -1.6320000000  MEOH2     27              0.0000000000
       292        27  MEOH2     HO2            -5.3990000000       -6.0760000000       -2.5240000000  MEOH2     27              0.0000000000
       293        27  MEOH2     H1A            -7.1070000000       -5.1810000000       -3.9080000000  MEOH2     27              0.0000000000
       294        27  MEOH2     H1B            -8.3100000000       -6.1170000000       -2.9640000000  MEOH2     27              0.0000000000
       295        27  MEOH2     H1C            -7.1360000000       -6.9860000000       -4.0320000000  MEOH2     27              0.0000000000
       296        27  MEOH2     LP1A           -6.0390000000       -6.3930000000       -2.2990000000  MEOH2     27              0.0000000000
       297        27  MEOH2     LP1B           -6.4360000000       -6.0090000000       -1.9420000000  MEOH2     27              0.0000000000
       298        28  MEOH2     C1              5.0090000000        0.1540000000        3.3380000000  MEOH2     28              0.0000000000
       299        28  MEOH2     DC1             5.0090000000        0.1540000000        3.3380000000  MEOH2     28              0.0000000000
       300        28  MEOH2     O1              3.9260000000        1.0920000000        3.0970000000  MEOH2     28              0.0000000000
       301        28  MEOH2     DO1             3.9260000000        1.0920000000        3.0970000000  MEOH2     28              0.0000000000
       302        28  MEOH2     HO1             3.0940000000        0.7670000000        3.4980000000  MEOH2     28              0.0000000000
       303        28  MEOH2     HO2             4.2210000000        2.0090000000        3.2720000000  MEOH2     28              0.0000000000
       304        28  MEOH2     H1A             5.9260000000        0.4380000000        2.7610000000  MEOH2     28              0.0000000000
       305        28  MEOH2     H1B             4.7330000000       -0.8780000000        3.0010000000  MEOH2     28              0.0000000000
       306        28  MEOH2     H1C             5.2900000000        0.0960000000        4.4210000000  MEOH2     28              0.0000000000
       307        28  MEOH2     LP1A            3.9130000000        1.3310000000        3.3530000000  MEOH2     28              0.0000000000
       308        28  MEOH2     LP1B            3.7660000000        1.0170000000        2.7940000000  MEOH2     28              0.0000000000
       309        29  MEOH2     C1             -8.0900000000       -5.0630000000       -0.1240000000  MEOH2     29              0.0000000000
       310        29  MEOH2     DC1            -8.0900000000       -5.0630000000       -0.1240000000  MEOH2     29              0.0000000000
       311        29  MEOH2     O1             -8.4500000000       -4.5850000000        1.2010000000  MEOH2     29              0.0000000000
       312        29  MEOH2     DO1            -8.4500000000       -4.5850000000        1.2010000000  MEOH2     29              0.0000000000
       313        29  MEOH2     HO1            -8.8620000000       -3.6990000000        1.1460000000  MEOH2     29              0.0000000000
       314        29  MEOH2     HO2            -8.8920000000       -5.2920000000        1.7130000000  MEOH2     29              0.0000000000
       315        29  MEOH2     H1A            -7.4870000000       -6.0040000000       -0.0640000000  MEOH2     29              0.0000000000
       316        29  MEOH2     H1B            -7.4550000000       -4.3160000000       -0.6650000000  MEOH2     29              0.0000000000
       317        29  MEOH2     H1C            -8.9890000000       -5.2720000000       -0.7600000000  MEOH2     29              0.0000000000
       318        29  MEOH2     LP1A           -8.7740000000       -4.6900000000        1.2830000000  MEOH2     29              0.0000000000
       319        29  MEOH2     LP1B           -8.1810000000       -4.4100000000        1.3430000000  MEOH2     29              0.0000000000
       320        30  MEOH2     C1              8.1110000000       -3.0590000000        6.2150000000  MEOH2     30              0.0000000000
       321        30  MEOH2     DC1             8.1110000000       -3.0590000000        6.2150000000  MEOH2     30              0.0000000000
       322        30  MEOH2     O1              8.4920000000       -3.9960000000        5.1720000000  MEOH2     30              0.0000000000
       323        30  MEOH2     DO1             8.4920000000       -3.9960000000        5.1720000000  MEOH2     30              0.0000000000
       324        30  MEOH2     HO1             8.9310000000       -3.5270000000        4.4330000000  MEOH2     30              0.0000000000
       325        30  MEOH2     HO2             8.9150000000       -4.7880000000        5.5600000000  MEOH2     30              0.0000000000
       326        30  MEOH2     H1A             7.4790000000       -3.5570000000        6.9940000000  MEOH2     30              0.0000000000
       327        30  MEOH2     H1B             7.4950000000       -2.2200000000        5.8000000000  MEOH2     30              0.0000000000
       328        30  MEOH2     H1C             8.9980000000       -2.6100000000        6.7300000000  MEOH2     30              0.0000000000
       329        30  MEOH2     LP1A            8.8130000000       -4.1220000000        5.2340000000  MEOH2     30              0.0000000000
       330        30  MEOH2     LP1B            8.2300000000       -4.0340000000        4.9430000000  MEOH2     30              0.0000000000
       331        31  MEOH2     C1              1.2240000000        6.6530000000        6.9980000000  MEOH2     31              0.0000000000
       332        31  MEOH2     DC1             1.2240000000        6.6530000000        6.9980000000  MEOH2     31              0.0000000000
       333        31  MEOH2     O1              1.5990000000        6.0060000000        8.2440000000  MEOH2     31              0.0000000000
       334        31  MEOH2     DO1             1.5990000000        6.0060000000        8.2440000000  MEOH2     31              0.0000000000
       335        31  MEOH2     HO1             0.9400000000        6.1950000000        8.9420000000  MEOH2     31              0.0000000000
       336        31  MEOH2     HO2             1.8780000000        5.0820000000        8.0800000000  MEOH2     31              0.0000000000
       337        31  MEOH2     H1A             2.0400000000        6.5690000000        6.2370000000  MEOH2     31              0.0000000000
       338        31  MEOH2     H1B             1.0460000000        7.7490000000        7.1490000000  MEOH2     31              0.0000000000
       339        31  MEOH2     H1C             0.2940000000        6.2140000000        6.5530000000  MEOH2     31              0.0000000000
       340        31  MEOH2     LP1A            1.4660000000        5.6820000000        8.2570000000  MEOH2     31              0.0000000000
       341        31  MEOH2     LP1B            1.8050000000        6.2180000000        8.4330000000  MEOH2     31              0.0000000000
       342        32  MEOH2     C1             -1.1010000000        3.8550000000        5.4790000000  MEOH2     32              0.0000000000
       343        32  MEOH2     DC1            -1.1010000000        3.8550000000        5.4790000000  MEOH2     32              0.0000000000
       344        32  MEOH2     O1             -2.0860000000        3.6520000000        4.4300000000  MEOH2     32              0.0000000000
       345        32  MEOH2     DO1            -2.0860000000        3.6520000000        4.4300000000  MEOH2     32              0.0000000000
       346        32  MEOH2     HO1            -2.9710000000        3.9460000000        4.7270000000  MEOH2     32              0.0000000000
       347        32  MEOH2     HO2            -1.7380000000        3.9610000000        3.5680000000  MEOH2     32              0.0000000000
       348        32  MEOH2     H1A            -0.1200000000        3.3880000000        5.2090000000  MEOH2     32              0.0000000000
       349        32  MEOH2     H1B            -1.4260000000        3.3730000000        6.4370000000  MEOH2     32              0.0000000000
       350        32  MEOH2     H1C            -0.9190000000        4.9400000000        5.6880000000  MEOH2     32              0.0000000000
       351        32  MEOH2     LP1A           -2.1020000000        3.9340000000        4.2230000000  MEOH2     32              0.0000000000
       352        32  MEOH2     LP1B           -2.2250000000        3.3310000000        4.4550000000  MEOH2     32              0.0000000000
       353        33  MEOH2     C1             -0.4180000000       -3.8270000000       -8.0380000000  MEOH2     33              0.0000000000
       354        33  MEOH2     DC1            -0.4180000000       -3.8270000000       -8.0380000000  MEOH2     33              0.0000000000
       355        33  MEOH2     O1              0.5210000000       -2.8080000000       -8.4750000000  MEOH2     33              0.0000000000
       356        33  MEOH2     DO1             0.5210000000       -2.8080000000       -8.4750000000  MEOH2     33              0.0000000000
       357        33  MEOH2     HO1             1.2710000000       -3.2150000000       -8.9550000000  MEOH2     33              0.0000000000
       358        33  MEOH2     HO2             0.0460000000       -2.0520000000       -8.8750000000  MEOH2     33              0.0000000000
       359        33  MEOH2     H1A            -1.1990000000       -3.3940000000       -7.3630000000  MEOH2     33              0.0000000000
       360        33  MEOH2     H1B             0.0990000000       -4.6270000000       -7.4480000000  MEOH2     33              0.0000000000
       361        33  MEOH2     H1C            -0.9420000000       -4.3200000000       -8.8970000000  MEOH2     33              0.0000000000
       362        33  MEOH2     LP1A            0.4310000000       -2.6890000000       -8.7920000000  MEOH2     33              0.0000000000
       363        33  MEOH2     LP1B            0.7610000000       -2.7500000000       -8.2260000000  MEOH2     33              0.0000000000
       364        34  MEOH2     C1              7.7320000000       -8.5040000000       -4.1340000000  MEOH2     34              0.0000000000
       365        34  MEOH2     DC1             7.7320000000       -8.5040000000       -4.1340000000  MEOH2     34              0.0000000000
       366        34  MEOH2     O1              7.6700000000       -7.0580000000       -4.0080000000  MEOH2     34              0.0000000000
       367        34  MEOH2     DO1             7.6700000000       -7.0580000000       -4.0080000000  MEOH2     34              0.0000000000
       368        34  MEOH2     HO1             7.0540000000       -6.8010000000       -3.2910000000  MEOH2     34              0.0000000000
       369        34  MEOH2     HO2             8.5690000000       -6.6720000000       -4.0330000000  MEOH2     34              0.0000000000
       370        34  MEOH2     H1A             8.3140000000       -8.8070000000       -5.0410000000  MEOH2     34              0.0000000000
       371        34  MEOH2     H1B             6.7090000000       -8.9440000000       -4.2550000000  MEOH2     34              0.0000000000
       372        34  MEOH2     H1C             8.2090000000       -8.9890000000       -3.2430000000  MEOH2     34              0.0000000000
       373        34  MEOH2     LP1A            7.9170000000       -6.9450000000       -3.7860000000  MEOH2     34              0.0000000000
       374        34  MEOH2     LP1B            7.4200000000       -6.9290000000       -4.2170000000  MEOH2     34              0.0000000000
       375        35  MEOH2     C1             -2.5350000000       -0.0020000000       -2.7730000000  MEOH2     35              0.0000000000
       376        35  MEOH2     DC1            -2.5350000000       -0.0020000000       -2.7730000000  MEOH2     35              0.0000000000
       377        35  MEOH2     O1             -2.5120000000        1.3940000000       -2.3690000000  MEOH2     35              0.0000000000
       378        35  MEOH2     DO1            -2.5120000000        1.3940000000       -2.3690000000  MEOH2     35              0.0000000000
       379        35  MEOH2     HO1            -1.6400000000        1.7940000000       -2.5650000000  MEOH2     35              0.0000000000
       380        35  MEOH2     HO2            -3.3290000000        1.8490000000       -2.6610000000  MEOH2     35              0.0000000000
       381        35  MEOH2     H1A            -3.4690000000       -0.5090000000       -2.4220000000  MEOH2     35              0.0000000000
       382        35  MEOH2     H1B            -1.6800000000       -0.5670000000       -2.3200000000  MEOH2     35              0.0000000000
       383        35  MEOH2     H1C            -2.4750000000       -0.1250000000       -3.8850000000  MEOH2     35              0.0000000000
       384        35  MEOH2     LP1A           -2.6230000000        1.5980000000       -2.6320000000  MEOH2     35              0.0000000000
       385        35  MEOH2     LP1B           -2.4080000000        1.4210000000       -2.0360000000  MEOH2     35              0.0000000000
       386        36  MEOH2     C1              0.4180000000       -8.1260000000        5.4120000000  MEOH2     36              0.0000000000
       387        36  MEOH2     DC1             0.4180000000       -8.1260000000        5.4120000000  MEOH2     36              0.0000000000
       388        36  MEOH2     O1              1.2530000000       -8.5390000000        4.2960000000  MEOH2     36              0.0000000000
       389        36  MEOH2     DO1             1.2530000000       -8.5390000000        4.2960000000  MEOH2     36              0.0000000000
       390        36  MEOH2     HO1             1.2850000000       -7.8380000000        3.6130000000  MEOH2     36              0.0000000000
       391        36  MEOH2     HO2             2.0870000000       -8.9360000000        4.6200000000  MEOH2     36              0.0000000000
       392        36  MEOH2     H1A             0.2530000000       -8.9710000000        6.1270000000  MEOH2     36              0.0000000000
       393        36  MEOH2     H1B            -0.5970000000       -7.8070000000        5.0610000000  MEOH2     36              0.0000000000
       394        36  MEOH2     H1C             0.8650000000       -7.2740000000        5.9850000000  MEOH2     36              0.0000000000
       395        36  MEOH2     LP1A            1.5860000000       -8.4470000000        4.3540000000  MEOH2     36              0.0000000000
       396        36  MEOH2     LP1B            1.0600000000       -8.7100000000        4.0580000000  MEOH2     36              0.0000000000
       397        37  MEOH2     C1             -7.2640000000       -4.9090000000        5.3880000000  MEOH2     37              0.0000000000
       398        37  MEOH2     DC1            -7.2640000000       -4.9090000000        5.3880000000  MEOH2     37              0.0000000000
       399        37  MEOH2     O1             -8.4850000000       -4.5390000000        4.6930000000  MEOH2     37              0.0000000000
       400        37  MEOH2     DO1            -8.4850000000       -4.5390000000        4.6930000000  MEOH2     37              0.0000000000
       401        37  MEOH2     HO1            -8.9870000000       -5.3380000000        4.4300000000  MEOH2     37              0.0000000000
       402        37  MEOH2     HO2            -8.9430000000       -3.8150000000        5.1670000000  MEOH2     37              0.0000000000
       403        37  MEOH2     H1A            -6.6110000000       -4.0170000000        5.5620000000  MEOH2     37              0.0000000000
       404        37  MEOH2     H1B            -6.6560000000       -5.6300000000        4.7820000000  MEOH2     37              0.0000000000
       405        37  MEOH2     H1C            -7.4660000000       -5.3850000000        6.3820000000  MEOH2     37              0.0000000000
       406        37  MEOH2     LP1A           -8.7470000000       -4.4960000000        4.9230000000  MEOH2     37              0.0000000000
       407        37  MEOH2     LP1B           -8.4240000000       -4.5100000000        4.3490000000  MEOH2     37              0.0000000000
       408        38  MEOH2     C1             -6.6360000000        8.0430000000        2.5500000000  MEOH2     38              0.0000000000
       409        38  MEOH2     DC1            -6.6360000000        8.0430000000        2.5500000000  MEOH2     38              0.0000000000
       410        38  MEOH2     O1             -6.9740000000        6.6620000000        2.8510000000  MEOH2     38              0.0000000000
       411        38  MEOH2     DO1            -6.9740000000        6.6620000000        2.8510000000  MEOH2     38              0.0000000000
       412        38  MEOH2     HO1            -6.2970000000        6.2620000000        3.4330000000  MEOH2     38              0.0000000000
       413        38  MEOH2     HO2            -7.9210000000        6.5840000000        3.0870000000  MEOH2     38              0.0000000000
       414        38  MEOH2     H1A            -7.3200000000        8.4660000000        1.7700000000  MEOH2     38              0.0000000000
       415        38  MEOH2     H1B            -5.5980000000        8.1250000000        2.1360000000  MEOH2     38              0.0000000000
       416        38  MEOH2     H1C            -6.6970000000        8.7030000000        3.4530000000  MEOH2     38              0.0000000000
       417        38  MEOH2     LP1A           -7.1760000000        6.6470000000        3.1370000000  MEOH2     38              0.0000000000
       418        38  MEOH2     LP1B           -6.8380000000        6.4490000000        2.6080000000  MEOH2     38              0.0000000000
       419        39  MEOH2     C1             -2.4410000000       -1.4430000000        7.4760000000  MEOH2     39              0.0000000000
       420        39  MEOH2     DC1            -2.4410000000       -1.4430000000        7.4760000000  MEOH2     39              0.0000000000
       421        39  MEOH2     O1             -3.4740000000       -2.2440000000        8.1100000000  MEOH2     39              0.0000000000
       422        39  MEOH2     DO1            -3.4740000000       -2.2440000000        8.1100000000  MEOH2     39              0.0000000000
       423        39  MEOH2     HO1            -3.2320000000       -3.1920000000        8.0940000000  MEOH2     39              0.0000000000
       424        39  MEOH2     HO2            -3.7600000000       -1.8330000000        8.9500000000  MEOH2     39              0.0000000000
       425        39  MEOH2     H1A            -2.7710000000       -0.3800000000        7.3540000000  MEOH2     39              0.0000000000
       426        39  MEOH2     H1B            -2.2110000000       -1.8200000000        6.4470000000  MEOH2     39              0.0000000000
       427        39  MEOH2     H1C            -1.4850000000       -1.4400000000        8.0610000000  MEOH2     39              0.0000000000
       428        39  MEOH2     LP1A           -3.4120000000       -2.2720000000        8.4540000000  MEOH2     39              0.0000000000
       429        39  MEOH2     LP1B           -3.7150000000       -2.3400000000        7.8730000000  MEOH2     39              0.0000000000
       430        40  MEOH2     C1             -0.4060000000       -6.2360000000        7.1420000000  MEOH2     40              0.0000000000
       431        40  MEOH2     DC1            -0.4060000000       -6.2360000000        7.1420000000  MEOH2     40              0.0000000000
       432        40  MEOH2     O1             -0.4030000000       -5.4520000000        5.9180000000  MEOH2     40              0.0000000000
       433        40  MEOH2     DO1            -0.4030000000       -5.4520000000        5.9180000000  MEOH2     40              0.0000000000
       434        40  MEOH2     HO1            -0.2170000000       -4.5110000000        6.1130000000  MEOH2     40              0.0000000000
       435        40  MEOH2     HO2             0.1060000000       -5.9110000000        5.2190000000  MEOH2     40              0.0000000000
       436        40  MEOH2     H1A            -0.7620000000       -7.2800000000        6.9530000000  MEOH2     40              0.0000000000
       437        40  MEOH2     H1B            -1.1050000000       -5.7980000000        7.9000000000  MEOH2     40              0.0000000000
       438        40  MEOH2     H1C             0.6100000000       -6.2990000000        7.6090000000  MEOH2     40              0.0000000000
       439        40  MEOH2     LP1A           -0.0820000000       -5.4490000000        5.7780000000  MEOH2     40              0.0000000000
       440        40  MEOH2     LP1B           -0.7260000000       -5.3360000000        5.8490000000  MEOH2     40              0.0000000000
       441        41  MEOH2     C1             -4.8570000000       -2.4360000000       -3.2340000000  MEOH2     41              0.0000000000
       442        41  MEOH2     DC1            -4.8570000000       -2.4360000000       -3.2340000000  MEOH2     41              0.0000000000
       443        41  MEOH2     O1             -5.5600000000       -1.3940000000       -2.5060000000  MEOH2     41              0.0000000000
       444        41  MEOH2     DO1            -5.5600000000       -1.3940000000       -2.5060000000  MEOH2     41              0.0000000000
       445        41  MEOH2     HO1            -5.4000000000       -1.4790000000       -1.5440000000  MEOH2     41              0.0000000000
       446        41  MEOH2     HO2            -5.4350000000       -0.5270000000       -2.9420000000  MEOH2     41              0.0000000000
       447        41  MEOH2     H1A            -5.1490000000       -2.4420000000       -4.3150000000  MEOH2     41              0.0000000000
       448        41  MEOH2     H1B            -5.1110000000       -3.4510000000       -2.8340000000  MEOH2     41              0.0000000000
       449        41  MEOH2     H1C            -3.7440000000       -2.3170000000       -3.1810000000  MEOH2     41              0.0000000000
       450        41  MEOH2     LP1A           -5.3580000000       -1.1090000000       -2.4780000000  MEOH2     41              0.0000000000
       451        41  MEOH2     LP1B           -5.8830000000       -1.5020000000       -2.4240000000  MEOH2     41              0.0000000000
       452        42  MEOH2     C1              8.4470000000       -0.0790000000       -5.1460000000  MEOH2     42              0.0000000000
       453        42  MEOH2     DC1             8.4470000000       -0.0790000000       -5.1460000000  MEOH2     42              0.0000000000
       454        42  MEOH2     O1              8.5820000000       -1.5220000000       -5.2510000000  MEOH2     42              0.0000000000
       455        42  MEOH2     DO1             8.5820000000       -1.5220000000       -5.2510000000  MEOH2     42              0.0000000000
       456        42  MEOH2     HO1             8.2130000000       -1.9600000000       -4.4570000000  MEOH2     42              0.0000000000
       457        42  MEOH2     HO2             8.3120000000       -1.8280000000       -6.1410000000  MEOH2     42              0.0000000000
       458        42  MEOH2     H1A             8.9950000000        0.4400000000       -5.9740000000  MEOH2     42              0.0000000000
       459        42  MEOH2     H1B             8.8900000000        0.3000000000       -4.1900000000  MEOH2     42              0.0000000000
       460        42  MEOH2     H1C             7.3770000000        0.2530000000       -5.1830000000  MEOH2     42              0.0000000000
       461        42  MEOH2     LP1A            8.3010000000       -1.6580000000       -5.4120000000  MEOH2     42              0.0000000000
       462        42  MEOH2     LP1B            8.8900000000       -1.6240000000       -5.1190000000  MEOH2     42              0.0000000000
       463        43  MEOH2     C1              4.3310000000        1.7040000000       -8.1950000000  MEOH2     43              0.0000000000
       464        43  MEOH2     DC1             4.3310000000        1.7040000000       -8.1950000000  MEOH2     43              0.0000000000
       465        43  MEOH2     O1              3.7450000000        3.0290000000       -8.0850000000  MEOH2     43              0.0000000000
       466        43  MEOH2     DO1             3.7450000000        3.0290000000       -8.0850000000  MEOH2     43              0.0000000000
       467        43  MEOH2     HO1             3.8700000000        3.5300000000       -8.9170000000  MEOH2     43              0.0000000000
       468        43  MEOH2     HO2             2.8550000000        2.9780000000       -7.6810000000  MEOH2     43              0.0000000000
       469        43  MEOH2     H1A             4.3270000000        1.1770000000       -7.2070000000  MEOH2     43              0.0000000000
       470        43  MEOH2     H1B             5.4020000000        1.7610000000       -8.5170000000  MEOH2     43              0.0000000000
       471        43  MEOH2     H1C             3.7870000000        1.0570000000       -8.9310000000  MEOH2     43              0.0000000000
       472        43  MEOH2     LP1A            3.4080000000        3.0210000000       -8.1840000000  MEOH2     43              0.0000000000
       473        43  MEOH2     LP1B            3.9800000000        3.2550000000       -7.9580000000  MEOH2     43              0.0000000000
       474        44  MEOH2     C1             -3.6990000000        0.1930000000       -0.2230000000  MEOH2     44              0.0000000000
       475        44  MEOH2     DC1            -3.6990000000        0.1930000000       -0.2230000000  MEOH2     44              0.0000000000
       476        44  MEOH2     O1             -3.4030000000        0.9520000000        0.9800000000  MEOH2     44              0.0000000000
       477        44  MEOH2     DO1            -3.4030000000        0.9520000000        0.9800000000  MEOH2     44              0.0000000000
       478        44  MEOH2     HO1            -2.6150000000        1.5170000000        0.8450000000  MEOH2     44              0.0000000000
       479        44  MEOH2     HO2            -4.2210000000        1.3430000000        1.3490000000  MEOH2     44              0.0000000000
       480        44  MEOH2     H1A            -4.5020000000       -0.5640000000       -0.0370000000  MEOH2     44              0.0000000000
       481        44  MEOH2     H1B            -2.8010000000       -0.3800000000       -0.5710000000  MEOH2     44              0.0000000000
       482        44  MEOH2     H1C            -4.0350000000        0.8480000000       -1.0680000000  MEOH2     44              0.0000000000
       483        44  MEOH2     LP1A           -3.5770000000        1.2560000000        0.9770000000  MEOH2     44              0.0000000000
       484        44  MEOH2     LP1B           -3.1890000000        0.7680000000        1.1890000000  MEOH2     44              0.0000000000
       485        45  MEOH2     C1              8.0910000000        4.7530000000       -7.8370000000  MEOH2     45              0.0000000000
       486        45  MEOH2     DC1             8.0910000000        4.7530000000       -7.8370000000  MEOH2     45              0.0000000000
       487        45  MEOH2     O1              8.4340000000        3.3660000000       -8.1030000000  MEOH2     45              0.0000000000
       488        45  MEOH2     DO1             8.4340000000        3.3660000000       -8.1030000000  MEOH2     45              0.0000000000
       489        45  MEOH2     HO1             8.9700000000        3.2950000000       -8.9200000000  MEOH2     45              0.0000000000
       490        45  MEOH2     HO2             8.7410000000        2.9250000000       -7.2850000000  MEOH2     45              0.0000000000
       491        45  MEOH2     H1A             7.3580000000        4.8330000000       -6.9940000000  MEOH2     45              0.0000000000
       492        45  MEOH2     H1B             7.6000000000        5.2250000000       -8.7260000000  MEOH2     45              0.0000000000
       493        45  MEOH2     H1C             8.9870000000        5.3700000000       -7.5720000000  MEOH2     45              0.0000000000
       494        45  MEOH2     LP1A            8.7350000000        3.2830000000       -7.9430000000  MEOH2     45              0.0000000000
       495        45  MEOH2     LP1B            8.1850000000        3.2150000000       -8.2980000000  MEOH2     45              0.0000000000
       496        46  MEOH2     C1              8.3510000000        8.3870000000       -8.1090000000  MEOH2     46              0.0000000000
       497        46  MEOH2     DC1             8.3510000000        8.3870000000       -8.1090000000  MEOH2     46              0.0000000000
       498        46  MEOH2     O1              8.1170000000        6.9610000000       -8.2640000000  MEOH2     46              0.0000000000
       499        46  MEOH2     DO1             8.1170000000        6.9610000000       -8.2640000000  MEOH2     46              0.0000000000
       500        46  MEOH2     HO1             7.4640000000        6.7950000000       -8.9740000000  MEOH2     46              0.0000000000
       501        46  MEOH2     HO2             8.9650000000        6.4720000000       -8.2630000000  MEOH2     46              0.0000000000
       502        46  MEOH2     H1A             8.9790000000        8.5980000000       -7.2060000000  MEOH2     46              0.0000000000
       503        46  MEOH2     H1B             7.3890000000        8.9410000000       -7.9590000000  MEOH2     46              0.0000000000
       504        46  MEOH2     H1C             8.8680000000        8.8330000000       -8.9970000000  MEOH2     46              0.0000000000
       505        46  MEOH2     LP1A            8.3450000000        6.8250000000       -8.4920000000  MEOH2     46              0.0000000000
       506        46  MEOH2     LP1B            7.8570000000        6.8580000000       -8.0520000000  MEOH2     46              0.0000000000
       507        47  MEOH2     C1              0.0560000000       -1.1340000000       -4.3280000000  MEOH2     47              0.0000000000
       508        47  MEOH2     DC1             0.0560000000       -1.1340000000       -4.3280000000  MEOH2     47              0.0000000000
       509        47  MEOH2     O1              0.1720000000        0.3090000000       -4.2000000000  MEOH2     47              0.0000000000
       510        47  MEOH2     DO1             0.1720000000        0.3090000000       -4.2000000000  MEOH2     47              0.0000000000
       511        47  MEOH2     HO1             0.6350000000        0.6870000000       -4.9760000000  MEOH2     47              0.0000000000
       512        47  MEOH2     HO2            -0.6780000000        0.6970000000       -3.9090000000  MEOH2     47              0.0000000000
       513        47  MEOH2     H1A            -0.3360000000       -1.5930000000       -3.3850000000  MEOH2     47              0.0000000000
       514        47  MEOH2     H1B             1.0550000000       -1.6050000000       -4.5160000000  MEOH2     47              0.0000000000
       515        47  MEOH2     H1C            -0.6260000000       -1.4340000000       -5.1650000000  MEOH2     47              0.0000000000
       516        47  MEOH2     LP1A           -0.1090000000        0.4660000000       -4.3380000000  MEOH2     47              0.0000000000
       517        47  MEOH2     LP1B            0.4680000000        0.3920000000       -4.0310000000  MEOH2     47              0.0000000000
       518        48  MEOH2     C1             -8.0900000000        8.5040000000        8.4660000000  MEOH2     48              0.0000000000
       519        48  MEOH2     DC1            -8.0900000000        8.5040000000        8.4660000000  MEOH2     48              0.0000000000
       520        48  MEOH2     O1             -8.0770000000        7.0610000000        8.6360000000  MEOH2     48              0.0000000000
       521        48  MEOH2     DO1            -8.0770000000        7.0610000000        8.6360000000  MEOH2     48              0.0000000000
       522        48  MEOH2     HO1            -8.9130000000        6.6690000000        8.3110000000  MEOH2     48              0.0000000000
       523        48  MEOH2     HO2            -7.2210000000        6.6880000000        8.3400000000  MEOH2     48              0.0000000000
       524        48  MEOH2     H1A            -7.2080000000        8.9780000000        8.9670000000  MEOH2     48              0.0000000000
       525        48  MEOH2     H1B            -9.0000000000        8.9580000000        8.9350000000  MEOH2     48              0.0000000000
       526        48  MEOH2     H1C            -8.0750000000        8.8060000000        7.3870000000  MEOH2     48              0.0000000000
       527        48  MEOH2     LP1A           -7.9380000000        6.9070000000        8.3530000000  MEOH2     48              0.0000000000
       528        48  MEOH2     LP1B           -8.2030000000        6.9750000000        8.9510000000  MEOH2     48              0.0000000000
       529        49  MEOH2     C1             -3.8150000000       -0.1560000000        3.5740000000  MEOH2     49              0.0000000000
       530        49  MEOH2     DC1            -3.8150000000       -0.1560000000        3.5740000000  MEOH2     49              0.0000000000
       531        49  MEOH2     O1             -3.0120000000        1.0560000000        3.5720000000  MEOH2     49              0.0000000000
       532        49  MEOH2     DO1            -3.0120000000        1.0560000000        3.5720000000  MEOH2     49              0.0000000000
       533        49  MEOH2     HO1            -2.2080000000        0.9330000000        3.0280000000  MEOH2     49              0.0000000000
       534        49  MEOH2     HO2            -3.5780000000        1.8420000000        3.4290000000  MEOH2     49              0.0000000000
       535        49  MEOH2     H1A            -4.6580000000       -0.0810000000        4.3080000000  MEOH2     49              0.0000000000
       536        49  MEOH2     H1B            -3.2070000000       -1.0440000000        3.8830000000  MEOH2     49              0.0000000000
       537        49  MEOH2     H1C            -4.2560000000       -0.3770000000        2.5680000000  MEOH2     49              0.0000000000
       538        49  MEOH2     LP1A           -3.1120000000        1.2660000000        3.3110000000  MEOH2     49              0.0000000000
       539        49  MEOH2     LP1B           -2.7870000000        1.0510000000        3.8400000000  MEOH2     49              0.0000000000
       540        50  MEOH2     C1             -7.7790000000       -1.8920000000        7.5000000000  MEOH2     50              0.0000000000
       541        50  MEOH2     DC1            -7.7790000000       -1.8920000000        7.5000000000  MEOH2     50              0.0000000000
       542        50  MEOH2     O1             -8.5150000000       -1.7350000000        8.7440000000  MEOH2     50              0.0000000000
       543        50  MEOH2     DO1            -8.5150000000       -1.7350000000        8.7440000000  MEOH2     50              0.0000000000
       544        50  MEOH2     HO1            -8.9940000000       -0.8810000000        8.7540000000  MEOH2     50              0.0000000000
       545        50  MEOH2     HO2            -8.9930000000       -2.5600000000        8.9660000000  MEOH2     50              0.0000000000
       546        50  MEOH2     H1A            -7.1110000000       -2.7900000000        7.5360000000  MEOH2     50              0.0000000000
       547        50  MEOH2     H1B            -7.1120000000       -1.0120000000        7.3110000000  MEOH2     50              0.0000000000
       548        50  MEOH2     H1C            -8.4560000000       -2.0040000000        6.6150000000  MEOH2     50              0.0000000000
       549        50  MEOH2     LP1A           -8.8360000000       -1.8730000000        8.7120000000  MEOH2     50              0.0000000000
       550        50  MEOH2     LP1B           -8.3120000000       -1.5820000000        8.9850000000  MEOH2     50              0.0000000000
       551        51  MEOH2     C1             -8.3260000000        6.8940000000        6.4610000000  MEOH2     51              0.0000000000
       552        51  MEOH2     DC1            -8.3260000000        6.8940000000        6.4610000000  MEOH2     51              0.0000000000
       553        51  MEOH2     O1             -8.5460000000        6.7900000000        5.0280000000  MEOH2     51              0.0000000000
       554        51  MEOH2     DO1            -8.5460000000        6.7900000000        5.0280000000  MEOH2     51              0.0000000000
       555        51  MEOH2     HO1            -8.2030000000        7.5840000000        4.5690000000  MEOH2     51              0.0000000000
       556        51  MEOH2     HO2            -8.2960000000        5.9000000000        4.7070000000  MEOH2     51              0.0000000000
       557        51  MEOH2     H1A            -8.8430000000        6.0680000000        7.0110000000  MEOH2     51              0.0000000000
       558        51  MEOH2     H1B            -8.7440000000        7.8510000000        6.8660000000  MEOH2     51              0.0000000000
       559        51  MEOH2     H1C            -7.2380000000        6.8560000000        6.7280000000  MEOH2     51              0.0000000000
       560        51  MEOH2     LP1A           -8.2750000000        6.6290000000        4.8760000000  MEOH2     51              0.0000000000
       561        51  MEOH2     LP1B           -8.8590000000        6.9230000000        4.9450000000  MEOH2     51              0.0000000000
       562        52  MEOH2     C1              2.0490000000        4.6720000000        5.1010000000  MEOH2     52              0.0000000000
       563        52  MEOH2     DC1             2.0490000000        4.6720000000        5.1010000000  MEOH2     52              0.0000000000
       564        52  MEOH2     O1              3.1060000000        5.2220000000        4.2690000000  MEOH2     52              0.0000000000
       565        52  MEOH2     DO1             3.1060000000        5.2220000000        4.2690000000  MEOH2     52              0.0000000000
       566        52  MEOH2     HO1             2.8760000000        5.1360000000        3.3210000000  MEOH2     52              0.0000000000
       567        52  MEOH2     HO2             3.4030000000        6.0860000000        4.6180000000  MEOH2     52              0.0000000000
       568        52  MEOH2     H1A             2.3630000000        4.6270000000        6.1760000000  MEOH2     52              0.0000000000
       569        52  MEOH2     H1B             1.8040000000        3.6210000000        4.8020000000  MEOH2     52              0.0000000000
       570        52  MEOH2     H1C             1.1060000000        5.2730000000        5.0440000000  MEOH2     52              0.0000000000
       571        52  MEOH2     LP1A            3.0510000000        5.5630000000        4.2140000000  MEOH2     52              0.0000000000
       572        52  MEOH2     LP1B            3.3420000000        4.9740000000        4.1950000000  MEOH2     52              0.0000000000
       573        53  MEOH2     C1             -6.9990000000        4.8820000000       -3.2130000000  MEOH2     53              0.0000000000
       574        53  MEOH2     DC1            -6.9990000000        4.8820000000       -3.2130000000  MEOH2     53              0.0000000000
       575        53  MEOH2     O1             -8.3880000000        4.4740000000       -3.0910000000  MEOH2     53              0.0000000000
       576        53  MEOH2     DO1            -8.3880000000        4.4740000000       -3.0910000000  MEOH2     53              0.0000000000
       577        53  MEOH2     HO1            -8.5230000000        3.9550000000       -2.2720000000  MEOH2     53              0.0000000000
       578        53  MEOH2     HO2            -8.9850000000        5.2230000000       -3.2930000000  MEOH2     53              0.0000000000
       579        53  MEOH2     H1A            -6.7990000000        5.3460000000       -4.2120000000  MEOH2     53              0.0000000000
       580        53  MEOH2     H1B            -6.3100000000        4.0030000000       -3.1310000000  MEOH2     53              0.0000000000
       581        53  MEOH2     H1C            -6.7020000000        5.6230000000       -2.4260000000  MEOH2     53              0.0000000000
       582        53  MEOH2     LP1A           -8.5720000000        4.7200000000       -2.9220000000  MEOH2     53              0.0000000000
       583        53  MEOH2     LP1B           -8.4370000000        4.1650000000       -3.2500000000  MEOH2     53              0.0000000000
       584        54  MEOH2     C1             -3.4460000000       -5.7170000000       -0.8250000000  MEOH2     54              0.0000000000
       585        54  MEOH2     DC1            -3.4460000000       -5.7170000000       -0.8250000000  MEOH2     54              0.0000000000
       586        54  MEOH2     O1             -3.9350000000       -7.0120000000       -0.3800000000  MEOH2     54              0.0000000000
       587        54  MEOH2     DO1            -3.9350000000       -7.0120000000       -0.3800000000  MEOH2     54              0.0000000000
       588        54  MEOH2     HO1            -3.9580000000       -7.0520000000        0.5980000000  MEOH2     54              0.0000000000
       589        54  MEOH2     HO2            -4.7250000000       -7.2750000000       -0.8940000000  MEOH2     54              0.0000000000
       590        54  MEOH2     H1A            -3.2740000000       -5.7090000000       -1.9320000000  MEOH2     54              0.0000000000
       591        54  MEOH2     H1B            -2.4610000000       -5.4720000000       -0.3520000000  MEOH2     54              0.0000000000
       592        54  MEOH2     H1C            -4.1580000000       -4.8870000000       -0.5830000000  MEOH2     54              0.0000000000
       593        54  MEOH2     LP1A           -4.2840000000       -7.0060000000       -0.3520000000  MEOH2     54              0.0000000000
       594        54  MEOH2     LP1B           -3.6680000000       -7.2360000000       -0.3460000000  MEOH2     54              0.0000000000
       595        55  MEOH2     C1             -1.9430000000       -7.1210000000       -3.5600000000  MEOH2     55              0.0000000000
       596        55  MEOH2     DC1            -1.9430000000       -7.1210000000       -3.5600000000  MEOH2     55              0.0000000000
       597        55  MEOH2     O1             -2.5210000000       -7.8100000000       -2.4190000000  MEOH2     55              0.0000000000
       598        55  MEOH2     DO1            -2.5210000000       -7.8100000000       -2.4190000000  MEOH2     55              0.0000000000
       599        55  MEOH2     HO1            -3.4950000000       -7.7120000000       -2.4160000000  MEOH2     55              0.0000000000
       600        55  MEOH2     HO2            -2.1250000000       -8.6990000000       -2.3190000000  MEOH2     55              0.0000000000
       601        55  MEOH2     H1A            -0.8250000000       -7.0980000000       -3.4950000000  MEOH2     55              0.0000000000
       602        55  MEOH2     H1B            -2.2770000000       -6.0520000000       -3.5990000000  MEOH2     55              0.0000000000
       603        55  MEOH2     H1C            -2.2200000000       -7.6010000000       -4.5340000000  MEOH2     55              0.0000000000
       604        55  MEOH2     LP1A           -2.5920000000       -8.1430000000       -2.5020000000  MEOH2     55              0.0000000000
       605        55  MEOH2     LP1B           -2.5360000000       -7.5950000000       -2.1430000000  MEOH2     55              0.0000000000
       606        56  MEOH2     C1              8.3190000000        3.3480000000        8.1060000000  MEOH2     56              0.0000000000
       607        56  MEOH2     DC1             8.3190000000        3.3480000000        8.1060000000  MEOH2     56              0.0000000000
       608        56  MEOH2     O1              6.9910000000        3.7890000000        8.4970000000  MEOH2     56              0.0000000000
       609        56  MEOH2     DO1             6.9910000000        3.7890000000        8.4970000000  MEOH2     56              0.0000000000
       610        56  MEOH2     HO1             6.4910000000        3.0530000000        8.9060000000  MEOH2     56              0.0000000000
       611        56  MEOH2     HO2             7.0370000000        4.6540000000        8.9530000000  MEOH2     56              0.0000000000
       612        56  MEOH2     H1A             8.8460000000        4.1330000000        7.5060000000  MEOH2     56              0.0000000000
       613        56  MEOH2     H1B             8.2680000000        2.4370000000        7.4560000000  MEOH2     56              0.0000000000
       614        56  MEOH2     H1C             8.9640000000        3.1020000000        8.9890000000  MEOH2     56              0.0000000000
       615        56  MEOH2     LP1A            6.9970000000        3.9170000000        8.8230000000  MEOH2     56              0.0000000000
       616        56  MEOH2     LP1B            6.7660000000        3.7450000000        8.2320000000  MEOH2     56              0.0000000000
       617        57  MEOH2     C1             -0.3170000000        4.5440000000       -0.8230000000  MEOH2     57              0.0000000000
       618        57  MEOH2     DC1            -0.3170000000        4.5440000000       -0.8230000000  MEOH2     57              0.0000000000
       619        57  MEOH2     O1             -0.8720000000        3.2840000000       -1.2880000000  MEOH2     57              0.0000000000
       620        57  MEOH2     DO1            -0.8720000000        3.2840000000       -1.2880000000  MEOH2     57              0.0000000000
       621        57  MEOH2     HO1            -0.4390000000        2.5300000000       -0.8380000000  MEOH2     57              0.0000000000
       622        57  MEOH2     HO2            -1.8490000000        3.3310000000       -1.3200000000  MEOH2     57              0.0000000000
       623        57  MEOH2     H1A            -0.6960000000        5.4030000000       -1.4330000000  MEOH2     57              0.0000000000
       624        57  MEOH2     H1B             0.7990000000        4.5550000000       -0.9220000000  MEOH2     57              0.0000000000
       625        57  MEOH2     H1C            -0.5670000000        4.7490000000        0.2500000000  MEOH2     57              0.0000000000
       626        57  MEOH2     LP1A           -1.1490000000        3.1940000000       -1.0920000000  MEOH2     57              0.0000000000
       627        57  MEOH2     LP1B           -0.6950000000        3.1700000000       -1.5680000000  MEOH2     57              0.0000000000
       628        58  MEOH2     C1              6.2120000000        0.4510000000        0.6350000000  MEOH2     58              0.0000000000
       629        58  MEOH2     DC1             6.2120000000        0.4510000000        0.6350000000  MEOH2     58              0.0000000000
       630        58  MEOH2     O1              7.4220000000        1.1730000000        0.9910000000  MEOH2     58              0.0000000000
       631        58  MEOH2     DO1             7.4220000000        1.1730000000        0.9910000000  MEOH2     58              0.0000000000
       632        58  MEOH2     HO1             7.4230000000        1.3930000000        1.9450000000  MEOH2     58              0.0000000000
       633        58  MEOH2     HO2             8.2060000000        0.7440000000        0.5940000000  MEOH2     58              0.0000000000
       634        58  MEOH2     H1A             6.1280000000        0.3250000000       -0.4740000000  MEOH2     58              0.0000000000
       635        58  MEOH2     H1B             5.2970000000        1.0110000000        0.9580000000  MEOH2     58              0.0000000000
       636        58  MEOH2     H1C             6.1700000000       -0.5670000000        1.1000000000  MEOH2     58              0.0000000000
       637        58  MEOH2     LP1A            7.6750000000        0.9480000000        1.0810000000  MEOH2     58              0.0000000000
       638        58  MEOH2     LP1B            7.3730000000        1.5170000000        0.9500000000  MEOH2     58              0.0000000000
       639        59  MEOH2     C1              1.2470000000        7.9060000000        7.3410000000  MEOH2     59              0.0000000000
       640        59  MEOH2     DC1             1.2470000000        7.9060000000        7.3410000000  MEOH2     59              0.0000000000
       641        59  MEOH2     O1              2.1670000000        8.3440000000        8.3770000000  MEOH2     59              0.0000000000
       642        59  MEOH2     DO1             2.1670000000        8.3440000000        8.3770000000  MEOH2     59              0.0000000000
       643        59  MEOH2     HO1             3.0400000000        8.5620000000        7.9910000000  MEOH2     59              0.0000000000
       644        59  MEOH2     HO2             1.7310000000        8.9820000000        8.9770000000  MEOH2     59              0.0000000000
       645        59  MEOH2     H1A             0.2970000000        7.5130000000        7.7850000000  MEOH2     59              0.0000000000
       646        59  MEOH2     H1B             1.6840000000        7.0680000000        6.7400000000  MEOH2     59              0.0000000000
       647        59  MEOH2     H1C             0.9790000000        8.7310000000        6.6330000000  MEOH2     59              0.0000000000
       648        59  MEOH2     LP1A            2.1420000000        8.6900000000        8.4230000000  MEOH2     59              0.0000000000
       649        59  MEOH2     LP1B            2.3370000000        8.0680000000        8.5110000000  MEOH2     59              0.0000000000
       650        60  MEOH2     C1             -8.1080000000       -8.2480000000        2.8370000000  MEOH2     60              0.0000000000
       651        60  MEOH2     DC1            -8.1080000000       -8.2480000000        2.8370000000  MEOH2     60              0.0000000000
       652        60  MEOH2     O1             -8.4730000000       -6.8480000000        2.6950000000  MEOH2     60              0.0000000000
       653        60  MEOH2     DO1            -8.4730000000       -6.8480000000        2.6950000000  MEOH2     60              0.0000000000
       654        60  MEOH2     HO1            -8.3540000000       -6.3750000000        3.5440000000  MEOH2     60              0.0000000000
       655        60  MEOH2     HO2            -8.0890000000       -6.4750000000        1.8760000000  MEOH2     60              0.0000000000
       656        60  MEOH2     H1A            -8.3790000000       -8.8310000000        1.9200000000  MEOH2     60              0.0000000000
       657        60  MEOH2     H1B            -8.6600000000       -8.7250000000        3.6870000000  MEOH2     60              0.0000000000
       658        60  MEOH2     H1C            -7.0120000000       -8.3860000000        3.0200000000  MEOH2     60              0.0000000000
       659        60  MEOH2     LP1A           -8.1940000000       -6.6610000000        2.5940000000  MEOH2     60              0.0000000000
       660        60  MEOH2     LP1B           -8.8140000000       -6.8050000000        2.7620000000  MEOH2     60              0.0000000000
       661        61  MEOH2     C1              4.3480000000       -7.1590000000       -0.2520000000  MEOH2     61              0.0000000000
       662        61  MEOH2     DC1             4.3480000000       -7.1590000000       -0.2520000000  MEOH2     61              0.0000000000
       663        61  MEOH2     O1              5.5800000000       -7.4940000000        0.4440000000  MEOH2     61              0.0000000000
       664        61  MEOH2     DO1             5.5800000000       -7.4940000000        0.4440000000  MEOH2     61              0.0000000000
       665        61  MEOH2     HO1             6.0880000000       -6.6840000000        0.6510000000  MEOH2     61              0.0000000000
       666        61  MEOH2     HO2             5.4070000000       -8.1500000000        1.1490000000  MEOH2     61              0.0000000000
       667        61  MEOH2     H1A             3.8310000000       -8.0800000000       -0.6250000000  MEOH2     61              0.0000000000
       668        61  MEOH2     H1B             4.5520000000       -6.5260000000       -1.1530000000  MEOH2     61              0.0000000000
       669        61  MEOH2     H1C             3.6280000000       -6.6020000000        0.4010000000  MEOH2     61              0.0000000000
       670        61  MEOH2     LP1A            5.5240000000       -7.5030000000        0.7900000000  MEOH2     61              0.0000000000
       671        61  MEOH2     LP1B            5.8370000000       -7.5510000000        0.2130000000  MEOH2     61              0.0000000000
       672        62  MEOH2     C1              5.2010000000        8.0540000000       -8.2370000000  MEOH2     62              0.0000000000
       673        62  MEOH2     DC1             5.2010000000        8.0540000000       -8.2370000000  MEOH2     62              0.0000000000
       674        62  MEOH2     O1              3.7600000000        7.9380000000       -8.0830000000  MEOH2     62              0.0000000000
       675        62  MEOH2     DO1             3.7600000000        7.9380000000       -8.0830000000  MEOH2     62              0.0000000000
       676        62  MEOH2     HO1             3.3150000000        8.0140000000       -8.9510000000  MEOH2     62              0.0000000000
       677        62  MEOH2     HO2             3.5380000000        7.1920000000       -7.4890000000  MEOH2     62              0.0000000000
       678        62  MEOH2     H1A             5.7100000000        8.1180000000       -7.2420000000  MEOH2     62              0.0000000000
       679        62  MEOH2     H1B             5.4740000000        8.9880000000       -8.7910000000  MEOH2     62              0.0000000000
       680        62  MEOH2     H1C             5.6410000000        7.1860000000       -8.7920000000  MEOH2     62              0.0000000000
       681        62  MEOH2     LP1A            3.6630000000        7.6020000000       -8.1040000000  MEOH2     62              0.0000000000
       682        62  MEOH2     LP1B            3.6200000000        8.2540000000       -8.0250000000  MEOH2     62              0.0000000000
       683        63  MEOH2     C1              3.8330000000        8.3840000000        4.7660000000  MEOH2     63              0.0000000000
       684        63  MEOH2     DC1             3.8330000000        8.3840000000        4.7660000000  MEOH2     63              0.0000000000
       685        63  MEOH2     O1              5.2620000000        8.6470000000        4.7320000000  MEOH2     63              0.0000000000
       686        63  MEOH2     DO1             5.2620000000        8.6470000000        4.7320000000  MEOH2     63              0.0000000000
       687        63  MEOH2     HO1             5.6760000000        8.4030000000        5.5850000000  MEOH2     63              0.0000000000
       688        63  MEOH2     HO2             5.6510000000        8.3220000000        3.8950000000  MEOH2     63              0.0000000000
       689        63  MEOH2     H1A             3.3250000000        8.7950000000        3.8560000000  MEOH2     63              0.0000000000
       690        63  MEOH2     H1B             3.3510000000        8.8800000000        5.6460000000  MEOH2     63              0.0000000000
       691        63  MEOH2     H1C             3.6020000000        7.2890000000        4.8220000000  MEOH2     63              0.0000000000
       692        63  MEOH2     LP1A            5.4330000000        8.3670000000        4.6110000000  MEOH2     63              0.0000000000
       693        63  MEOH2     LP1B            5.3260000000        8.9750000000        4.8380000000  MEOH2     63              0.0000000000
       694        64  MEOH2     C1              3.4620000000       -0.6860000000        8.4460000000  MEOH2     64              0.0000000000
       695        64  MEOH2     DC1             3.4620000000       -0.6860000000        8.4460000000  MEOH2     64              0.0000000000
       696        64  MEOH2     O1              3.5690000000       -0.8840000000        7.0100000000  MEOH2     64              0.0000000000
       697        64  MEOH2     DO1             3.5690000000       -0.8840000000        7.0100000000  MEOH2     64              0.0000000000
       698        64  MEOH2     HO1             2.7040000000       -1.1470000000        6.6340000000  MEOH2     64              0.0000000000
       699        64  MEOH2     HO2             4.0730000000       -0.1520000000        6.6000000000  MEOH2     64              0.0000000000
       700        64  MEOH2     H1A             4.4690000000       -0.5310000000        8.9100000000  MEOH2     64              0.0000000000
       701        64  MEOH2     H1B             3.0190000000       -1.5850000000        8.9470000000  MEOH2     64              0.0000000000
       702        64  MEOH2     H1C             2.8250000000        0.1990000000        8.7080000000  MEOH2     64              0.0000000000
       703        64  MEOH2     LP1A            3.5090000000       -0.5830000000        6.8420000000  MEOH2     64              0.0000000000
       704        64  MEOH2     LP1B            3.6580000000       -1.2160000000        6.9410000000  MEOH2     64              0.0000000000
       705        65  MEOH2     C1              2.1440000000       -5.2300000000        3.4970000000  MEOH2     65              0.0000000000
       706        65  MEOH2     DC1             2.1440000000       -5.2300000000        3.4970000000  MEOH2     65              0.0000000000
       707        65  MEOH2     O1              3.0380000000       -4.1070000000        3.7280000000  MEOH2     65              0.0000000000
       708        65  MEOH2     DO1             3.0380000000       -4.1070000000        3.7280000000  MEOH2     65              0.0000000000
       709        65  MEOH2     HO1             2.9600000000       -3.7900000000        4.6510000000  MEOH2     65              0.0000000000
       710        65  MEOH2     HO2             3.9230000000       -4.2900000000        3.3530000000  MEOH2     65              0.0000000000
       711        65  MEOH2     H1A             2.1130000000       -5.5050000000        2.4120000000  MEOH2     65              0.0000000000
       712        65  MEOH2     H1B             1.0920000000       -4.9760000000        3.7870000000  MEOH2     65              0.0000000000
       713        65  MEOH2     H1C             2.4470000000       -6.1410000000        4.0730000000  MEOH2     65              0.0000000000
       714        65  MEOH2     LP1A            3.3520000000       -4.2220000000        3.8330000000  MEOH2     65              0.0000000000
       715        65  MEOH2     LP1B            2.8760000000       -3.8060000000        3.6500000000  MEOH2     65              0.0000000000
       716        66  MEOH2     C1             -8.1110000000       -8.2980000000       -0.1870000000  MEOH2     66              0.0000000000
       717        66  MEOH2     DC1            -8.1110000000       -8.2980000000       -0.1870000000  MEOH2     66              0.0000000000
       718        66  MEOH2     O1             -8.4940000000       -6.9390000000       -0.5320000000  MEOH2     66              0.0000000000
       719        66  MEOH2     DO1            -8.4940000000       -6.9390000000       -0.5320000000  MEOH2     66              0.0000000000
       720        66  MEOH2     HO1            -8.9980000000       -6.9270000000       -1.3710000000  MEOH2     66              0.0000000000
       721        66  MEOH2     HO2            -8.8490000000       -6.4730000000        0.2520000000  MEOH2     66              0.0000000000
       722        66  MEOH2     H1A            -7.4100000000       -8.3110000000        0.6860000000  MEOH2     66              0.0000000000
       723        66  MEOH2     H1B            -7.5680000000       -8.7930000000       -1.0330000000  MEOH2     66              0.0000000000
       724        66  MEOH2     H1C            -8.9940000000       -8.9370000000        0.0730000000  MEOH2     66              0.0000000000
       725        66  MEOH2     LP1A           -8.8030000000       -6.8610000000       -0.3880000000  MEOH2     66              0.0000000000
       726        66  MEOH2     LP1B           -8.2430000000       -6.7880000000       -0.7240000000  MEOH2     66              0.0000000000
       727        67  MEOH2     C1             -2.1100000000       -5.3960000000       -6.5930000000  MEOH2     67              0.0000000000
       728        67  MEOH2     DC1            -2.1100000000       -5.3960000000       -6.5930000000  MEOH2     67              0.0000000000
       729        67  MEOH2     O1             -2.2340000000       -6.2610000000       -7.7530000000  MEOH2     67              0.0000000000
       730        67  MEOH2     DO1            -2.2340000000       -6.2610000000       -7.7530000000  MEOH2     67              0.0000000000
       731        67  MEOH2     HO1            -3.1020000000       -6.7140000000       -7.7530000000  MEOH2     67              0.0000000000
       732        67  MEOH2     HO2            -1.9320000000       -5.7980000000       -8.5610000000  MEOH2     67              0.0000000000
       733        67  MEOH2     H1A            -1.0710000000       -4.9880000000       -6.5020000000  MEOH2     67              0.0000000000
       734        67  MEOH2     H1B            -2.3110000000       -5.9590000000       -5.6450000000  MEOH2     67              0.0000000000
       735        67  MEOH2     H1C            -2.8160000000       -4.5270000000       -6.6310000000  MEOH2     67              0.0000000000
       736        67  MEOH2     LP1A           -2.3690000000       -6.0830000000       -8.0230000000  MEOH2     67              0.0000000000
       737        67  MEOH2     LP1B           -2.1100000000       -6.5800000000       -7.6800000000  MEOH2     67              0.0000000000
       738        68  MEOH2     C1             -2.9260000000       -8.2680000000        5.7130000000  MEOH2     68              0.0000000000
       739        68  MEOH2     DC1            -2.9260000000       -8.2680000000        5.7130000000  MEOH2     68              0.0000000000
       740        68  MEOH2     O1             -3.8260000000       -8.0410000000        4.5950000000  MEOH2     68              0.0000000000
       741        68  MEOH2     DO1            -3.8260000000       -8.0410000000        4.5950000000  MEOH2     68              0.0000000000
       742        68  MEOH2     HO1            -4.0220000000       -8.8830000000        4.1350000000  MEOH2     68              0.0000000000
       743        68  MEOH2     HO2            -4.5630000000       -7.4540000000        4.8610000000  MEOH2     68              0.0000000000
       744        68  MEOH2     H1A            -2.5780000000       -7.3000000000        6.1550000000  MEOH2     68              0.0000000000
       745        68  MEOH2     H1B            -2.0040000000       -8.8140000000        5.3850000000  MEOH2     68              0.0000000000
       746        68  MEOH2     H1C            -3.4050000000       -8.8660000000        6.5310000000  MEOH2     68              0.0000000000
       747        68  MEOH2     LP1A           -4.1590000000       -8.0650000000        4.7010000000  MEOH2     68              0.0000000000
       748        68  MEOH2     LP1B           -3.6430000000       -7.9690000000        4.3050000000  MEOH2     68              0.0000000000
       749        69  MEOH2     C1             -2.8160000000       -2.0860000000       -6.4900000000  MEOH2     69              0.0000000000
       750        69  MEOH2     DC1            -2.8160000000       -2.0860000000       -6.4900000000  MEOH2     69              0.0000000000
       751        69  MEOH2     O1             -3.2700000000       -0.9310000000       -5.7330000000  MEOH2     69              0.0000000000
       752        69  MEOH2     DO1            -3.2700000000       -0.9310000000       -5.7330000000  MEOH2     69              0.0000000000
       753        69  MEOH2     HO1            -3.6680000000       -0.2650000000       -6.3280000000  MEOH2     69              0.0000000000
       754        69  MEOH2     HO2            -3.7550000000       -1.2150000000       -4.9320000000  MEOH2     69              0.0000000000
       755        69  MEOH2     H1A            -2.2280000000       -2.7870000000       -5.8450000000  MEOH2     69              0.0000000000
       756        69  MEOH2     H1B            -2.1350000000       -1.7800000000       -7.3250000000  MEOH2     69              0.0000000000
       757        69  MEOH2     H1C            -3.6670000000       -2.6630000000       -6.9360000000  MEOH2     69              0.0000000000
       758        69  MEOH2     LP1A           -3.6000000000       -0.9790000000       -5.6250000000  MEOH2     69              0.0000000000
       759        69  MEOH2     LP1B           -3.0110000000       -0.6970000000       -5.7040000000  MEOH2     69              0.0000000000
       760        70  MEOH2     C1              3.6970000000        3.5720000000        8.2670000000  MEOH2     70              0.0000000000
       761        70  MEOH2     DC1             3.6970000000        3.5720000000        8.2670000000  MEOH2     70              0.0000000000
       762        70  MEOH2     O1              4.0000000000        2.1930000000        8.6110000000  MEOH2     70              0.0000000000
       763        70  MEOH2     DO1             4.0000000000        2.1930000000        8.6110000000  MEOH2     70              0.0000000000
       764        70  MEOH2     HO1             3.3710000000        1.5840000000        8.1750000000  MEOH2     70              0.0000000000
       765        70  MEOH2     HO2             4.9620000000        2.0250000000        8.5410000000  MEOH2     70              0.0000000000
       766        70  MEOH2     H1A             4.3130000000        4.2840000000        8.8740000000  MEOH2     70              0.0000000000
       767        70  MEOH2     H1B             2.6260000000        3.8170000000        8.4850000000  MEOH2     70              0.0000000000
       768        70  MEOH2     H1C             3.8850000000        3.7920000000        7.1850000000  MEOH2     70              0.0000000000
       769        70  MEOH2     LP1A            4.2310000000        2.0590000000        8.3830000000  MEOH2     70              0.0000000000
       770        70  MEOH2     LP1B            3.8290000000        2.1010000000        8.9030000000  MEOH2     70              0.0000000000
       771        71  MEOH2     C1              8.0460000000        5.8190000000       -0.3990000000  MEOH2     71              0.0000000000
       772        71  MEOH2     DC1             8.0460000000        5.8190000000       -0.3990000000  MEOH2     71              0.0000000000
       773        71  MEOH2     O1              8.3210000000        6.7070000000        0.7170000000  MEOH2     71              0.0000000000
       774        71  MEOH2     DO1             8.3210000000        6.7070000000        0.7170000000  MEOH2     71              0.0000000000
       775        71  MEOH2     HO1             8.9800000000        7.3850000000        0.4630000000  MEOH2     71              0.0000000000
       776        71  MEOH2     HO2             7.4880000000        6.9830000000        1.1500000000  MEOH2     71              0.0000000000
       777        71  MEOH2     H1A             7.4100000000        4.9540000000       -0.0800000000  MEOH2     71              0.0000000000
       778        71  MEOH2     H1B             8.9910000000        5.3800000000       -0.8090000000  MEOH2     71              0.0000000000
       779        71  MEOH2     H1C             7.5190000000        6.3400000000       -1.2390000000  MEOH2     71              0.0000000000
       780        71  MEOH2     LP1A            8.0970000000        6.9770000000        0.7150000000  MEOH2     71              0.0000000000
       781        71  MEOH2     LP1B            8.5830000000        6.5790000000        0.9110000000  MEOH2     71              0.0000000000
       782        72  MEOH2     C1             -5.0620000000       -6.9600000000        2.8800000000  MEOH2     72              0.0000000000
       783        72  MEOH2     DC1            -5.0620000000       -6.9600000000        2.8800000000  MEOH2     72              0.0000000000
       784        72  MEOH2     O1             -5.9620000000       -7.9940000000        3.3610000000  MEOH2     72              0.0000000000
       785        72  MEOH2     DO1            -5.9620000000       -7.9940000000        3.3610000000  MEOH2     72              0.0000000000
       786        72  MEOH2     HO1            -6.7560000000       -7.5940000000        3.7710000000  MEOH2     72              0.0000000000
       787        72  MEOH2     HO2            -6.0670000000       -8.6970000000        2.6880000000  MEOH2     72              0.0000000000
       788        72  MEOH2     H1A            -4.0860000000       -7.3960000000        2.5450000000  MEOH2     72              0.0000000000
       789        72  MEOH2     H1B            -4.8160000000       -6.2270000000        3.6910000000  MEOH2     72              0.0000000000
       790        72  MEOH2     H1C            -5.4930000000       -6.3850000000        2.0200000000  MEOH2     72              0.0000000000
       791        72  MEOH2     LP1A           -6.1850000000       -8.0870000000        3.1070000000  MEOH2     72              0.0000000000
       792        72  MEOH2     LP1B           -5.8810000000       -8.0800000000        3.6910000000  MEOH2     72              0.0000000000
       793        73  MEOH2     C1              3.7630000000        8.0850000000       -3.5130000000  MEOH2     73              0.0000000000
       794        73  MEOH2     DC1             3.7630000000        8.0850000000       -3.5130000000  MEOH2     73              0.0000000000
       795        73  MEOH2     O1              3.2460000000        7.2970000000       -4.6200000000  MEOH2     73              0.0000000000
       796        73  MEOH2     DO1             3.2460000000        7.2970000000       -4.6200000000  MEOH2     73              0.0000000000
       797        73  MEOH2     HO1             3.8710000000        6.5820000000       -4.8550000000  MEOH2     73              0.0000000000
       798        73  MEOH2     HO2             2.3010000000        7.0860000000       -4.4780000000  MEOH2     73              0.0000000000
       799        73  MEOH2     H1A             3.1320000000        8.9920000000       -3.3330000000  MEOH2     73              0.0000000000
       800        73  MEOH2     H1B             4.7960000000        8.4590000000       -3.7310000000  MEOH2     73              0.0000000000
       801        73  MEOH2     H1C             3.8050000000        7.5010000000       -2.5580000000  MEOH2     73              0.0000000000
       802        73  MEOH2     LP1A            3.0480000000        7.0350000000       -4.4990000000  MEOH2     73              0.0000000000
       803        73  MEOH2     LP1B            3.3480000000        7.4360000000       -4.9250000000  MEOH2     73              0.0000000000
       804        74  MEOH2     C1             -7.1390000000        3.4070000000       -5.7360000000  MEOH2     74              0.0000000000
       805        74  MEOH2     DC1            -7.1390000000        3.4070000000       -5.7360000000  MEOH2     74              0.0000000000
       806        74  MEOH2     O1             -8.4820000000        3.1790000000       -6.2430000000  MEOH2     74              0.0000000000
       807        74  MEOH2     DO1            -8.4820000000        3.1790000000       -6.2430000000  MEOH2     74              0.0000000000
       808        74  MEOH2     HO1            -8.8950000000        2.4150000000       -5.7900000000  MEOH2     74              0.0000000000
       809        74  MEOH2     HO2            -8.9720000000        4.0240000000       -6.3090000000  MEOH2     74              0.0000000000
       810        74  MEOH2     H1A            -6.6030000000        4.1780000000       -6.3440000000  MEOH2     74              0.0000000000
       811        74  MEOH2     H1B            -6.5210000000        2.4740000000       -5.7940000000  MEOH2     74              0.0000000000
       812        74  MEOH2     H1C            -7.1390000000        3.7500000000       -4.6690000000  MEOH2     74              0.0000000000
       813        74  MEOH2     LP1A           -8.7140000000        3.3660000000       -6.0590000000  MEOH2     74              0.0000000000
       814        74  MEOH2     LP1B           -8.4720000000        2.9620000000       -6.5180000000  MEOH2     74              0.0000000000
       815        75  MEOH2     C1              6.4090000000        7.1350000000       -6.4860000000  MEOH2     75              0.0000000000
       816        75  MEOH2     DC1             6.4090000000        7.1350000000       -6.4860000000  MEOH2     75              0.0000000000
       817        75  MEOH2     O1              6.8720000000        7.9970000000       -5.4100000000  MEOH2     75              0.0000000000
       818        75  MEOH2     DO1             6.8720000000        7.9970000000       -5.4100000000  MEOH2     75              0.0000000000
       819        75  MEOH2     HO1             6.4400000000        7.7550000000       -4.5660000000  MEOH2     75              0.0000000000
       820        75  MEOH2     HO2             7.8450000000        8.0950000000       -5.4440000000  MEOH2     75              0.0000000000
       821        75  MEOH2     H1A             6.7800000000        7.4940000000       -7.4790000000  MEOH2     75              0.0000000000
       822        75  MEOH2     H1B             5.2910000000        7.1330000000       -6.5490000000  MEOH2     75              0.0000000000
       823        75  MEOH2     H1C             6.7460000000        6.0750000000       -6.3570000000  MEOH2     75              0.0000000000
       824        75  MEOH2     LP1A            7.1580000000        7.8600000000       -5.2610000000  MEOH2     75              0.0000000000
       825        75  MEOH2     LP1B            6.6700000000        8.2820000000       -5.3890000000  MEOH2     75              0.0000000000
       826        76  MEOH2     C1             -6.3860000000       -2.0960000000        4.0150000000  MEOH2     76              0.0000000000
       827        76  MEOH2     DC1            -6.3860000000       -2.0960000000        4.0150000000  MEOH2     76              0.0000000000
       828        76  MEOH2     O1             -7.0790000000       -1.7770000000        5.2520000000  MEOH2     76              0.0000000000
       829        76  MEOH2     DO1            -7.0790000000       -1.7770000000        5.2520000000  MEOH2     76              0.0000000000
       830        76  MEOH2     HO1            -6.8500000000       -2.4220000000        5.9510000000  MEOH2     76              0.0000000000
       831        76  MEOH2     HO2            -7.0200000000       -0.8180000000        5.4400000000  MEOH2     76              0.0000000000
       832        76  MEOH2     H1A            -6.7510000000       -1.4590000000        3.1700000000  MEOH2     76              0.0000000000
       833        76  MEOH2     H1B            -6.5700000000       -3.1580000000        3.7110000000  MEOH2     76              0.0000000000
       834        76  MEOH2     H1C            -5.2780000000       -1.9520000000        4.0990000000  MEOH2     76              0.0000000000
       835        76  MEOH2     LP1A           -6.8870000000       -1.5550000000        5.4440000000  MEOH2     76              0.0000000000
       836        76  MEOH2     LP1B           -7.3910000000       -1.9360000000        5.2590000000  MEOH2     76              0.0000000000
       837        77  MEOH2     C1             -8.0180000000       -8.4150000000       -8.1150000000  MEOH2     77              0.0000000000
       838        77  MEOH2     DC1            -8.0180000000       -8.4150000000       -8.1150000000  MEOH2     77              0.0000000000
       839        77  MEOH2     O1             -8.2070000000       -7.0710000000       -8.6330000000  MEOH2     77              0.0000000000
       840        77  MEOH2     DO1            -8.2070000000       -7.0710000000       -8.6330000000  MEOH2     77              0.0000000000
       841        77  MEOH2     HO1            -8.9350000000       -6.6190000000       -8.1600000000  MEOH2     77              0.0000000000
       842        77  MEOH2     HO2            -7.3450000000       -6.6190000000       -8.7380000000  MEOH2     77              0.0000000000
       843        77  MEOH2     H1A            -7.2930000000       -8.9930000000       -8.7430000000  MEOH2     77              0.0000000000
       844        77  MEOH2     H1B            -8.9770000000       -8.9930000000       -8.1300000000  MEOH2     77              0.0000000000
       845        77  MEOH2     H1C            -7.6350000000       -8.4160000000       -7.0620000000  MEOH2     77              0.0000000000
       846        77  MEOH2     LP1A           -8.0030000000       -6.8450000000       -8.4600000000  MEOH2     77              0.0000000000
       847        77  MEOH2     LP1B           -8.4340000000       -7.0750000000       -8.9000000000  MEOH2     77              0.0000000000
       848        78  MEOH2     C1              2.2720000000        3.0680000000       -1.6680000000  MEOH2     78              0.0000000000
       849        78  MEOH2     DC1             2.2720000000        3.0680000000       -1.6680000000  MEOH2     78              0.0000000000
       850        78  MEOH2     O1              3.2740000000        2.0710000000       -2.0070000000  MEOH2     78              0.0000000000
       851        78  MEOH2     DO1             3.2740000000        2.0710000000       -2.0070000000  MEOH2     78              0.0000000000
       852        78  MEOH2     HO1             3.4950000000        2.1160000000       -2.9600000000  MEOH2     78              0.0000000000
       853        78  MEOH2     HO2             3.9940000000        2.0690000000       -1.3440000000  MEOH2     78              0.0000000000
       854        78  MEOH2     H1A             1.9030000000        2.9310000000       -0.6200000000  MEOH2     78              0.0000000000
       855        78  MEOH2     H1B             1.3740000000        2.9810000000       -2.3320000000  MEOH2     78              0.0000000000
       856        78  MEOH2     H1C             2.6640000000        4.1140000000       -1.7590000000  MEOH2     78              0.0000000000
       857        78  MEOH2     LP1A            3.5960000000        2.2040000000       -1.9640000000  MEOH2     78              0.0000000000
       858        78  MEOH2     LP1B            3.1190000000        1.7700000000       -2.0950000000  MEOH2     78              0.0000000000
       859        79  MEOH2     C1             -7.2310000000       -3.2760000000       -2.6690000000  MEOH2     79              0.0000000000
       860        79  MEOH2     DC1            -7.2310000000       -3.2760000000       -2.6690000000  MEOH2     79              0.0000000000
       861        79  MEOH2     O1             -8.4800000000       -3.8040000000       -3.1900000000  MEOH2     79              0.0000000000
       862        79  MEOH2     DO1            -8.4800000000       -3.8040000000       -3.1900000000  MEOH2     79              0.0000000000
       863        79  MEOH2     HO1            -8.9570000000       -4.3050000000       -2.4970000000  MEOH2     79              0.0000000000
       864        79  MEOH2     HO2            -8.9540000000       -3.1200000000       -3.7050000000  MEOH2     79              0.0000000000
       865        79  MEOH2     H1A            -6.6080000000       -2.8300000000       -3.4860000000  MEOH2     79              0.0000000000
       866        79  MEOH2     H1B            -6.6110000000       -4.0860000000       -2.2060000000  MEOH2     79              0.0000000000
       867        79  MEOH2     H1C            -7.3940000000       -2.4840000000       -1.8930000000  MEOH2     79              0.0000000000
       868        79  MEOH2     LP1A           -8.7380000000       -3.5710000000       -3.1470000000  MEOH2     79              0.0000000000
       869        79  MEOH2     LP1B           -8.4280000000       -4.1210000000       -3.3310000000  MEOH2     79              0.0000000000
       870        80  MEOH2     C1              8.2390000000       -5.2710000000       -2.9770000000  MEOH2     80              0.0000000000
       871        80  MEOH2     DC1             8.2390000000       -5.2710000000       -2.9770000000  MEOH2     80              0.0000000000
       872        80  MEOH2     O1              8.0970000000       -3.8620000000       -3.3040000000  MEOH2     80              0.0000000000
       873        80  MEOH2     DO1             8.0970000000       -3.8620000000       -3.3040000000  MEOH2     80              0.0000000000
       874        80  MEOH2     HO1             8.9610000000       -3.4050000000       -3.2370000000  MEOH2     80              0.0000000000
       875        80  MEOH2     HO2             7.5520000000       -3.7490000000       -4.1080000000  MEOH2     80              0.0000000000
       876        80  MEOH2     H1A             7.2400000000       -5.7710000000       -2.9040000000  MEOH2     80              0.0000000000
       877        80  MEOH2     H1B             8.7330000000       -5.4070000000       -1.9810000000  MEOH2     80              0.0000000000
       878        80  MEOH2     H1C             8.8450000000       -5.8250000000       -3.7380000000  MEOH2     80              0.0000000000
       879        80  MEOH2     LP1A            8.1390000000       -3.8130000000       -3.6480000000  MEOH2     80              0.0000000000
       880        80  MEOH2     LP1B            8.0200000000       -3.6780000000       -3.0150000000  MEOH2     80              0.0000000000
       881        81  MEOH2     C1              4.8370000000       -8.1480000000       -2.9180000000  MEOH2     81              0.0000000000
       882        81  MEOH2     DC1             4.8370000000       -8.1480000000       -2.9180000000  MEOH2     81              0.0000000000
       883        81  MEOH2     O1              5.7380000000       -8.0950000000       -1.7790000000  MEOH2     81              0.0000000000
       884        81  MEOH2     DO1             5.7380000000       -8.0950000000       -1.7790000000  MEOH2     81              0.0000000000
       885        81  MEOH2     HO1             6.1660000000       -8.9640000000       -1.6390000000  MEOH2     81              0.0000000000
       886        81  MEOH2     HO2             6.2860000000       -7.2850000000       -1.8130000000  MEOH2     81              0.0000000000
       887        81  MEOH2     H1A             4.2310000000       -7.2100000000       -2.9990000000  MEOH2     81              0.0000000000
       888        81  MEOH2     H1B             4.1040000000       -8.9880000000       -2.8160000000  MEOH2     81              0.0000000000
       889        81  MEOH2     H1C             5.3840000000       -8.2880000000       -3.8870000000  MEOH2     81              0.0000000000
       890        81  MEOH2     LP1A            6.0570000000       -7.9950000000       -1.8820000000  MEOH2     81              0.0000000000
       891        81  MEOH2     LP1B            5.5650000000       -8.1750000000       -1.4850000000  MEOH2     81              0.0000000000
       892        82  MEOH2     C1              0.6910000000        3.5690000000        7.0650000000  MEOH2     82              0.0000000000
       893        82  MEOH2     DC1             0.6910000000        3.5690000000        7.0650000000  MEOH2     82              0.0000000000
       894        82  MEOH2     O1              0.4000000000        3.4900000000        8.4860000000  MEOH2     82              0.0000000000
       895        82  MEOH2     DO1             0.4000000000        3.4900000000        8.4860000000  MEOH2     82              0.0000000000
       896        82  MEOH2     HO1            -0.5550000000        3.6290000000        8.6500000000  MEOH2     82              0.0000000000
       897        82  MEOH2     HO2             0.8510000000        2.7200000000        8.8870000000  MEOH2     82              0.0000000000
       898        82  MEOH2     H1A             1.7950000000        3.5600000000        6.8770000000  MEOH2     82              0.0000000000
       899        82  MEOH2     H1B             0.3050000000        4.5240000000        6.6250000000  MEOH2     82              0.0000000000
       900        82  MEOH2     H1C             0.2390000000        2.7200000000        6.4900000000  MEOH2     82              0.0000000000
       901        82  MEOH2     LP1A            0.3290000000        3.1590000000        8.5770000000  MEOH2     82              0.0000000000
       902        82  MEOH2     LP1B            0.4330000000        3.8060000000        8.6340000000  MEOH2     82              0.0000000000
       903        83  MEOH2     C1              5.4590000000        7.9850000000        7.2890000000  MEOH2     83              0.0000000000
       904        83  MEOH2     DC1             5.4590000000        7.9850000000        7.2890000000  MEOH2     83              0.0000000000
       905        83  MEOH2     O1              5.1230000000        8.0640000000        8.7010000000  MEOH2     83              0.0000000000
       906        83  MEOH2     DO1             5.1230000000        8.0640000000        8.7010000000  MEOH2     83              0.0000000000
       907        83  MEOH2     HO1             4.7420000000        8.9400000000        8.9150000000  MEOH2     83              0.0000000000
       908        83  MEOH2     HO2             4.6600000000        7.2510000000        8.9890000000  MEOH2     83              0.0000000000
       909        83  MEOH2     H1A             6.0310000000        7.0490000000        7.0610000000  MEOH2     83              0.0000000000
       910        83  MEOH2     H1B             6.1170000000        8.8380000000        6.9820000000  MEOH2     83              0.0000000000
       911        83  MEOH2     H1C             4.5510000000        8.0010000000        6.6340000000  MEOH2     83              0.0000000000
       912        83  MEOH2     LP1A            4.7960000000        7.9490000000        8.7540000000  MEOH2     83              0.0000000000
       913        83  MEOH2     LP1B            5.3980000000        8.1810000000        8.8840000000  MEOH2     83              0.0000000000
       914        84  MEOH2     C1             -4.0330000000        6.1800000000        6.9130000000  MEOH2     84              0.0000000000
       915        84  MEOH2     DC1            -4.0330000000        6.1800000000        6.9130000000  MEOH2     84              0.0000000000
       916        84  MEOH2     O1             -5.4670000000        5.9630000000        7.0040000000  MEOH2     84              0.0000000000
       917        84  MEOH2     DO1            -5.4670000000        5.9630000000        7.0040000000  MEOH2     84              0.0000000000
       918        84  MEOH2     HO1            -5.6580000000        5.1150000000        7.4550000000  MEOH2     84              0.0000000000
       919        84  MEOH2     HO2            -5.9200000000        6.7790000000        7.2990000000  MEOH2     84              0.0000000000
       920        84  MEOH2     H1A            -3.7990000000        7.0680000000        6.2710000000  MEOH2     84              0.0000000000
       921        84  MEOH2     H1B            -3.5210000000        5.3050000000        6.4370000000  MEOH2     84              0.0000000000
       922        84  MEOH2     H1C            -3.5620000000        6.3480000000        7.9150000000  MEOH2     84              0.0000000000
       923        84  MEOH2     LP1A           -5.5920000000        6.1050000000        7.2990000000  MEOH2     84              0.0000000000
       924        84  MEOH2     LP1B           -5.5820000000        5.7940000000        6.7200000000  MEOH2     84              0.0000000000
       925        85  MEOH2     C1              5.6240000000       -2.0810000000       -1.2430000000  MEOH2     85              0.0000000000
       926        85  MEOH2     DC1             5.6240000000       -2.0810000000       -1.2430000000  MEOH2     85              0.0000000000
       927        85  MEOH2     O1              6.2610000000       -2.7240000000       -2.3800000000  MEOH2     85              0.0000000000
       928        85  MEOH2     DO1             6.2610000000       -2.7240000000       -2.3800000000  MEOH2     85              0.0000000000
       929        85  MEOH2     HO1             6.9190000000       -3.3820000000       -2.0780000000  MEOH2     85              0.0000000000
       930        85  MEOH2     HO2             5.5920000000       -2.9810000000       -3.0480000000  MEOH2     85              0.0000000000
       931        85  MEOH2     H1A             4.9800000000       -1.2260000000       -1.5710000000  MEOH2     85              0.0000000000
       932        85  MEOH2     H1B             6.3850000000       -1.6510000000       -0.5430000000  MEOH2     85              0.0000000000
       933        85  MEOH2     H1C             4.9820000000       -2.7880000000       -0.6580000000  MEOH2     85              0.0000000000
       934        85  MEOH2     LP1A            6.0770000000       -3.0070000000       -2.4780000000  MEOH2     85              0.0000000000
       935        85  MEOH2     LP1B            6.5430000000       -2.5420000000       -2.4790000000  MEOH2     85              0.0000000000
       936        86  MEOH2     C1              8.2950000000        1.5340000000       -1.5390000000  MEOH2     86              0.0000000000
       937        86  MEOH2     DC1             8.2950000000        1.5340000000       -1.5390000000  MEOH2     86              0.0000000000
       938        86  MEOH2     O1              8.1250000000        2.9430000000       -1.2290000000  MEOH2     86              0.0000000000
       939        86  MEOH2     DO1             8.1250000000        2.9430000000       -1.2290000000  MEOH2     86              0.0000000000
       940        86  MEOH2     HO1             8.9870000000        3.3560000000       -1.0200000000  MEOH2     86              0.0000000000
       941        86  MEOH2     HO2             7.5310000000        3.3680000000       -1.8800000000  MEOH2     86              0.0000000000
       942        86  MEOH2     H1A             7.3060000000        1.0180000000       -1.6340000000  MEOH2     86              0.0000000000
       943        86  MEOH2     H1B             8.8490000000        1.0040000000       -0.7220000000  MEOH2     86              0.0000000000
       944        86  MEOH2     H1C             8.8580000000        1.3730000000       -2.4940000000  MEOH2     86              0.0000000000
       945        86  MEOH2     LP1A            8.1450000000        3.1350000000       -1.5210000000  MEOH2     86              0.0000000000
       946        86  MEOH2     LP1B            8.0640000000        2.9850000000       -0.8860000000  MEOH2     86              0.0000000000
       947        87  MEOH2     C1              3.4960000000       -2.9240000000       -4.1750000000  MEOH2     87              0.0000000000
       948        87  MEOH2     DC1             3.4960000000       -2.9240000000       -4.1750000000  MEOH2     87              0.0000000000
       949        87  MEOH2     O1              3.0410000000       -2.9180000000       -5.5560000000  MEOH2     87              0.0000000000
       950        87  MEOH2     DO1             3.0410000000       -2.9180000000       -5.5560000000  MEOH2     87              0.0000000000
       951        87  MEOH2     HO1             3.8010000000       -2.8460000000       -6.1680000000  MEOH2     87              0.0000000000
       952        87  MEOH2     HO2             2.3700000000       -3.6160000000       -5.6990000000  MEOH2     87              0.0000000000
       953        87  MEOH2     H1A             2.6330000000       -2.8570000000       -3.4650000000  MEOH2     87              0.0000000000
       954        87  MEOH2     H1B             4.1500000000       -2.0400000000       -3.9610000000  MEOH2     87              0.0000000000
       955        87  MEOH2     H1C             4.0770000000       -3.8480000000       -3.9220000000  MEOH2     87              0.0000000000
       956        87  MEOH2     LP1A            3.0210000000       -3.2460000000       -5.6780000000  MEOH2     87              0.0000000000
       957        87  MEOH2     LP1B            2.9740000000       -2.5900000000       -5.6590000000  MEOH2     87              0.0000000000
       958        88  MEOH2     C1              3.2980000000       -4.3910000000       -1.5850000000  MEOH2     88              0.0000000000
       959        88  MEOH2     DC1             3.2980000000       -4.3910000000       -1.5850000000  MEOH2     88              0.0000000000
       960        88  MEOH2     O1              2.8040000000       -3.1460000000       -1.0200000000  MEOH2     88              0.0000000000
       961        88  MEOH2     DO1             2.8040000000       -3.1460000000       -1.0200000000  MEOH2     88              0.0000000000
       962        88  MEOH2     HO1             3.1180000000       -2.3820000000       -1.5440000000  MEOH2     88              0.0000000000
       963        88  MEOH2     HO2             1.8530000000       -3.2240000000       -0.7990000000  MEOH2     88              0.0000000000
       964        88  MEOH2     H1A             3.0720000000       -5.2580000000       -0.9140000000  MEOH2     88              0.0000000000
       965        88  MEOH2     H1B             4.4120000000       -4.3670000000       -1.7040000000  MEOH2     88              0.0000000000
       966        88  MEOH2     H1C             2.8520000000       -4.6090000000       -2.5900000000  MEOH2     88              0.0000000000
       967        88  MEOH2     LP1A            2.4920000000       -3.0660000000       -1.1580000000  MEOH2     88              0.0000000000
       968        88  MEOH2     LP1B            3.0280000000       -3.0260000000       -0.7790000000  MEOH2     88              0.0000000000
       969        89  MEOH2     C1             -4.1740000000       -3.4890000000        5.8530000000  MEOH2     89              0.0000000000
       970        89  MEOH2     DC1            -4.1740000000       -3.4890000000        5.8530000000  MEOH2     89              0.0000000000
       971        89  MEOH2     O1             -4.4270000000       -4.5980000000        4.9490000000  MEOH2     89              0.0000000000
       972        89  MEOH2     DO1            -4.4270000000       -4.5980000000        4.9490000000  MEOH2     89              0.0000000000
       973        89  MEOH2     HO1            -4.5950000000       -5.4200000000        5.4520000000  MEOH2     89              0.0000000000
       974        89  MEOH2     HO2            -5.0460000000       -4.3290000000        4.2410000000  MEOH2     89              0.0000000000
       975        89  MEOH2     H1A            -3.8340000000       -2.5800000000        5.2930000000  MEOH2     89              0.0000000000
       976        89  MEOH2     H1B            -3.3560000000       -3.7360000000        6.5780000000  MEOH2     89              0.0000000000
       977        89  MEOH2     H1C            -5.0820000000       -3.2060000000        6.4450000000  MEOH2     89              0.0000000000
       978        89  MEOH2     LP1A           -4.7680000000       -4.6170000000        4.8740000000  MEOH2     89              0.0000000000
       979        89  MEOH2     LP1B           -4.1250000000       -4.7560000000        4.8640000000  MEOH2     89              0.0000000000
       980        90  MEOH2     C1              3.0540000000       -8.0130000000        7.5880000000  MEOH2     90              0.0000000000
       981        90  MEOH2     DC1             3.0540000000       -8.0130000000        7.5880000000  MEOH2     90              0.0000000000
       982        90  MEOH2     O1              4.2660000000       -8.5940000000        8.1410000000  MEOH2     90              0.0000000000
       983        90  MEOH2     DO1             4.2660000000       -8.5940000000        8.1410000000  MEOH2     90              0.0000000000
       984        90  MEOH2     HO1             4.9170000000       -8.7700000000        7.4310000000  MEOH2     90              0.0000000000
       985        90  MEOH2     HO2             4.5450000000       -8.1070000000        8.9420000000  MEOH2     90              0.0000000000
       986        90  MEOH2     H1A             2.2480000000       -7.9450000000        8.3620000000  MEOH2     90              0.0000000000
       987        90  MEOH2     H1B             2.6430000000       -8.6480000000        6.7610000000  MEOH2     90              0.0000000000
       988        90  MEOH2     H1C             3.2230000000       -6.9850000000        7.1770000000  MEOH2     90              0.0000000000
       989        90  MEOH2     LP1A            4.4900000000       -8.3400000000        8.2330000000  MEOH2     90              0.0000000000
       990        90  MEOH2     LP1B            4.2390000000       -8.9430000000        8.1510000000  MEOH2     90              0.0000000000
       991        91  OAC       C1              8.3580000000        3.5150000000        3.0640000000  OAC       1               0.0000000000
       992        91  OAC       DC1             8.3610000000        3.5210000000        3.0570000000  OAC       1               0.0000000000
       993        91  OAC       C2              8.3450000000        4.9110000000        2.5390000000  OAC       1               0.0000000000
       994        91  OAC       DC2             8.3410000000        4.8880000000        2.5550000000  OAC       1               0.0000000000
       995        91  OAC       H1              7.2970000000        5.2420000000        2.3830000000  OAC       1               0.0000000000
       996        91  OAC       H2              8.8890000000        4.9660000000        1.5730000000  OAC       1               0.0000000000
       997        91  OAC       H3              8.8350000000        5.5890000000        3.2690000000  OAC       1               0.0000000000
       998        91  OAC       O1              8.8840000000        2.5480000000        2.5310000000  OAC       1               0.0000000000
       999        91  OAC       DO1             8.8640000000        2.5470000000        2.5650000000  OAC       1               0.0000000000
      1000        91  OAC       O2              7.6930000000        3.4320000000        4.2510000000  OAC       1               0.0000000000
      1001        91  OAC       DO2             7.6930000000        3.4490000000        4.2450000000  OAC       1               0.0000000000
      1002        91  OAC       H               7.7390000000        2.5010000000        4.5370000000  OAC       1               0.0000000000
      1003        91  OAC       LPO1            8.7950000000        2.3700000000        2.7540000000  OAC       1               0.0000000000
      1004        91  OAC       LPO1            8.9770000000        2.7180000000        2.3010000000  OAC       1               0.0000000000
      1005        91  OAC       LPO2            7.9090000000        3.4930000000        4.5200000000  OAC       1               0.0000000000
      1006        91  OAC       LPO2            7.3530000000        3.3670000000        4.2000000000  OAC       1               0.0000000000
      1007        92  OAC       C1             -8.6550000000        5.7660000000        0.8560000000  OAC       2               0.0000000000
      1008        92  OAC       DC1            -8.6540000000        5.7570000000        0.8530000000  OAC       2               0.0000000000
      1009        92  OAC       C2             -8.2620000000        5.0240000000       -0.3760000000  OAC       2               0.0000000000
      1010        92  OAC       DC2            -8.2680000000        5.0450000000       -0.3590000000  OAC       2               0.0000000000
      1011        92  OAC       H1             -8.9800000000        5.2500000000       -1.1930000000  OAC       2               0.0000000000
      1012        92  OAC       H2             -8.2620000000        3.9300000000       -0.1880000000  OAC       2               0.0000000000
      1013        92  OAC       H3             -7.2440000000        5.3370000000       -0.6920000000  OAC       2               0.0000000000
      1014        92  OAC       O1             -8.9420000000        5.2680000000        1.9370000000  OAC       2               0.0000000000
      1015        92  OAC       DO1            -8.9420000000        5.3070000000        1.9290000000  OAC       2               0.0000000000
      1016        92  OAC       O2             -8.6590000000        7.1110000000        0.6400000000  OAC       2               0.0000000000
      1017        92  OAC       DO2            -8.6540000000        7.1020000000        0.6250000000  OAC       2               0.0000000000
      1018        92  OAC       H              -8.9220000000        7.5320000000        1.4780000000  OAC       2               0.0000000000
      1019        92  OAC       LPO1           -8.9890000000        5.5390000000        2.0550000000  OAC       2               0.0000000000
      1020        92  OAC       LPO1           -8.8970000000        4.9920000000        1.8280000000  OAC       2               0.0000000000
      1021        92  OAC       LPO2           -8.3440000000        7.2500000000        0.7050000000  OAC       2               0.0000000000
      1022        92  OAC       LPO2           -8.9710000000        7.2190000000        0.5240000000  OAC       2               0.0000000000
      1023        93  OAC       C1             -5.9980000000        2.1760000000        4.8090000000  OAC       3               0.0000000000
      1024        93  OAC       DC1            -5.9940000000        2.1720000000        4.8010000000  OAC       3               0.0000000000
      1025        93  OAC       C2             -6.3150000000        1.3720000000        3.5940000000  OAC       3               0.0000000000
      1026        93  OAC       DC2            -6.3180000000        1.3860000000        3.6170000000  OAC       3               0.0000000000
      1027        93  OAC       H1             -6.7350000000        0.3900000000        3.8940000000  OAC       3               0.0000000000
      1028        93  OAC       H2             -5.3990000000        1.2040000000        2.9890000000  OAC       3               0.0000000000
      1029        93  OAC       H3             -7.0630000000        1.9120000000        2.9740000000  OAC       3               0.0000000000
      1030        93  OAC       O1             -4.8950000000        2.6030000000        5.1230000000  OAC       3               0.0000000000
      1031        93  OAC       DO1            -4.9290000000        2.6090000000        5.1450000000  OAC       3               0.0000000000
      1032        93  OAC       O2             -7.1140000000        2.3900000000        5.5610000000  OAC       3               0.0000000000
      1033        93  OAC       DO2            -7.1180000000        2.3810000000        5.5460000000  OAC       3               0.0000000000
      1034        93  OAC       H              -6.8380000000        2.9170000000        6.3330000000  OAC       3               0.0000000000
      1035        93  OAC       LPO1           -5.0090000000        2.7290000000        5.3710000000  OAC       3               0.0000000000
      1036        93  OAC       LPO1           -4.7720000000        2.4810000000        4.8780000000  OAC       3               0.0000000000
      1037        93  OAC       LPO2           -7.2790000000        2.6830000000        5.4590000000  OAC       3               0.0000000000
      1038        93  OAC       LPO2           -7.1610000000        2.1320000000        5.7920000000  OAC       3               0.0000000000
      1039        94  OAC       C1              8.2890000000       -3.0960000000        2.0360000000  OAC       4               0.0000000000
      1040        94  OAC       DC1             8.2920000000       -3.1020000000        2.0420000000  OAC       4               0.0000000000
      1041        94  OAC       C2              8.3480000000       -4.5480000000        2.3670000000  OAC       4               0.0000000000
      1042        94  OAC       DC2             8.3420000000       -4.5240000000        2.3550000000  OAC       4               0.0000000000
      1043        94  OAC       H1              7.3230000000       -4.9310000000        2.5520000000  OAC       4               0.0000000000
      1044        94  OAC       H2              8.9650000000       -4.7140000000        3.2750000000  OAC       4               0.0000000000
      1045        94  OAC       H3              8.7960000000       -5.1070000000        1.5190000000  OAC       4               0.0000000000
      1046        94  OAC       O1              8.8320000000       -2.1910000000        2.6560000000  OAC       4               0.0000000000
      1047        94  OAC       DO1             8.8090000000       -2.1860000000        2.6230000000  OAC       4               0.0000000000
      1048        94  OAC       O2              7.5340000000       -2.8770000000        0.9220000000  OAC       4               0.0000000000
      1049        94  OAC       DO2             7.5350000000       -2.8940000000        0.9260000000  OAC       4               0.0000000000
      1050        94  OAC       H               7.5370000000       -1.9150000000        0.7630000000  OAC       4               0.0000000000
      1051        94  OAC       LPO1            8.7220000000       -1.9880000000        2.4650000000  OAC       4               0.0000000000
      1052        94  OAC       LPO1            8.9460000000       -2.3880000000        2.8530000000  OAC       4               0.0000000000
      1053        94  OAC       LPO2            7.7300000000       -2.8940000000        0.6320000000  OAC       4               0.0000000000
      1054        94  OAC       LPO2            7.1980000000       -2.8310000000        1.0060000000  OAC       4               0.0000000000
      1055        95  OAC       C1             -5.3950000000        2.3950000000       -7.0150000000  OAC       5               0.0000000000
      1056        95  OAC       DC1            -5.3980000000        2.3880000000       -7.0210000000  OAC       5               0.0000000000
      1057        95  OAC       C2             -5.4690000000        2.1250000000       -8.4790000000  OAC       5               0.0000000000
      1058        95  OAC       DC2            -5.4650000000        2.1380000000       -8.4550000000  OAC       5               0.0000000000
      1059        95  OAC       H1             -6.1280000000        2.8760000000       -8.9650000000  OAC       5               0.0000000000
      1060        95  OAC       H2             -5.8780000000        1.1100000000       -8.6670000000  OAC       5               0.0000000000
      1061        95  OAC       H3             -4.4530000000        2.1940000000       -8.9240000000  OAC       5               0.0000000000
      1062        95  OAC       O1             -5.7290000000        1.6270000000       -6.1220000000  OAC       5               0.0000000000
      1063        95  OAC       DO1            -5.7150000000        1.6640000000       -6.1170000000  OAC       5               0.0000000000
      1064        95  OAC       O2             -4.8940000000        3.6380000000       -6.7690000000  OAC       5               0.0000000000
      1065        95  OAC       DO2            -4.8950000000        3.6350000000       -6.7870000000  OAC       5               0.0000000000
      1066        95  OAC       H              -4.8730000000        3.7490000000       -5.8010000000  OAC       5               0.0000000000
      1067        95  OAC       LPO1           -5.6520000000        1.8280000000       -5.9140000000  OAC       5               0.0000000000
      1068        95  OAC       LPO1           -5.8090000000        1.4190000000       -6.3240000000  OAC       5               0.0000000000
      1069        95  OAC       LPO2           -4.5450000000        3.6300000000       -6.7450000000  OAC       5               0.0000000000
      1070        95  OAC       LPO2           -5.1500000000        3.8770000000       -6.7600000000  OAC       5               0.0000000000
      1071        96  OAC       C1             -8.6320000000       -6.1990000000        7.7760000000  OAC       6               0.0000000000
      1072        96  OAC       DC1            -8.6310000000       -6.1900000000        7.7720000000  OAC       6               0.0000000000
      1073        96  OAC       C2             -8.2120000000       -4.8460000000        8.2370000000  OAC       6               0.0000000000
      1074        96  OAC       DC2            -8.2180000000       -4.8730000000        8.2370000000  OAC       6               0.0000000000
      1075        96  OAC       H1             -8.9260000000       -4.4720000000        9.0000000000  OAC       6               0.0000000000
      1076        96  OAC       H2             -8.1890000000       -4.1350000000        7.3850000000  OAC       6               0.0000000000
      1077        96  OAC       H3             -7.1980000000       -4.9030000000        8.6880000000  OAC       6               0.0000000000
      1078        96  OAC       O1             -8.9180000000       -6.5140000000        6.6280000000  OAC       6               0.0000000000
      1079        96  OAC       DO1            -8.9190000000       -6.5390000000        6.6590000000  OAC       6               0.0000000000
      1080        96  OAC       O2             -8.6650000000       -7.0830000000        8.8120000000  OAC       6               0.0000000000
      1081        96  OAC       DO2            -8.6590000000       -7.0670000000        8.8180000000  OAC       6               0.0000000000
      1082        96  OAC       H              -8.9450000000       -7.9410000000        8.4450000000  OAC       6               0.0000000000
      1083        96  OAC       LPO1           -8.9730000000       -6.7960000000        6.7140000000  OAC       6               0.0000000000
      1084        96  OAC       LPO1           -8.8660000000       -6.2340000000        6.5320000000  OAC       6               0.0000000000
      1085        96  OAC       LPO2           -8.3530000000       -7.2380000000        8.8550000000  OAC       6               0.0000000000
      1086        96  OAC       LPO2           -8.9780000000       -7.0830000000        8.9680000000  OAC       6               0.0000000000
      1087        97  OAC       C1              4.9850000000       -1.3900000000        6.5440000000  OAC       7               0.0000000000
      1088        97  OAC       DC1             4.9920000000       -1.3860000000        6.5500000000  OAC       7               0.0000000000
      1089        97  OAC       C2              5.9700000000       -0.2740000000        6.6320000000  OAC       7               0.0000000000
      1090        97  OAC       DC2             5.9500000000       -0.2910000000        6.6230000000  OAC       7               0.0000000000
      1091        97  OAC       H1              6.6640000000       -0.3190000000        5.7670000000  OAC       7               0.0000000000
      1092        97  OAC       H2              6.5570000000       -0.3480000000        7.5710000000  OAC       7               0.0000000000
      1093        97  OAC       H3              5.4350000000        0.6990000000        6.6170000000  OAC       7               0.0000000000
      1094        97  OAC       O1              4.8220000000       -2.2760000000        7.3720000000  OAC       7               0.0000000000
      1095        97  OAC       DO1             4.8020000000       -2.2730000000        7.3380000000  OAC       7               0.0000000000
      1096        97  OAC       O2              4.2550000000       -1.3110000000        5.3960000000  OAC       7               0.0000000000
      1097        97  OAC       DO2             4.2670000000       -1.2970000000        5.3970000000  OAC       7               0.0000000000
      1098        97  OAC       H               3.6360000000       -2.0640000000        5.4020000000  OAC       7               0.0000000000
      1099        97  OAC       LPO1            4.6060000000       -2.3990000000        7.2060000000  OAC       7               0.0000000000
      1100        97  OAC       LPO1            5.0390000000       -2.1610000000        7.5460000000  OAC       7               0.0000000000
      1101        97  OAC       LPO2            3.9690000000       -1.1150000000        5.4430000000  OAC       7               0.0000000000
      1102        97  OAC       LPO2            4.4130000000       -1.4830000000        5.1350000000  OAC       7               0.0000000000
      1103        98  OAC       C1              7.5370000000       -7.4890000000       -7.3780000000  OAC       8               0.0000000000
      1104        98  OAC       DC1             7.5320000000       -7.4840000000       -7.3710000000  OAC       8               0.0000000000
      1105        98  OAC       C2              7.3550000000       -7.4500000000       -5.8990000000  OAC       8               0.0000000000
      1106        98  OAC       DC2             7.3650000000       -7.4560000000       -5.9240000000  OAC       8               0.0000000000
      1107        98  OAC       H1              7.0820000000       -8.4600000000       -5.5290000000  OAC       8               0.0000000000
      1108        98  OAC       H2              6.5510000000       -6.7350000000       -5.6250000000  OAC       8               0.0000000000
      1109        98  OAC       H3              8.3030000000       -7.1320000000       -5.4140000000  OAC       8               0.0000000000
      1110        98  OAC       O1              6.9060000000       -6.8380000000       -8.2000000000  OAC       8               0.0000000000
      1111        98  OAC       DO1             6.9350000000       -6.8640000000       -8.2090000000  OAC       8               0.0000000000
      1112        98  OAC       O2              8.5220000000       -8.3630000000       -7.7290000000  OAC       8               0.0000000000
      1113        98  OAC       DO2             8.5200000000       -8.3620000000       -7.7110000000  OAC       8               0.0000000000
      1114        98  OAC       H               8.5880000000       -8.3400000000       -8.7010000000  OAC       8               0.0000000000
      1115        98  OAC       LPO1            7.0610000000       -6.9610000000       -8.4240000000  OAC       8               0.0000000000
      1116        98  OAC       LPO1            6.7440000000       -6.7080000000       -7.9820000000  OAC       8               0.0000000000
      1117        98  OAC       LPO2            8.8340000000       -8.2040000000       -7.7350000000  OAC       8               0.0000000000
      1118        98  OAC       LPO2            8.3930000000       -8.6850000000       -7.7770000000  OAC       8               0.0000000000
      1119        99  OAC       C1             -2.7330000000        1.1510000000        6.0610000000  OAC       9               0.0000000000
      1120        99  OAC       DC1            -2.7400000000        1.1520000000        6.0670000000  OAC       9               0.0000000000
      1121        99  OAC       C2             -3.2790000000        2.1680000000        7.0040000000  OAC       9               0.0000000000
      1122        99  OAC       DC2            -3.2620000000        2.1550000000        6.9860000000  OAC       9               0.0000000000
      1123        99  OAC       H1             -2.5860000000        2.2940000000        7.8620000000  OAC       9               0.0000000000
      1124        99  OAC       H2             -4.2720000000        1.8500000000        7.3850000000  OAC       9               0.0000000000
      1125        99  OAC       H3             -3.3870000000        3.1420000000        6.4810000000  OAC       9               0.0000000000
      1126        99  OAC       O1             -3.2760000000        0.1050000000        5.7350000000  OAC       9               0.0000000000
      1127        99  OAC       DO1            -3.2410000000        0.1170000000        5.7220000000  OAC       9               0.0000000000
      1128        99  OAC       O2             -1.5130000000        1.5280000000        5.5850000000  OAC       9               0.0000000000
      1129        99  OAC       DO2            -1.5200000000        1.5400000000        5.5960000000  OAC       9               0.0000000000
      1130        99  OAC       H              -1.2150000000        0.8240000000        4.9800000000  OAC       9               0.0000000000
      1131        99  OAC       LPO1           -3.0460000000        0.0340000000        5.5570000000  OAC       9               0.0000000000
      1132        99  OAC       LPO1           -3.5130000000        0.1660000000        5.9100000000  OAC       9               0.0000000000
      1133        99  OAC       LPO2           -1.5460000000        1.7210000000        5.2940000000  OAC       9               0.0000000000
      1134        99  OAC       LPO2           -1.2560000000        1.4140000000        5.7930000000  OAC       9               0.0000000000
      1135       100  OAC       C1             -1.2910000000        8.5930000000       -7.7440000000  OAC       10              0.0000000000
      1136       100  OAC       DC1            -1.2830000000        8.5920000000       -7.7380000000  OAC       10              0.0000000000
      1137       100  OAC       C2             -0.8770000000        8.2710000000       -6.3480000000  OAC       10              0.0000000000
      1138       100  OAC       DC2            -0.8920000000        8.2750000000       -6.3710000000  OAC       10              0.0000000000
      1139       100  OAC       H1             -1.4040000000        8.9410000000       -5.6380000000  OAC       10              0.0000000000
      1140       100  OAC       H2              0.2190000000        8.4070000000       -6.2270000000  OAC       10              0.0000000000
      1141       100  OAC       H3             -1.1380000000        7.2170000000       -6.1140000000  OAC       10              0.0000000000
      1142       100  OAC       O1             -0.5530000000        8.9570000000       -8.6490000000  OAC       10              0.0000000000
      1143       100  OAC       DO1            -0.5930000000        8.9520000000       -8.6530000000  OAC       10              0.0000000000
      1144       100  OAC       O2             -2.6340000000        8.4290000000       -7.9070000000  OAC       10              0.0000000000
      1145       100  OAC       DO2            -2.6290000000        8.4250000000       -7.8900000000  OAC       10              0.0000000000
      1146       100  OAC       H              -2.8360000000        8.6540000000       -8.8330000000  OAC       10              0.0000000000
      1147       100  OAC       LPO1           -0.7850000000        8.9730000000       -8.8390000000  OAC       10              0.0000000000
      1148       100  OAC       LPO1           -0.3140000000        8.9440000000       -8.4680000000  OAC       10              0.0000000000
      1149       100  OAC       LPO2           -2.7100000000        8.1010000000       -8.0030000000  OAC       10              0.0000000000
      1150       100  OAC       LPO2           -2.8070000000        8.7240000000       -7.8300000000  OAC       10              0.0000000000
      1151       101  OAC       C1             -8.6010000000        0.5960000000       -3.1410000000  OAC       11              0.0000000000
      1152       101  OAC       DC1            -8.6010000000        0.5870000000       -3.1380000000  OAC       11              0.0000000000
      1153       101  OAC       C2             -8.3020000000       -0.8020000000       -3.5640000000  OAC       11              0.0000000000
      1154       101  OAC       DC2            -8.3050000000       -0.7750000000       -3.5640000000  OAC       11              0.0000000000
      1155       101  OAC       H1             -8.9710000000       -1.0910000000       -4.4010000000  OAC       11              0.0000000000
      1156       101  OAC       H2             -8.4570000000       -1.5050000000       -2.7190000000  OAC       11              0.0000000000
      1157       101  OAC       H3             -7.2460000000       -0.8720000000       -3.9030000000  OAC       11              0.0000000000
      1158       101  OAC       O1             -8.9670000000        0.9500000000       -2.0290000000  OAC       11              0.0000000000
      1159       101  OAC       DO1            -8.9620000000        0.9750000000       -2.0600000000  OAC       11              0.0000000000
      1160       101  OAC       O2             -8.4140000000        1.4700000000       -4.1690000000  OAC       11              0.0000000000
      1161       101  OAC       DO2            -8.4100000000        1.4530000000       -4.1740000000  OAC       11              0.0000000000
      1162       101  OAC       H              -8.6250000000        2.3580000000       -3.8280000000  OAC       11              0.0000000000
      1163       101  OAC       LPO1           -8.9780000000        1.2360000000       -2.1180000000  OAC       11              0.0000000000
      1164       101  OAC       LPO1           -8.9610000000        0.6670000000       -1.9300000000  OAC       11              0.0000000000
      1165       101  OAC       LPO2           -8.0830000000        1.5860000000       -4.1770000000  OAC       11              0.0000000000
      1166       101  OAC       LPO2           -8.7070000000        1.5070000000       -4.3580000000  OAC       11              0.0000000000
      1167       102  OAC       C1              5.9830000000        3.0000000000        5.0820000000  OAC       12              0.0000000000
      1168       102  OAC       DC1             5.9870000000        2.9960000000        5.0890000000  OAC       12              0.0000000000
      1169       102  OAC       C2              6.4820000000        3.2730000000        6.4600000000  OAC       12              0.0000000000
      1170       102  OAC       DC2             6.4710000000        3.2760000000        6.4350000000  OAC       12              0.0000000000
      1171       102  OAC       H1              7.2390000000        4.0850000000        6.4290000000  OAC       12              0.0000000000
      1172       102  OAC       H2              6.9470000000        2.3620000000        6.8920000000  OAC       12              0.0000000000
      1173       102  OAC       H3              5.6370000000        3.5900000000        7.1080000000  OAC       12              0.0000000000
      1174       102  OAC       O1              6.0590000000        1.9350000000        4.4850000000  OAC       12              0.0000000000
      1175       102  OAC       DO1             6.0420000000        1.9680000000        4.4700000000  OAC       12              0.0000000000
      1176       102  OAC       O2              5.4090000000        4.1100000000        4.5380000000  OAC       12              0.0000000000
      1177       102  OAC       DO2             5.4150000000        4.1130000000        4.5550000000  OAC       12              0.0000000000
      1178       102  OAC       H               5.1060000000        3.8650000000        3.6450000000  OAC       12              0.0000000000
      1179       102  OAC       LPO1            5.9210000000        2.0520000000        4.2460000000  OAC       12              0.0000000000
      1180       102  OAC       LPO1            6.1980000000        1.8070000000        4.7190000000  OAC       12              0.0000000000
      1181       102  OAC       LPO2            5.0670000000        4.1260000000        4.6160000000  OAC       12              0.0000000000
      1182       102  OAC       LPO2            5.6460000000        4.3050000000        4.3710000000  OAC       12              0.0000000000
      1183       103  OAC       C1              5.1850000000       -5.9820000000        7.8760000000  OAC       13              0.0000000000
      1184       103  OAC       DC1             5.1810000000       -5.9750000000        7.8810000000  OAC       13              0.0000000000
      1185       103  OAC       C2              4.8420000000       -4.5310000000        7.8520000000  OAC       13              0.0000000000
      1186       103  OAC       DC2             4.8510000000       -4.5570000000        7.8450000000  OAC       13              0.0000000000
      1187       103  OAC       H1              5.7670000000       -3.9310000000        7.7270000000  OAC       13              0.0000000000
      1188       103  OAC       H2              4.3440000000       -4.2350000000        8.7990000000  OAC       13              0.0000000000
      1189       103  OAC       H3              4.1570000000       -4.3230000000        7.0030000000  OAC       13              0.0000000000
      1190       103  OAC       O1              4.9630000000       -6.7610000000        8.7930000000  OAC       13              0.0000000000
      1191       103  OAC       DO1             4.9810000000       -6.7710000000        8.7590000000  OAC       13              0.0000000000
      1192       103  OAC       O2              5.7970000000       -6.3610000000        6.7180000000  OAC       13              0.0000000000
      1193       103  OAC       DO2             5.7930000000       -6.3430000000        6.7180000000  OAC       13              0.0000000000
      1194       103  OAC       H               5.9930000000       -7.3120000000        6.7990000000  OAC       13              0.0000000000
      1195       103  OAC       LPO1            5.0870000000       -6.9860000000        8.6390000000  OAC       13              0.0000000000
      1196       103  OAC       LPO1            4.8370000000       -6.5420000000        8.9560000000  OAC       13              0.0000000000
      1197       103  OAC       LPO2            5.5620000000       -6.4610000000        6.4790000000  OAC       13              0.0000000000
      1198       103  OAC       LPO2            6.1440000000       -6.3190000000        6.7400000000  OAC       13              0.0000000000
      1199       104  OAC       C1             -7.7330000000        7.0600000000       -4.5410000000  OAC       14              0.0000000000
      1200       104  OAC       DC1            -7.7290000000        7.0660000000       -4.5350000000  OAC       14              0.0000000000
      1201       104  OAC       C2             -8.0600000000        8.1670000000       -3.5970000000  OAC       14              0.0000000000
      1202       104  OAC       DC2            -8.0620000000        8.1470000000       -3.6160000000  OAC       14              0.0000000000
      1203       104  OAC       H1             -8.5730000000        8.9850000000       -4.1450000000  OAC       14              0.0000000000
      1204       104  OAC       H2             -7.1340000000        8.5680000000       -3.1340000000  OAC       14              0.0000000000
      1205       104  OAC       H3             -8.7310000000        7.7900000000       -2.7970000000  OAC       14              0.0000000000
      1206       104  OAC       O1             -6.6150000000        6.6310000000       -4.7900000000  OAC       14              0.0000000000
      1207       104  OAC       DO1            -6.6480000000        6.6170000000       -4.8060000000  OAC       14              0.0000000000
      1208       104  OAC       O2             -8.8610000000        6.5580000000       -5.1180000000  OAC       14              0.0000000000
      1209       104  OAC       DO2            -8.8650000000        6.5710000000       -5.1060000000  OAC       14              0.0000000000
      1210       104  OAC       H              -8.5780000000        5.8440000000       -5.7180000000  OAC       14              0.0000000000
      1211       104  OAC       LPO1           -6.7280000000        6.4300000000       -4.9810000000  OAC       14              0.0000000000
      1212       104  OAC       LPO1           -6.4900000000        6.8280000000       -4.6000000000  OAC       14              0.0000000000
      1213       104  OAC       LPO2           -8.9960000000        6.2990000000       -4.9240000000  OAC       14              0.0000000000
      1214       104  OAC       LPO2           -8.9400000000        6.7310000000       -5.4120000000  OAC       14              0.0000000000
      1215       105  OAC       C1             -5.0920000000        7.0770000000       -5.1970000000  OAC       15              0.0000000000
      1216       105  OAC       DC1            -5.0880000000        7.0860000000       -5.1940000000  OAC       15              0.0000000000
      1217       105  OAC       C2             -4.5030000000        8.3650000000       -5.6650000000  OAC       15              0.0000000000
      1218       105  OAC       DC2            -4.5150000000        8.3400000000       -5.6640000000  OAC       15              0.0000000000
      1219       105  OAC       H1             -3.5980000000        8.1630000000       -6.2740000000  OAC       15              0.0000000000
      1220       105  OAC       H2             -4.2220000000        9.0000000000       -4.7990000000  OAC       15              0.0000000000
      1221       105  OAC       H3             -5.2440000000        8.9100000000       -6.2870000000  OAC       15              0.0000000000
      1222       105  OAC       O1             -5.2550000000        6.7390000000       -4.0330000000  OAC       15              0.0000000000
      1223       105  OAC       DO1            -5.2640000000        6.7170000000       -4.0640000000  OAC       15              0.0000000000
      1224       105  OAC       O2             -5.4430000000        6.2870000000       -6.2510000000  OAC       15              0.0000000000
      1225       105  OAC       DO2            -5.4360000000        6.3030000000       -6.2560000000  OAC       15              0.0000000000
      1226       105  OAC       H              -5.8170000000        5.4680000000       -5.8780000000  OAC       15              0.0000000000
      1227       105  OAC       LPO1           -5.3730000000        6.4780000000       -4.1200000000  OAC       15              0.0000000000
      1228       105  OAC       LPO1           -5.1370000000        6.9980000000       -3.9350000000  OAC       15              0.0000000000
      1229       105  OAC       LPO2           -5.7710000000        6.3540000000       -6.3540000000  OAC       15              0.0000000000
      1230       105  OAC       LPO2           -5.1760000000        6.0830000000       -6.3490000000  OAC       15              0.0000000000
      1231       106  OAC       C1              0.7590000000       -3.4040000000        2.4850000000  OAC       16              0.0000000000
      1232       106  OAC       DC1             0.7670000000       -3.3980000000        2.4870000000  OAC       16              0.0000000000
      1233       106  OAC       C2              2.0210000000       -2.8600000000        1.9060000000  OAC       16              0.0000000000
      1234       106  OAC       DC2             1.9970000000       -2.8740000000        1.9090000000  OAC       16              0.0000000000
      1235       106  OAC       H1              2.7270000000       -3.6910000000        1.7000000000  OAC       16              0.0000000000
      1236       106  OAC       H2              2.4970000000       -2.1480000000        2.6120000000  OAC       16              0.0000000000
      1237       106  OAC       H3              1.7980000000       -2.3300000000        0.9550000000  OAC       16              0.0000000000
      1238       106  OAC       O1              0.2900000000       -3.1250000000        3.5800000000  OAC       16              0.0000000000
      1239       106  OAC       DO1             0.2730000000       -3.1510000000        3.5540000000  OAC       16              0.0000000000
      1240       106  OAC       O2              0.1630000000       -4.2790000000        1.6280000000  OAC       16              0.0000000000
      1241       106  OAC       DO2             0.1780000000       -4.2720000000        1.6210000000  OAC       16              0.0000000000
      1242       106  OAC       H              -0.6490000000       -4.5950000000        2.0640000000  OAC       16              0.0000000000
      1243       106  OAC       LPO1            0.0580000000       -3.3090000000        3.5330000000  OAC       16              0.0000000000
      1244       106  OAC       LPO1            0.5180000000       -2.9390000000        3.6370000000  OAC       16              0.0000000000
      1245       106  OAC       LPO2           -0.0560000000       -4.1120000000        1.4100000000  OAC       16              0.0000000000
      1246       106  OAC       LPO2            0.2800000000       -4.6050000000        1.6790000000  OAC       16              0.0000000000
      1247       107  OAC       C1             -5.3450000000        0.0880000000        7.0180000000  OAC       17              0.0000000000
      1248       107  OAC       DC1            -5.3480000000        0.0940000000        7.0250000000  OAC       17              0.0000000000
      1249       107  OAC       C2             -5.3680000000        0.2180000000        8.5030000000  OAC       17              0.0000000000
      1250       107  OAC       DC2            -5.3640000000        0.2080000000        8.4780000000  OAC       17              0.0000000000
      1251       107  OAC       H1             -5.9690000000       -0.6060000000        8.9410000000  OAC       17              0.0000000000
      1252       107  OAC       H2             -5.8160000000        1.1890000000        8.8010000000  OAC       17              0.0000000000
      1253       107  OAC       H3             -4.3320000000        0.1600000000        8.9000000000  OAC       17              0.0000000000
      1254       107  OAC       O1             -5.7530000000        0.9150000000        6.2150000000  OAC       17              0.0000000000
      1255       107  OAC       DO1            -5.7370000000        0.8800000000        6.2050000000  OAC       17              0.0000000000
      1256       107  OAC       O2             -4.7970000000       -1.1010000000        6.6380000000  OAC       17              0.0000000000
      1257       107  OAC       DO2            -4.7970000000       -1.0990000000        6.6560000000  OAC       17              0.0000000000
      1258       107  OAC       H              -4.8130000000       -1.1210000000        5.6640000000  OAC       17              0.0000000000
      1259       107  OAC       LPO1           -5.6760000000        0.7390000000        5.9860000000  OAC       17              0.0000000000
      1260       107  OAC       LPO1           -5.8340000000        1.1000000000        6.4380000000  OAC       17              0.0000000000
      1261       107  OAC       LPO2           -4.4500000000       -1.0730000000        6.6010000000  OAC       17              0.0000000000
      1262       107  OAC       LPO2           -5.0420000000       -1.3500000000        6.6160000000  OAC       17              0.0000000000
      1263       108  OAC       C1             -7.5340000000        8.6310000000       -7.8820000000  OAC       18              0.0000000000
      1264       108  OAC       DC1            -7.5420000000        8.6290000000       -7.8760000000  OAC       18              0.0000000000
      1265       108  OAC       C2             -7.8760000000        8.2050000000       -6.4940000000  OAC       18              0.0000000000
      1266       108  OAC       DC2            -7.8620000000        8.2120000000       -6.5170000000  OAC       18              0.0000000000
      1267       108  OAC       H1             -7.4660000000        7.1910000000       -6.3030000000  OAC       18              0.0000000000
      1268       108  OAC       H2             -8.9780000000        8.1810000000       -6.3560000000  OAC       18              0.0000000000
      1269       108  OAC       H3             -7.4360000000        8.9180000000       -5.7650000000  OAC       18              0.0000000000
      1270       108  OAC       O1             -8.3300000000        8.9200000000       -8.7640000000  OAC       18              0.0000000000
      1271       108  OAC       DO1            -8.2910000000        8.9210000000       -8.7690000000  OAC       18              0.0000000000
      1272       108  OAC       O2             -6.1840000000        8.6650000000       -8.0660000000  OAC       18              0.0000000000
      1273       108  OAC       DO2            -6.1890000000        8.6600000000       -8.0490000000  OAC       18              0.0000000000
      1274       108  OAC       H              -6.0310000000        8.9490000000       -8.9860000000  OAC       18              0.0000000000
      1275       108  OAC       LPO1           -8.1060000000        8.9760000000       -8.9560000000  OAC       18              0.0000000000
      1276       108  OAC       LPO1           -8.5620000000        8.8670000000       -8.5810000000  OAC       18              0.0000000000
      1277       108  OAC       LPO2           -6.0540000000        8.9790000000       -7.9800000000  OAC       18              0.0000000000
      1278       108  OAC       LPO2           -6.0650000000        8.3550000000       -8.1740000000  OAC       18              0.0000000000
      1279       109  OAC       C1             -5.5110000000       -3.8930000000       -8.6250000000  OAC       19              0.0000000000
      1280       109  OAC       DC1            -5.5010000000       -3.8950000000       -8.6240000000  OAC       19              0.0000000000
      1281       109  OAC       C2             -4.5610000000       -4.9870000000       -8.2740000000  OAC       19              0.0000000000
      1282       109  OAC       DC2            -4.5840000000       -4.9730000000       -8.2790000000  OAC       19              0.0000000000
      1283       109  OAC       H1             -4.7860000000       -5.3660000000       -7.2550000000  OAC       19              0.0000000000
      1284       109  OAC       H2             -3.5150000000       -4.6150000000       -8.2980000000  OAC       19              0.0000000000
      1285       109  OAC       H3             -4.6650000000       -5.8200000000       -9.0010000000  OAC       19              0.0000000000
      1286       109  OAC       O1             -5.2120000000       -2.7400000000       -8.9040000000  OAC       19              0.0000000000
      1287       109  OAC       DO1            -5.2490000000       -2.7540000000       -8.9030000000  OAC       19              0.0000000000
      1288       109  OAC       O2             -6.8000000000       -4.3350000000       -8.6000000000  OAC       19              0.0000000000
      1289       109  OAC       DO2            -6.7880000000       -4.3490000000       -8.5960000000  OAC       19              0.0000000000
      1290       109  OAC       H              -7.3640000000       -3.5770000000       -8.8360000000  OAC       19              0.0000000000
      1291       109  OAC       LPO1           -5.5000000000       -2.6690000000       -8.9430000000  OAC       19              0.0000000000
      1292       109  OAC       LPO1           -4.9200000000       -2.8010000000       -8.8680000000  OAC       19              0.0000000000
      1293       109  OAC       LPO2           -6.8940000000       -4.4640000000       -8.9120000000  OAC       19              0.0000000000
      1294       109  OAC       LPO2           -6.9380000000       -4.2990000000       -8.2810000000  OAC       19              0.0000000000
      1295       110  OAC       C1              1.7860000000        7.7240000000       -1.3880000000  OAC       20              0.0000000000
      1296       110  OAC       DC1             1.7920000000        7.7200000000       -1.3830000000  OAC       20              0.0000000000
      1297       110  OAC       C2              2.2860000000        6.3640000000       -1.0410000000  OAC       20              0.0000000000
      1298       110  OAC       DC2             2.2710000000        6.3840000000       -1.0520000000  OAC       20              0.0000000000
      1299       110  OAC       H1              1.4640000000        5.7670000000       -0.5930000000  OAC       20              0.0000000000
      1300       110  OAC       H2              3.1210000000        6.4320000000       -0.3120000000  OAC       20              0.0000000000
      1301       110  OAC       H3              2.6470000000        5.8520000000       -1.9580000000  OAC       20              0.0000000000
      1302       110  OAC       O1              2.2130000000        8.7840000000       -0.9510000000  OAC       20              0.0000000000
      1303       110  OAC       DO1             2.1830000000        8.7810000000       -0.9770000000  OAC       20              0.0000000000
      1304       110  OAC       O2              0.7590000000        7.6560000000       -2.2830000000  OAC       20              0.0000000000
      1305       110  OAC       DO2             0.7660000000        7.6400000000       -2.2790000000  OAC       20              0.0000000000
      1306       110  OAC       H               0.4820000000        8.5720000000       -2.4650000000  OAC       20              0.0000000000
      1307       110  OAC       LPO1            2.0140000000        8.9380000000       -1.1140000000  OAC       20              0.0000000000
      1308       110  OAC       LPO1            2.4170000000        8.6390000000       -0.7840000000  OAC       20              0.0000000000
      1309       110  OAC       LPO2            0.8790000000        7.6600000000       -2.6120000000  OAC       20              0.0000000000
      1310       110  OAC       LPO2            0.4510000000        7.6290000000       -2.1190000000  OAC       20              0.0000000000
      1311       111  OAC       C1             -4.3850000000       -7.4830000000       -8.0930000000  OAC       21              0.0000000000
      1312       111  OAC       DC1            -4.3940000000       -7.4790000000       -8.0920000000  OAC       21              0.0000000000
      1313       111  OAC       C2             -5.7010000000       -7.6790000000       -7.4200000000  OAC       21              0.0000000000
      1314       111  OAC       DC2            -5.6750000000       -7.6830000000       -7.4290000000  OAC       21              0.0000000000
      1315       111  OAC       H1             -6.2060000000       -8.5740000000       -7.8390000000  OAC       21              0.0000000000
      1316       111  OAC       H2             -6.3510000000       -6.7920000000       -7.5740000000  OAC       21              0.0000000000
      1317       111  OAC       H3             -5.5450000000       -7.8270000000       -6.3300000000  OAC       21              0.0000000000
      1318       111  OAC       O1             -4.0410000000       -6.4980000000       -8.7320000000  OAC       21              0.0000000000
      1319       111  OAC       DO1            -4.0180000000       -6.5300000000       -8.7260000000  OAC       21              0.0000000000
      1320       111  OAC       O2             -3.5750000000       -8.5640000000       -7.9120000000  OAC       21              0.0000000000
      1321       111  OAC       DO2            -3.5910000000       -8.5660000000       -7.9040000000  OAC       21              0.0000000000
      1322       111  OAC       H              -2.7390000000       -8.3720000000       -8.3740000000  OAC       21              0.0000000000
      1323       111  OAC       LPO1           -3.7730000000       -6.6210000000       -8.7880000000  OAC       21              0.0000000000
      1324       111  OAC       LPO1           -4.3060000000       -6.3660000000       -8.6820000000  OAC       21              0.0000000000
      1325       111  OAC       LPO2           -3.3860000000       -8.5310000000       -7.6190000000  OAC       21              0.0000000000
      1326       111  OAC       LPO2           -3.6240000000       -8.8010000000       -8.1650000000  OAC       21              0.0000000000
      1327       112  OAC       C1             -3.3430000000        4.2070000000        2.3590000000  OAC       22              0.0000000000
      1328       112  OAC       DC1            -3.3500000000        4.2010000000        2.3620000000  OAC       22              0.0000000000
      1329       112  OAC       C2             -4.6870000000        4.1770000000        3.0020000000  OAC       22              0.0000000000
      1330       112  OAC       DC2            -4.6630000000        4.1860000000        2.9920000000  OAC       22              0.0000000000
      1331       112  OAC       H1             -4.6170000000        4.5780000000        4.0350000000  OAC       22              0.0000000000
      1332       112  OAC       H2             -5.0750000000        3.1380000000        3.0430000000  OAC       22              0.0000000000
      1333       112  OAC       H3             -5.3950000000        4.8040000000        2.4180000000  OAC       22              0.0000000000
      1334       112  OAC       O1             -2.7280000000        3.2410000000        1.9280000000  OAC       22              0.0000000000
      1335       112  OAC       DO1            -2.7140000000        3.2780000000        1.9270000000  OAC       22              0.0000000000
      1336       112  OAC       O2             -2.8540000000        5.4780000000        2.3010000000  OAC       22              0.0000000000
      1337       112  OAC       DO2            -2.8700000000        5.4770000000        2.3080000000  OAC       22              0.0000000000
      1338       112  OAC       H              -1.9800000000        5.4260000000        1.8730000000  OAC       22              0.0000000000
      1339       112  OAC       LPO1           -2.5000000000        3.4170000000        1.8430000000  OAC       22              0.0000000000
      1340       112  OAC       LPO1           -2.9500000000        3.0560000000        2.0100000000  OAC       22              0.0000000000
      1341       112  OAC       LPO2           -2.9550000000        5.6370000000        2.0060000000  OAC       22              0.0000000000
      1342       112  OAC       LPO2           -2.6730000000        5.5560000000        2.5900000000  OAC       22              0.0000000000
      1343       113  OAC       C1             -1.5120000000        5.6970000000       -7.6120000000  OAC       23              0.0000000000
      1344       113  OAC       DC1            -1.5150000000        5.6890000000       -7.6090000000  OAC       23              0.0000000000
      1345       113  OAC       C2             -2.5050000000        4.6150000000       -7.8690000000  OAC       23              0.0000000000
      1346       113  OAC       DC2            -2.4900000000        4.6390000000       -7.8710000000  OAC       23              0.0000000000
      1347       113  OAC       H1             -3.5290000000        5.0450000000       -7.8920000000  OAC       23              0.0000000000
      1348       113  OAC       H2             -2.4550000000        3.8450000000       -7.0710000000  OAC       23              0.0000000000
      1349       113  OAC       H3             -2.2920000000        4.1360000000       -8.8480000000  OAC       23              0.0000000000
      1350       113  OAC       O1             -0.7380000000        5.7560000000       -6.6670000000  OAC       23              0.0000000000
      1351       113  OAC       DO1            -0.7400000000        5.7840000000       -6.6960000000  OAC       23              0.0000000000
      1352       113  OAC       O2             -1.5620000000        6.6510000000       -8.5850000000  OAC       23              0.0000000000
      1353       113  OAC       DO2            -1.5740000000        6.6370000000       -8.5880000000  OAC       23              0.0000000000
      1354       113  OAC       H              -0.8940000000        7.3220000000       -8.3580000000  OAC       23              0.0000000000
      1355       113  OAC       LPO1           -0.6260000000        6.0150000000       -6.7680000000  OAC       23              0.0000000000
      1356       113  OAC       LPO1           -0.8440000000        5.4970000000       -6.5570000000  OAC       23              0.0000000000
      1357       113  OAC       LPO2           -1.3470000000        6.5710000000       -8.8500000000  OAC       23              0.0000000000
      1358       113  OAC       LPO2           -1.7950000000        6.9000000000       -8.5050000000  OAC       23              0.0000000000
      1359       114  OAC       C1             -7.7350000000       -1.9590000000       -6.0730000000  OAC       24              0.0000000000
      1360       114  OAC       DC1            -7.7280000000       -1.9550000000       -6.0670000000  OAC       24              0.0000000000
      1361       114  OAC       C2             -7.0430000000       -0.6720000000       -5.7740000000  OAC       24              0.0000000000
      1362       114  OAC       DC2            -7.0600000000       -0.6920000000       -5.7860000000  OAC       24              0.0000000000
      1363       114  OAC       H1             -6.4330000000       -0.3640000000       -6.6480000000  OAC       24              0.0000000000
      1364       114  OAC       H2             -6.3800000000       -0.7840000000       -4.8910000000  OAC       24              0.0000000000
      1365       114  OAC       H3             -7.7970000000        0.1160000000       -5.5630000000  OAC       24              0.0000000000
      1366       114  OAC       O1             -7.6090000000       -3.0060000000       -5.4520000000  OAC       24              0.0000000000
      1367       114  OAC       DO1            -7.6330000000       -3.0020000000       -5.4840000000  OAC       24              0.0000000000
      1368       114  OAC       O2             -8.5540000000       -1.8370000000       -7.1550000000  OAC       24              0.0000000000
      1369       114  OAC       DO2            -8.5460000000       -1.8220000000       -7.1510000000  OAC       24              0.0000000000
      1370       114  OAC       H              -8.9710000000       -2.7070000000       -7.2940000000  OAC       24              0.0000000000
      1371       114  OAC       LPO1           -7.8030000000       -3.1440000000       -5.6350000000  OAC       24              0.0000000000
      1372       114  OAC       LPO1           -7.4140000000       -2.8780000000       -5.2640000000  OAC       24              0.0000000000
      1373       114  OAC       LPO2           -8.8740000000       -1.7330000000       -7.0580000000  OAC       24              0.0000000000
      1374       114  OAC       LPO2           -8.3810000000       -1.9070000000       -7.4510000000  OAC       24              0.0000000000
      1375       115  OAC       C1             -5.8600000000       -7.7880000000        8.4990000000  OAC       25              0.0000000000
      1376       115  OAC       DC1            -5.8520000000       -7.7930000000        8.4970000000  OAC       25              0.0000000000
      1377       115  OAC       C2             -4.4910000000       -7.5630000000        7.9540000000  OAC       25              0.0000000000
      1378       115  OAC       DC2            -4.5170000000       -7.5590000000        7.9620000000  OAC       25              0.0000000000
      1379       115  OAC       H1             -4.5590000000       -7.2300000000        6.8970000000  OAC       25              0.0000000000
      1380       115  OAC       H2             -3.8960000000       -8.4990000000        8.0000000000  OAC       25              0.0000000000
      1381       115  OAC       H3             -3.9760000000       -6.7780000000        8.5490000000  OAC       25              0.0000000000
      1382       115  OAC       O1             -6.2960000000       -8.8420000000        8.9410000000  OAC       25              0.0000000000
      1383       115  OAC       DO1            -6.3170000000       -8.8080000000        8.9390000000  OAC       25              0.0000000000
      1384       115  OAC       O2             -6.6020000000       -6.6460000000        8.4490000000  OAC       25              0.0000000000
      1385       115  OAC       DO2            -6.5860000000       -6.6430000000        8.4430000000  OAC       25              0.0000000000
      1386       115  OAC       H              -7.4790000000       -6.8610000000        8.8170000000  OAC       25              0.0000000000
      1387       115  OAC       LPO1           -6.5610000000       -8.7140000000        9.0000000000  OAC       25              0.0000000000
      1388       115  OAC       LPO1           -6.0350000000       -8.9800000000        8.8860000000  OAC       25              0.0000000000
      1389       115  OAC       LPO2           -6.5600000000       -6.4560000000        8.7410000000  OAC       25              0.0000000000
      1390       115  OAC       LPO2           -6.7710000000       -6.6190000000        8.1440000000  OAC       25              0.0000000000
      1391       116  OAC       C1              4.5010000000        5.9840000000       -3.6940000000  OAC       26              0.0000000000
      1392       116  OAC       DC1             4.4980000000        5.9870000000       -3.6860000000  OAC       26              0.0000000000
      1393       116  OAC       C2              5.0140000000        6.7690000000       -2.5360000000  OAC       26              0.0000000000
      1394       116  OAC       DC2             5.0130000000        6.7560000000       -2.5600000000  OAC       26              0.0000000000
      1395       116  OAC       H1              5.8780000000        6.2410000000       -2.0800000000  OAC       26              0.0000000000
      1396       116  OAC       H2              4.2210000000        6.8940000000       -1.7690000000  OAC       26              0.0000000000
      1397       116  OAC       H3              5.3450000000        7.7720000000       -2.8820000000  OAC       26              0.0000000000
      1398       116  OAC       O1              3.3710000000        5.5280000000       -3.8130000000  OAC       26              0.0000000000
      1399       116  OAC       DO1             3.4000000000        5.5240000000       -3.8400000000  OAC       26              0.0000000000
      1400       116  OAC       O2              5.4640000000        5.8220000000       -4.6440000000  OAC       26              0.0000000000
      1401       116  OAC       DO2             5.4700000000        5.8320000000       -4.6310000000  OAC       26              0.0000000000
      1402       116  OAC       H               5.0660000000        5.3040000000       -5.3670000000  OAC       26              0.0000000000
      1403       116  OAC       LPO1            3.4400000000        5.4120000000       -4.0800000000  OAC       26              0.0000000000
      1404       116  OAC       LPO1            3.2920000000        5.6400000000       -3.5450000000  OAC       26              0.0000000000
      1405       116  OAC       LPO2            5.4600000000        6.0870000000       -4.8740000000  OAC       26              0.0000000000
      1406       116  OAC       LPO2            5.6530000000        5.5340000000       -4.5840000000  OAC       26              0.0000000000
      1407       117  OAC       C1             -0.3300000000        5.5280000000       -3.3700000000  OAC       27              0.0000000000
      1408       117  OAC       DC1            -0.3230000000        5.5340000000       -3.3720000000  OAC       27              0.0000000000
      1409       117  OAC       C2             -0.1020000000        6.9070000000       -3.8870000000  OAC       27              0.0000000000
      1410       117  OAC       DC2            -0.1140000000        6.8840000000       -3.8790000000  OAC       27              0.0000000000
      1411       117  OAC       H1             -0.4760000000        6.9820000000       -4.9300000000  OAC       27              0.0000000000
      1412       117  OAC       H2              0.9810000000        7.1520000000       -3.8730000000  OAC       27              0.0000000000
      1413       117  OAC       H3             -0.6470000000        7.6390000000       -3.2530000000  OAC       27              0.0000000000
      1414       117  OAC       O1              0.5320000000        4.7520000000       -2.9780000000  OAC       27              0.0000000000
      1415       117  OAC       DO1             0.4930000000        4.7440000000       -2.9790000000  OAC       27              0.0000000000
      1416       117  OAC       O2             -1.6560000000        5.2120000000       -3.3810000000  OAC       27              0.0000000000
      1417       117  OAC       DO2            -1.6530000000        5.2290000000       -3.3870000000  OAC       27              0.0000000000
      1418       117  OAC       H              -1.7340000000        4.3050000000       -3.0340000000  OAC       27              0.0000000000
      1419       117  OAC       LPO1            0.3240000000        4.5440000000       -2.9180000000  OAC       27              0.0000000000
      1420       117  OAC       LPO1            0.7470000000        4.9540000000       -3.0360000000  OAC       27              0.0000000000
      1421       117  OAC       LPO2           -1.8100000000        5.3070000000       -3.0810000000  OAC       27              0.0000000000
      1422       117  OAC       LPO2           -1.7480000000        5.0700000000       -3.6870000000  OAC       27              0.0000000000
      1423       118  OAC       C1              4.5000000000       -8.6130000000       -6.8390000000  OAC       28              0.0000000000
      1424       118  OAC       DC1             4.5000000000       -8.6130000000       -6.8490000000  OAC       28              0.0000000000
      1425       118  OAC       C2              5.4140000000       -8.3410000000       -7.9850000000  OAC       28              0.0000000000
      1426       118  OAC       DC2             5.4040000000       -8.3430000000       -7.9590000000  OAC       28              0.0000000000
      1427       118  OAC       H1              5.7430000000       -7.2810000000       -7.9570000000  OAC       28              0.0000000000
      1428       118  OAC       H2              4.8970000000       -8.5330000000       -8.9480000000  OAC       28              0.0000000000
      1429       118  OAC       H3              6.3070000000       -8.9980000000       -7.9150000000  OAC       28              0.0000000000
      1430       118  OAC       O1              3.3400000000       -8.9950000000       -6.9170000000  OAC       28              0.0000000000
      1431       118  OAC       DO1             3.3590000000       -8.9880000000       -6.8830000000  OAC       28              0.0000000000
      1432       118  OAC       O2              5.1220000000       -8.3800000000       -5.6490000000  OAC       28              0.0000000000
      1433       118  OAC       DO2             5.1330000000       -8.3770000000       -5.6630000000  OAC       28              0.0000000000
      1434       118  OAC       H               4.4740000000       -8.5760000000       -4.9480000000  OAC       28              0.0000000000
      1435       118  OAC       LPO1            3.3150000000       -8.9960000000       -6.6180000000  OAC       28              0.0000000000
      1436       118  OAC       LPO1            3.3550000000       -8.9970000000       -7.2170000000  OAC       28              0.0000000000
      1437       118  OAC       LPO2            5.2860000000       -8.6680000000       -5.5350000000  OAC       28              0.0000000000
      1438       118  OAC       LPO2            5.0820000000       -8.0470000000       -5.5500000000  OAC       28              0.0000000000
      1439       119  OAC       C1              7.0480000000       -3.6830000000       -7.8980000000  OAC       29              0.0000000000
      1440       119  OAC       DC1             7.0480000000       -3.6760000000       -7.8930000000  OAC       29              0.0000000000
      1441       119  OAC       C2              6.7190000000       -3.2240000000       -6.5190000000  OAC       29              0.0000000000
      1442       119  OAC       DC2             6.7230000000       -3.2400000000       -6.5410000000  OAC       29              0.0000000000
      1443       119  OAC       H1              5.6420000000       -3.3980000000       -6.3140000000  OAC       29              0.0000000000
      1444       119  OAC       H2              6.9380000000       -2.1420000000       -6.4070000000  OAC       29              0.0000000000
      1445       119  OAC       H3              7.3250000000       -3.7930000000       -5.7810000000  OAC       29              0.0000000000
      1446       119  OAC       O1              7.4970000000       -2.9910000000       -8.8010000000  OAC       29              0.0000000000
      1447       119  OAC       DO1             7.4890000000       -3.0290000000       -8.8050000000  OAC       29              0.0000000000
      1448       119  OAC       O2              6.7850000000       -5.0120000000       -8.0500000000  OAC       29              0.0000000000
      1449       119  OAC       DO2             6.7810000000       -5.0060000000       -8.0330000000  OAC       29              0.0000000000
      1450       119  OAC       H               7.0200000000       -5.2450000000       -8.9660000000  OAC       29              0.0000000000
      1451       119  OAC       LPO1            7.5010000000       -3.2260000000       -8.9870000000  OAC       29              0.0000000000
      1452       119  OAC       LPO1            7.4970000000       -2.7490000000       -8.6230000000  OAC       29              0.0000000000
      1453       119  OAC       LPO2            7.0630000000       -5.2060000000       -7.9620000000  OAC       29              0.0000000000
      1454       119  OAC       LPO2            6.4550000000       -5.0630000000       -8.1540000000  OAC       29              0.0000000000
      1455       120  OAC       C1             -7.8790000000       -0.2940000000       -8.5290000000  OAC       30              0.0000000000
      1456       120  OAC       DC1            -7.8850000000       -0.2870000000       -8.5280000000  OAC       30              0.0000000000
      1457       120  OAC       C2             -7.9620000000        1.1360000000       -8.1170000000  OAC       30              0.0000000000
      1458       120  OAC       DC2            -7.9520000000        1.1110000000       -8.1230000000  OAC       30              0.0000000000
      1459       120  OAC       H1             -7.6800000000        1.2350000000       -7.0480000000  OAC       30              0.0000000000
      1460       120  OAC       H2             -8.9940000000        1.5210000000       -8.2560000000  OAC       30              0.0000000000
      1461       120  OAC       H3             -7.2640000000        1.7430000000       -8.7330000000  OAC       30              0.0000000000
      1462       120  OAC       O1             -8.7990000000       -0.9750000000       -8.9620000000  OAC       30              0.0000000000
      1463       120  OAC       DO1            -8.7620000000       -0.9880000000       -8.9560000000  OAC       30              0.0000000000
      1464       120  OAC       O2             -6.6160000000       -0.7800000000       -8.3640000000  OAC       30              0.0000000000
      1465       120  OAC       DO2            -6.6170000000       -0.7630000000       -8.3590000000  OAC       30              0.0000000000
      1466       120  OAC       H              -6.6320000000       -1.7120000000       -8.6490000000  OAC       30              0.0000000000
      1467       120  OAC       LPO1           -8.6180000000       -1.2120000000       -8.9890000000  OAC       30              0.0000000000
      1468       120  OAC       LPO1           -8.9890000000       -0.7430000000       -8.9380000000  OAC       30              0.0000000000
      1469       120  OAC       LPO2           -6.4230000000       -0.7280000000       -8.6510000000  OAC       30              0.0000000000
      1470       120  OAC       LPO2           -6.5740000000       -0.9120000000       -8.0420000000  OAC       30              0.0000000000
      1471       121  OAC       C1              0.8710000000        8.4640000000        2.5190000000  OAC       31              0.0000000000
      1472       121  OAC       DC1             0.8800000000        8.4620000000        2.5210000000  OAC       31              0.0000000000
      1473       121  OAC       C2              1.6950000000        7.8140000000        3.5780000000  OAC       31              0.0000000000
      1474       121  OAC       DC2             1.6730000000        7.8250000000        3.5640000000  OAC       31              0.0000000000
      1475       121  OAC       H1              1.6490000000        8.4170000000        4.5100000000  OAC       31              0.0000000000
      1476       121  OAC       H2              2.7530000000        7.7340000000        3.2520000000  OAC       31              0.0000000000
      1477       121  OAC       H3              1.3010000000        6.7960000000        3.7860000000  OAC       31              0.0000000000
      1478       121  OAC       O1              1.2740000000        8.8630000000        1.4350000000  OAC       31              0.0000000000
      1479       121  OAC       DO1             1.2360000000        8.8650000000        1.4470000000  OAC       31              0.0000000000
      1480       121  OAC       O2             -0.4320000000        8.5700000000        2.9060000000  OAC       31              0.0000000000
      1481       121  OAC       DO2            -0.4220000000        8.5620000000        2.9180000000  OAC       31              0.0000000000
      1482       121  OAC       H              -0.9100000000        9.0000000000        2.1740000000  OAC       31              0.0000000000
      1483       121  OAC       LPO1            0.9990000000        8.9550000000        1.3600000000  OAC       31              0.0000000000
      1484       121  OAC       LPO1            1.5540000000        8.7740000000        1.5000000000  OAC       31              0.0000000000
      1485       121  OAC       LPO2           -0.6130000000        8.2840000000        2.8150000000  OAC       31              0.0000000000
      1486       121  OAC       LPO2           -0.4880000000        8.8700000000        3.0770000000  OAC       31              0.0000000000
      1487       122  OAC       C1             -2.3180000000        1.5450000000       -7.4020000000  OAC       32              0.0000000000
      1488       122  OAC       DC1            -2.3160000000        1.5410000000       -7.3940000000  OAC       32              0.0000000000
      1489       122  OAC       C2             -1.1650000000        0.8030000000       -6.8180000000  OAC       32              0.0000000000
      1490       122  OAC       DC2            -1.1810000000        0.8170000000       -6.8350000000  OAC       32              0.0000000000
      1491       122  OAC       H1             -0.9350000000       -0.0840000000       -7.4450000000  OAC       32              0.0000000000
      1492       122  OAC       H2             -1.4040000000        0.4640000000       -5.7880000000  OAC       32              0.0000000000
      1493       122  OAC       H3             -0.2730000000        1.4640000000       -6.7840000000  OAC       32              0.0000000000
      1494       122  OAC       O1             -3.3880000000        1.7670000000       -6.8510000000  OAC       32              0.0000000000
      1495       122  OAC       DO1            -3.3790000000        1.7790000000       -6.8880000000  OAC       32              0.0000000000
      1496       122  OAC       O2             -2.0400000000        1.9670000000       -8.6680000000  OAC       32              0.0000000000
      1497       122  OAC       DO2            -2.0260000000        1.9590000000       -8.6610000000  OAC       32              0.0000000000
      1498       122  OAC       H              -2.8290000000        2.4410000000       -8.9890000000  OAC       32              0.0000000000
      1499       122  OAC       LPO1           -3.4880000000        1.9140000000       -7.0930000000  OAC       32              0.0000000000
      1500       122  OAC       LPO1           -3.2970000000        1.6220000000       -6.6040000000  OAC       32              0.0000000000
      1501       122  OAC       LPO2           -1.8890000000        2.2840000000       -8.6640000000  OAC       32              0.0000000000
      1502       122  OAC       LPO2           -2.1280000000        1.7240000000       -8.9040000000  OAC       32              0.0000000000
      1503       123  OAC       C1             -8.1150000000       -5.1600000000       -6.5080000000  OAC       33              0.0000000000
      1504       123  OAC       DC1            -8.1130000000       -5.1650000000       -6.5160000000  OAC       33              0.0000000000
      1505       123  OAC       C2             -7.4970000000       -6.4190000000       -7.0160000000  OAC       33              0.0000000000
      1506       123  OAC       DC2            -7.5060000000       -6.3990000000       -6.9990000000  OAC       33              0.0000000000
      1507       123  OAC       H1             -6.4260000000       -6.4520000000       -6.7270000000  OAC       33              0.0000000000
      1508       123  OAC       H2             -7.5750000000       -6.4700000000       -8.1220000000  OAC       33              0.0000000000
      1509       123  OAC       H3             -8.0190000000       -7.2950000000       -6.5760000000  OAC       33              0.0000000000
      1510       123  OAC       O1             -8.6400000000       -4.2890000000       -7.1870000000  OAC       33              0.0000000000
      1511       123  OAC       DO1            -8.6370000000       -4.2880000000       -7.1480000000  OAC       33              0.0000000000
      1512       123  OAC       O2             -8.0270000000       -5.0840000000       -5.1500000000  OAC       33              0.0000000000
      1513       123  OAC       DO2            -8.0190000000       -5.0990000000       -5.1560000000  OAC       33              0.0000000000
      1514       123  OAC       H              -8.4450000000       -4.2440000000       -4.8860000000  OAC       33              0.0000000000
      1515       123  OAC       LPO1           -8.7020000000       -4.1280000000       -6.9420000000  OAC       33              0.0000000000
      1516       123  OAC       LPO1           -8.5820000000       -4.4430000000       -7.4390000000  OAC       33              0.0000000000
      1517       123  OAC       LPO2           -8.3040000000       -5.2340000000       -4.9980000000  OAC       33              0.0000000000
      1518       123  OAC       LPO2           -7.7280000000       -4.9300000000       -5.0520000000  OAC       33              0.0000000000
      1519       124  OAC       C1              1.1980000000        2.9530000000        1.8060000000  OAC       34              0.0000000000
      1520       124  OAC       DC1             1.1900000000        2.9510000000        1.8010000000  OAC       34              0.0000000000
      1521       124  OAC       C2              0.0430000000        2.0130000000        1.8710000000  OAC       34              0.0000000000
      1522       124  OAC       DC2             0.0670000000        2.0260000000        1.8760000000  OAC       34              0.0000000000
      1523       124  OAC       H1              0.3920000000        0.9780000000        1.6770000000  OAC       34              0.0000000000
      1524       124  OAC       H2             -0.7220000000        2.2850000000        1.1130000000  OAC       34              0.0000000000
      1525       124  OAC       H3             -0.4180000000        2.0570000000        2.8810000000  OAC       34              0.0000000000
      1526       124  OAC       O1              1.3170000000        3.8990000000        1.0380000000  OAC       34              0.0000000000
      1527       124  OAC       DO1             1.3440000000        3.8880000000        1.0650000000  OAC       34              0.0000000000
      1528       124  OAC       O2              2.1460000000        2.6320000000        2.7310000000  OAC       34              0.0000000000
      1529       124  OAC       DO2             2.1310000000        2.6200000000        2.7320000000  OAC       34              0.0000000000
      1530       124  OAC       H               2.8670000000        3.2790000000        2.6350000000  OAC       34              0.0000000000
      1531       124  OAC       LPO1            1.5840000000        3.9680000000        1.1560000000  OAC       34              0.0000000000
      1532       124  OAC       LPO1            1.0500000000        3.8380000000        0.9130000000  OAC       34              0.0000000000
      1533       124  OAC       LPO2            2.0830000000        2.7930000000        3.0360000000  OAC       34              0.0000000000
      1534       124  OAC       LPO2            2.3760000000        2.4020000000        2.6010000000  OAC       34              0.0000000000
      1535       125  OAC       C1             -6.2920000000        3.8960000000       -0.1080000000  OAC       35              0.0000000000
      1536       125  OAC       DC1            -6.2890000000        3.8870000000       -0.1100000000  OAC       35              0.0000000000
      1537       125  OAC       C2             -5.4770000000        2.8210000000        0.5250000000  OAC       35              0.0000000000
      1538       125  OAC       DC2            -5.4900000000        2.8440000000        0.5210000000  OAC       35              0.0000000000
      1539       125  OAC       H1             -4.4780000000        3.2200000000        0.7980000000  OAC       35              0.0000000000
      1540       125  OAC       H2             -5.3460000000        1.9690000000       -0.1750000000  OAC       35              0.0000000000
      1541       125  OAC       H3             -5.9850000000        2.4580000000        1.4450000000  OAC       35              0.0000000000
      1542       125  OAC       O1             -6.7650000000        3.8730000000       -1.2360000000  OAC       35              0.0000000000
      1543       125  OAC       DO1            -6.7690000000        3.9030000000       -1.2110000000  OAC       35              0.0000000000
      1544       125  OAC       O2             -6.4610000000        4.9490000000        0.7410000000  OAC       35              0.0000000000
      1545       125  OAC       DO2            -6.4510000000        4.9350000000        0.7490000000  OAC       35              0.0000000000
      1546       125  OAC       H              -6.9980000000        5.6100000000        0.2690000000  OAC       35              0.0000000000
      1547       125  OAC       LPO1           -6.8860000000        4.1440000000       -1.1970000000  OAC       35              0.0000000000
      1548       125  OAC       LPO1           -6.6480000000        3.6010000000       -1.2860000000  OAC       35              0.0000000000
      1549       125  OAC       LPO2           -6.7460000000        4.9050000000        0.9400000000  OAC       35              0.0000000000
      1550       125  OAC       LPO2           -6.2010000000        5.1810000000        0.7060000000  OAC       35              0.0000000000
      1551       126  OAC       C1             -4.4680000000       -8.2220000000       -3.9340000000  OAC       36              0.0000000000
      1552       126  OAC       DC1            -4.4650000000       -8.2200000000       -3.9430000000  OAC       36              0.0000000000
      1553       126  OAC       C2             -4.7880000000       -7.4610000000       -5.1760000000  OAC       36              0.0000000000
      1554       126  OAC       DC2            -4.7900000000       -7.4720000000       -5.1500000000  OAC       36              0.0000000000
      1555       126  OAC       H1             -5.7580000000       -7.8090000000       -5.5880000000  OAC       36              0.0000000000
      1556       126  OAC       H2             -3.9960000000       -7.6140000000       -5.9390000000  OAC       36              0.0000000000
      1557       126  OAC       H3             -4.8620000000       -6.3780000000       -4.9420000000  OAC       36              0.0000000000
      1558       126  OAC       O1             -3.4820000000       -8.9220000000       -3.7500000000  OAC       36              0.0000000000
      1559       126  OAC       DO1            -3.5110000000       -8.9160000000       -3.7240000000  OAC       36              0.0000000000
      1560       126  OAC       O2             -5.4330000000       -8.0440000000       -2.9870000000  OAC       36              0.0000000000
      1561       126  OAC       DO2            -5.4360000000       -8.0340000000       -3.0020000000  OAC       36              0.0000000000
      1562       126  OAC       H              -5.1640000000       -8.5640000000       -2.2080000000  OAC       36              0.0000000000
      1563       126  OAC       LPO1           -3.5750000000       -8.9890000000       -3.4730000000  OAC       36              0.0000000000
      1564       126  OAC       LPO1           -3.3810000000       -8.8610000000       -4.0270000000  OAC       36              0.0000000000
      1565       126  OAC       LPO2           -5.3620000000       -7.7650000000       -2.7870000000  OAC       36              0.0000000000
      1566       126  OAC       LPO2           -5.6860000000       -8.2830000000       -3.0200000000  OAC       36              0.0000000000
      1567       127  OAC       C1             -0.5150000000       -8.0900000000       -5.8460000000  OAC       37              0.0000000000
      1568       127  OAC       DC1            -0.5110000000       -8.0860000000       -5.8540000000  OAC       37              0.0000000000
      1569       127  OAC       C2              0.5570000000       -7.2100000000       -6.3940000000  OAC       37              0.0000000000
      1570       127  OAC       DC2             0.5400000000       -7.2240000000       -6.3770000000  OAC       37              0.0000000000
      1571       127  OAC       H1              0.4070000000       -6.1700000000       -6.0360000000  OAC       37              0.0000000000
      1572       127  OAC       H2              0.5340000000       -7.2170000000       -7.5040000000  OAC       37              0.0000000000
      1573       127  OAC       H3              1.5490000000       -7.5720000000       -6.0500000000  OAC       37              0.0000000000
      1574       127  OAC       O1             -1.3200000000       -8.7390000000       -6.4990000000  OAC       37              0.0000000000
      1575       127  OAC       DO1            -1.3190000000       -8.7380000000       -6.4600000000  OAC       37              0.0000000000
      1576       127  OAC       O2             -0.5000000000       -8.0910000000       -4.4830000000  OAC       37              0.0000000000
      1577       127  OAC       DO2            -0.4860000000       -8.0810000000       -4.4900000000  OAC       37              0.0000000000
      1578       127  OAC       H              -1.2190000000       -8.6800000000       -4.1920000000  OAC       37              0.0000000000
      1579       127  OAC       LPO1           -1.4460000000       -8.8450000000       -6.2490000000  OAC       37              0.0000000000
      1580       127  OAC       LPO1           -1.2010000000       -8.6390000000       -6.7570000000  OAC       37              0.0000000000
      1581       127  OAC       LPO2           -0.2870000000       -8.3410000000       -4.3600000000  OAC       37              0.0000000000
      1582       127  OAC       LPO2           -0.7000000000       -7.8340000000       -4.3550000000  OAC       37              0.0000000000
      1583       128  OAC       C1             -7.5670000000        5.3680000000       -7.6980000000  OAC       38              0.0000000000
      1584       128  OAC       DC1            -7.5640000000        5.3590000000       -7.6960000000  OAC       38              0.0000000000
      1585       128  OAC       C2             -7.9450000000        3.9340000000       -7.8520000000  OAC       38              0.0000000000
      1586       128  OAC       DC2            -7.9460000000        3.9620000000       -7.8530000000  OAC       38              0.0000000000
      1587       128  OAC       H1             -8.8990000000        3.7400000000       -7.3180000000  OAC       38              0.0000000000
      1588       128  OAC       H2             -7.1560000000        3.2770000000       -7.4310000000  OAC       38              0.0000000000
      1589       128  OAC       H3             -8.0780000000        3.6960000000       -8.9290000000  OAC       38              0.0000000000
      1590       128  OAC       O1             -6.5400000000        5.7920000000       -7.1860000000  OAC       38              0.0000000000
      1591       128  OAC       DO1            -6.5690000000        5.8150000000       -7.2010000000  OAC       38              0.0000000000
      1592       128  OAC       O2             -8.5280000000        6.1870000000       -8.2110000000  OAC       38              0.0000000000
      1593       128  OAC       DO2            -8.5320000000        6.1700000000       -8.2130000000  OAC       38              0.0000000000
      1594       128  OAC       H              -8.2200000000        7.1020000000       -8.0790000000  OAC       38              0.0000000000
      1595       128  OAC       LPO1           -6.6250000000        6.0750000000       -7.2370000000  OAC       38              0.0000000000
      1596       128  OAC       LPO1           -6.4450000000        5.5120000000       -7.1300000000  OAC       38              0.0000000000
      1597       128  OAC       LPO2           -8.4710000000        6.2500000000       -8.5510000000  OAC       38              0.0000000000
      1598       128  OAC       LPO2           -8.7680000000        6.2660000000       -7.9690000000  OAC       38              0.0000000000
      1599       129  OAC       C1             -7.7380000000       -8.4210000000        6.2820000000  OAC       39              0.0000000000
      1600       129  OAC       DC1            -7.7310000000       -8.4230000000        6.2880000000  OAC       39              0.0000000000
      1601       129  OAC       C2             -6.2720000000       -8.3860000000        6.5500000000  OAC       39              0.0000000000
      1602       129  OAC       DC2            -6.2960000000       -8.3820000000        6.5380000000  OAC       39              0.0000000000
      1603       129  OAC       H1             -5.7300000000       -8.9110000000        5.7350000000  OAC       39              0.0000000000
      1604       129  OAC       H2             -6.0420000000       -8.8830000000        7.5160000000  OAC       39              0.0000000000
      1605       129  OAC       H3             -5.9240000000       -7.3320000000        6.5940000000  OAC       39              0.0000000000
      1606       129  OAC       O1             -8.5910000000       -8.9180000000        7.0040000000  OAC       39              0.0000000000
      1607       129  OAC       DO1            -8.5990000000       -8.9000000000        6.9690000000  OAC       39              0.0000000000
      1608       129  OAC       O2             -8.0350000000       -7.8130000000        5.0990000000  OAC       39              0.0000000000
      1609       129  OAC       DO2            -8.0170000000       -7.8130000000        5.1020000000  OAC       39              0.0000000000
      1610       129  OAC       H              -9.0010000000       -7.8710000000        4.9850000000  OAC       39              0.0000000000
      1611       129  OAC       LPO1           -8.8070000000       -8.8400000000        6.8110000000  OAC       39              0.0000000000
      1612       129  OAC       LPO1           -8.3830000000       -9.0010000000        7.2030000000  OAC       39              0.0000000000
      1613       129  OAC       LPO2           -8.0920000000       -7.4700000000        5.1440000000  OAC       39              0.0000000000
      1614       129  OAC       LPO2           -8.0220000000       -8.0410000000        4.8340000000  OAC       39              0.0000000000
      1615       130  OAC       C1              0.0270000000       -7.6560000000       -8.6100000000  OAC       40              0.0000000000
      1616       130  OAC       DC1             0.0340000000       -7.6620000000       -8.6080000000  OAC       40              0.0000000000
      1617       130  OAC       C2              1.4330000000       -7.6600000000       -8.1160000000  OAC       40              0.0000000000
      1618       130  OAC       DC2             1.4080000000       -7.6520000000       -8.1240000000  OAC       40              0.0000000000
      1619       130  OAC       H1              2.0730000000       -7.0710000000       -8.8040000000  OAC       40              0.0000000000
      1620       130  OAC       H2              1.8220000000       -8.6990000000       -8.0610000000  OAC       40              0.0000000000
      1621       130  OAC       H3              1.4750000000       -7.2050000000       -7.1030000000  OAC       40              0.0000000000
      1622       130  OAC       O1             -0.6320000000       -8.6390000000       -8.9190000000  OAC       40              0.0000000000
      1623       130  OAC       DO1            -0.6450000000       -8.6020000000       -8.9210000000  OAC       40              0.0000000000
      1624       130  OAC       O2             -0.4650000000       -6.3870000000       -8.6810000000  OAC       40              0.0000000000
      1625       130  OAC       DO2            -0.4480000000       -6.3870000000       -8.6750000000  OAC       40              0.0000000000
      1626       130  OAC       H              -1.3800000000       -6.4550000000       -9.0090000000  OAC       40              0.0000000000
      1627       130  OAC       LPO1           -0.8670000000       -8.4670000000       -8.9880000000  OAC       40              0.0000000000
      1628       130  OAC       LPO1           -0.4020000000       -8.8210000000       -8.8530000000  OAC       40              0.0000000000
      1629       130  OAC       LPO2           -0.6130000000       -6.2930000000       -8.3780000000  OAC       40              0.0000000000
      1630       130  OAC       LPO2           -0.3970000000       -6.2430000000       -8.9930000000  OAC       40              0.0000000000
      1631       131  OAC       C1             -5.0800000000       -4.9030000000        7.6340000000  OAC       41              0.0000000000
      1632       131  OAC       DC1            -5.0750000000       -4.9090000000        7.6290000000  OAC       41              0.0000000000
      1633       131  OAC       C2             -3.7800000000       -5.6250000000        7.7320000000  OAC       41              0.0000000000
      1634       131  OAC       DC2            -3.8010000000       -5.6080000000        7.7370000000  OAC       41              0.0000000000
      1635       131  OAC       H1             -2.9490000000       -4.8910000000        7.7990000000  OAC       41              0.0000000000
      1636       131  OAC       H2             -3.6240000000       -6.2660000000        6.8390000000  OAC       41              0.0000000000
      1637       131  OAC       H3             -3.7740000000       -6.2630000000        8.6410000000  OAC       41              0.0000000000
      1638       131  OAC       O1             -5.8830000000       -4.9840000000        6.7140000000  OAC       41              0.0000000000
      1639       131  OAC       DO1            -5.8880000000       -4.9610000000        6.7460000000  OAC       41              0.0000000000
      1640       131  OAC       O2             -5.2860000000       -4.1110000000        8.7240000000  OAC       41              0.0000000000
      1641       131  OAC       DO2            -5.2700000000       -4.1200000000        8.7250000000  OAC       41              0.0000000000
      1642       131  OAC       H              -6.1460000000       -3.6710000000        8.5970000000  OAC       41              0.0000000000
      1643       131  OAC       LPO1           -6.0670000000       -4.7910000000        6.8500000000  OAC       41              0.0000000000
      1644       131  OAC       LPO1           -5.7060000000       -5.1790000000        6.5690000000  OAC       41              0.0000000000
      1645       131  OAC       LPO2           -5.4490000000       -4.2880000000        8.9780000000  OAC       41              0.0000000000
      1646       131  OAC       LPO2           -5.1510000000       -3.7920000000        8.6740000000  OAC       41              0.0000000000
      1647       132  OAC       C1              1.2710000000       -0.5690000000       -1.9480000000  OAC       42              0.0000000000
      1648       132  OAC       DC1             1.2630000000       -0.5670000000       -1.9430000000  OAC       42              0.0000000000
      1649       132  OAC       C2              0.5070000000        0.5910000000       -1.4050000000  OAC       42              0.0000000000
      1650       132  OAC       DC2             0.5270000000        0.5750000000       -1.4170000000  OAC       42              0.0000000000
      1651       132  OAC       H1              1.1320000000        1.1380000000       -0.6680000000  OAC       42              0.0000000000
      1652       132  OAC       H2             -0.4210000000        0.2430000000       -0.9040000000  OAC       42              0.0000000000
      1653       132  OAC       H3              0.2350000000        1.2800000000       -2.2320000000  OAC       42              0.0000000000
      1654       132  OAC       O1              0.9480000000       -1.7460000000       -1.8700000000  OAC       42              0.0000000000
      1655       132  OAC       DO1             0.9810000000       -1.7330000000       -1.8870000000  OAC       42              0.0000000000
      1656       132  OAC       O2              2.4140000000       -0.1570000000       -2.5670000000  OAC       42              0.0000000000
      1657       132  OAC       DO2             2.4040000000       -0.1430000000       -2.5600000000  OAC       42              0.0000000000
      1658       132  OAC       H               2.8610000000       -0.9580000000       -2.8960000000  OAC       42              0.0000000000
      1659       132  OAC       LPO1            1.1940000000       -1.8290000000       -2.0190000000  OAC       42              0.0000000000
      1660       132  OAC       LPO1            0.6980000000       -1.6730000000       -1.7190000000  OAC       42              0.0000000000
      1661       132  OAC       LPO2            2.3550000000       -0.0880000000       -2.9050000000  OAC       42              0.0000000000
      1662       132  OAC       LPO2            2.6800000000       -0.1400000000       -2.3400000000  OAC       42              0.0000000000
      1663       133  OAC       C1              7.6770000000        8.3680000000        4.2990000000  OAC       43              0.0000000000
      1664       133  OAC       DC1             7.6730000000        8.3700000000        4.3080000000  OAC       43              0.0000000000
      1665       133  OAC       C2              7.9630000000        8.2580000000        5.7580000000  OAC       43              0.0000000000
      1666       133  OAC       DC2             7.9650000000        8.2560000000        5.7310000000  OAC       43              0.0000000000
      1667       133  OAC       H1              8.0220000000        7.1880000000        6.0480000000  OAC       43              0.0000000000
      1668       133  OAC       H2              7.1620000000        8.7490000000        6.3490000000  OAC       43              0.0000000000
      1669       133  OAC       H3              8.9330000000        8.7490000000        5.9870000000  OAC       43              0.0000000000
      1670       133  OAC       O1              6.7060000000        8.9150000000        3.7940000000  OAC       43              0.0000000000
      1671       133  OAC       DO1             6.7350000000        8.8970000000        3.7730000000  OAC       43              0.0000000000
      1672       133  OAC       O2              8.6530000000        7.7700000000        3.5610000000  OAC       43              0.0000000000
      1673       133  OAC       DO2             8.6570000000        7.7690000000        3.5780000000  OAC       43              0.0000000000
      1674       133  OAC       H               8.4060000000        7.8770000000        2.6240000000  OAC       43              0.0000000000
      1675       133  OAC       LPO1            6.8040000000        8.8470000000        3.5190000000  OAC       43              0.0000000000
      1676       133  OAC       LPO1            6.5990000000        8.9880000000        4.0650000000  OAC       43              0.0000000000
      1677       133  OAC       LPO2            8.9110000000        7.9960000000        3.4870000000  OAC       43              0.0000000000
      1678       133  OAC       LPO2            8.5820000000        7.4310000000        3.5090000000  OAC       43              0.0000000000
      1679       134  OAC       C1              2.5820000000       -6.3120000000       -7.9130000000  OAC       44              0.0000000000
      1680       134  OAC       DC1             2.5750000000       -6.3070000000       -7.9080000000  OAC       44              0.0000000000
      1681       134  OAC       C2              2.3510000000       -5.4590000000       -6.7110000000  OAC       44              0.0000000000
      1682       134  OAC       DC2             2.3640000000       -5.4750000000       -6.7310000000  OAC       44              0.0000000000
      1683       134  OAC       H1              2.5930000000       -6.0340000000       -5.7930000000  OAC       44              0.0000000000
      1684       134  OAC       H2              1.2910000000       -5.1330000000       -6.6650000000  OAC       44              0.0000000000
      1685       134  OAC       H3              3.0040000000       -4.5620000000       -6.7590000000  OAC       44              0.0000000000
      1686       134  OAC       O1              1.7430000000       -6.6250000000       -8.7470000000  OAC       44              0.0000000000
      1687       134  OAC       DO1             1.7820000000       -6.6370000000       -8.7470000000  OAC       44              0.0000000000
      1688       134  OAC       O2              3.8810000000       -6.7200000000       -7.9830000000  OAC       44              0.0000000000
      1689       134  OAC       DO2             3.8780000000       -6.7090000000       -7.9690000000  OAC       44              0.0000000000
      1690       134  OAC       H               3.9620000000       -7.2680000000       -8.7850000000  OAC       44              0.0000000000
      1691       134  OAC       LPO1            1.9470000000       -6.7830000000       -8.9000000000  OAC       44              0.0000000000
      1692       134  OAC       LPO1            1.5320000000       -6.4700000000       -8.6000000000  OAC       44              0.0000000000
      1693       134  OAC       LPO2            4.0750000000       -6.4880000000       -8.1600000000  OAC       44              0.0000000000
      1694       134  OAC       LPO2            3.9270000000       -7.0200000000       -7.8100000000  OAC       44              0.0000000000
      1695       135  OAC       C1              8.6560000000       -5.0760000000       -7.1110000000  OAC       45              0.0000000000
      1696       135  OAC       DC1             8.6540000000       -5.0730000000       -7.1010000000  OAC       45              0.0000000000
      1697       135  OAC       C2              8.2360000000       -5.6710000000       -5.8100000000  OAC       45              0.0000000000
      1698       135  OAC       DC2             8.2430000000       -5.6680000000       -5.8370000000  OAC       45              0.0000000000
      1699       135  OAC       H1              7.2300000000       -6.1270000000       -5.9150000000  OAC       45              0.0000000000
      1700       135  OAC       H2              8.1990000000       -4.8910000000       -5.0200000000  OAC       45              0.0000000000
      1701       135  OAC       H3              8.9600000000       -6.4580000000       -5.5080000000  OAC       45              0.0000000000
      1702       135  OAC       O1              8.9280000000       -3.9000000000       -7.3120000000  OAC       45              0.0000000000
      1703       135  OAC       DO1             8.9280000000       -3.9280000000       -7.3390000000  OAC       45              0.0000000000
      1704       135  OAC       O2              8.7060000000       -6.0220000000       -8.0900000000  OAC       45              0.0000000000
      1705       135  OAC       DO2             8.7010000000       -6.0290000000       -8.0740000000  OAC       45              0.0000000000
      1706       135  OAC       H               8.9840000000       -5.5690000000       -8.9070000000  OAC       45              0.0000000000
      1707       135  OAC       LPO1            8.9850000000       -3.9570000000       -7.6000000000  OAC       45              0.0000000000
      1708       135  OAC       LPO1            8.8730000000       -3.8320000000       -7.0240000000  OAC       45              0.0000000000
      1709       135  OAC       LPO2            9.0220000000       -6.1730000000       -8.1030000000  OAC       45              0.0000000000
      1710       135  OAC       LPO2            8.3960000000       -6.0530000000       -8.2500000000  OAC       45              0.0000000000
      1711       136  OAC       C1              5.6260000000       -0.3540000000       -3.9470000000  OAC       46              0.0000000000
      1712       136  OAC       DC1             5.6260000000       -0.3470000000       -3.9400000000  OAC       46              0.0000000000
      1713       136  OAC       C2              6.5190000000        0.1900000000       -2.8850000000  OAC       46              0.0000000000
      1714       136  OAC       DC2             6.5090000000        0.1740000000       -2.9060000000  OAC       46              0.0000000000
      1715       136  OAC       H1              6.7640000000       -0.6110000000       -2.1560000000  OAC       46              0.0000000000
      1716       136  OAC       H2              6.0220000000        1.0250000000       -2.3490000000  OAC       46              0.0000000000
      1717       136  OAC       H3              7.4600000000        0.5630000000       -3.3430000000  OAC       46              0.0000000000
      1718       136  OAC       O1              4.5000000000        0.0430000000       -4.2150000000  OAC       46              0.0000000000
      1719       136  OAC       DO1             4.5180000000        0.0130000000       -4.2340000000  OAC       46              0.0000000000
      1720       136  OAC       O2              6.2240000000       -1.3810000000       -4.6140000000  OAC       46              0.0000000000
      1721       136  OAC       DO2             6.2340000000       -1.3740000000       -4.6010000000  OAC       46              0.0000000000
      1722       136  OAC       H               5.5910000000       -1.6880000000       -5.2880000000  OAC       46              0.0000000000
      1723       136  OAC       LPO1            4.4740000000       -0.1620000000       -4.4330000000  OAC       46              0.0000000000
      1724       136  OAC       LPO1            4.5150000000        0.2510000000       -3.9990000000  OAC       46              0.0000000000
      1725       136  OAC       LPO2            6.4090000000       -1.2620000000       -4.8870000000  OAC       46              0.0000000000
      1726       136  OAC       LPO2            6.1580000000       -1.6870000000       -4.4580000000  OAC       46              0.0000000000
      1727       137  OAC       C1             -1.9800000000        7.7400000000       -1.8790000000  OAC       47              0.0000000000
      1728       137  OAC       DC1            -1.9830000000        7.7360000000       -1.8870000000  OAC       47              0.0000000000
      1729       137  OAC       C2             -2.4700000000        8.0640000000       -3.2490000000  OAC       47              0.0000000000
      1730       137  OAC       DC2            -2.4610000000        8.0670000000       -3.2230000000  OAC       47              0.0000000000
      1731       137  OAC       H1             -3.4190000000        8.6370000000       -3.1810000000  OAC       47              0.0000000000
      1732       137  OAC       H2             -2.6510000000        7.1340000000       -3.8270000000  OAC       47              0.0000000000
      1733       137  OAC       H3             -1.7130000000        8.6790000000       -3.7810000000  OAC       47              0.0000000000
      1734       137  OAC       O1             -1.7940000000        6.6190000000       -1.4260000000  OAC       47              0.0000000000
      1735       137  OAC       DO1            -1.7880000000        6.6530000000       -1.4060000000  OAC       47              0.0000000000
      1736       137  OAC       O2             -1.7540000000        8.8740000000       -1.1570000000  OAC       47              0.0000000000
      1737       137  OAC       DO2            -1.7600000000        8.8780000000       -1.1740000000  OAC       47              0.0000000000
      1738       137  OAC       H              -1.4380000000        8.5930000000       -0.2790000000  OAC       47              0.0000000000
      1739       137  OAC       LPO1           -1.7040000000        6.7340000000       -1.1640000000  OAC       47              0.0000000000
      1740       137  OAC       LPO1           -1.8820000000        6.4940000000       -1.6840000000  OAC       47              0.0000000000
      1741       137  OAC       LPO2           -1.4260000000        8.9890000000       -1.2040000000  OAC       47              0.0000000000
      1742       137  OAC       LPO2           -2.0430000000        8.9740000000       -0.9870000000  OAC       47              0.0000000000
      1743       138  OAC       C1              0.4810000000       -0.8750000000        4.5290000000  OAC       48              0.0000000000
      1744       138  OAC       DC1             0.4720000000       -0.8750000000        4.5300000000  OAC       48              0.0000000000
      1745       138  OAC       C2             -0.5840000000       -1.4840000000        5.3750000000  OAC       48              0.0000000000
      1746       138  OAC       DC2            -0.5590000000       -1.4770000000        5.3650000000  OAC       48              0.0000000000
      1747       138  OAC       H1             -0.5490000000       -2.5890000000        5.2830000000  OAC       48              0.0000000000
      1748       138  OAC       H2             -1.5850000000       -1.1260000000        5.0560000000  OAC       48              0.0000000000
      1749       138  OAC       H3             -0.4220000000       -1.2040000000        6.4380000000  OAC       48              0.0000000000
      1750       138  OAC       O1              0.3090000000       -0.0900000000        3.6060000000  OAC       48              0.0000000000
      1751       138  OAC       DO1             0.3450000000       -0.1040000000        3.6180000000  OAC       48              0.0000000000
      1752       138  OAC       O2              1.7170000000       -1.3050000000        4.9100000000  OAC       48              0.0000000000
      1753       138  OAC       DO2             1.7040000000       -1.3120000000        4.9200000000  OAC       48              0.0000000000
      1754       138  OAC       H               2.3620000000       -0.8730000000        4.3200000000  OAC       48              0.0000000000
      1755       138  OAC       LPO1            0.6040000000       -0.0760000000        3.5560000000  OAC       48              0.0000000000
      1756       138  OAC       LPO1            0.0110000000       -0.0980000000        3.6470000000  OAC       48              0.0000000000
      1757       138  OAC       LPO2            1.8510000000       -1.0970000000        5.1580000000  OAC       48              0.0000000000
      1758       138  OAC       LPO2            1.8060000000       -1.5980000000        4.7400000000  OAC       48              0.0000000000
      1759       139  OAC       C1             -7.6560000000       -8.2990000000       -4.4900000000  OAC       49              0.0000000000
      1760       139  OAC       DC1            -7.6520000000       -8.3010000000       -4.4810000000  OAC       49              0.0000000000
      1761       139  OAC       C2             -8.0160000000       -8.2590000000       -3.0440000000  OAC       49              0.0000000000
      1762       139  OAC       DC2            -8.0170000000       -8.2560000000       -3.0720000000  OAC       49              0.0000000000
      1763       139  OAC       H1             -8.1820000000       -7.2070000000       -2.7290000000  OAC       49              0.0000000000
      1764       139  OAC       H2             -7.2010000000       -8.6950000000       -2.4290000000  OAC       49              0.0000000000
      1765       139  OAC       H3             -8.9480000000       -8.8390000000       -2.8750000000  OAC       49              0.0000000000
      1766       139  OAC       O1             -6.6180000000       -8.7430000000       -4.9630000000  OAC       49              0.0000000000
      1767       139  OAC       DO1            -6.6480000000       -8.7270000000       -4.9850000000  OAC       49              0.0000000000
      1768       139  OAC       O2             -8.6470000000       -7.7660000000       -5.2580000000  OAC       49              0.0000000000
      1769       139  OAC       DO2            -8.6520000000       -7.7660000000       -5.2410000000  OAC       49              0.0000000000
      1770       139  OAC       H              -8.3500000000       -7.8230000000       -6.1850000000  OAC       49              0.0000000000
      1771       139  OAC       LPO1           -6.7100000000       -8.6760000000       -5.2410000000  OAC       49              0.0000000000
      1772       139  OAC       LPO1           -6.5170000000       -8.8140000000       -4.6890000000  OAC       49              0.0000000000
      1773       139  OAC       LPO2           -8.8800000000       -8.0110000000       -5.3500000000  OAC       49              0.0000000000
      1774       139  OAC       LPO2           -8.6040000000       -7.4210000000       -5.2980000000  OAC       49              0.0000000000
      1775       140  OAC       C1              7.9250000000        0.2040000000        7.6740000000  OAC       50              0.0000000000
      1776       140  OAC       DC1             7.9220000000        0.1950000000        7.6780000000  OAC       50              0.0000000000
      1777       140  OAC       C2              7.9480000000       -1.2630000000        7.4090000000  OAC       50              0.0000000000
      1778       140  OAC       DC2             7.9510000000       -1.2360000000        7.4060000000  OAC       50              0.0000000000
      1779       140  OAC       H1              7.3080000000       -1.4960000000        6.5330000000  OAC       50              0.0000000000
      1780       140  OAC       H2              7.5710000000       -1.8230000000        8.2910000000  OAC       50              0.0000000000
      1781       140  OAC       H3              8.9890000000       -1.5870000000        7.1930000000  OAC       50              0.0000000000
      1782       140  OAC       O1              7.5490000000        0.7450000000        8.7050000000  OAC       50              0.0000000000
      1783       140  OAC       DO1             7.5620000000        0.7640000000        8.6730000000  OAC       50              0.0000000000
      1784       140  OAC       O2              8.3860000000        0.9040000000        6.5990000000  OAC       50              0.0000000000
      1785       140  OAC       DO2             8.3860000000        0.8860000000        6.5960000000  OAC       50              0.0000000000
      1786       140  OAC       H               8.3430000000        1.8480000000        6.8370000000  OAC       50              0.0000000000
      1787       140  OAC       LPO1            7.6080000000        1.0150000000        8.5910000000  OAC       50              0.0000000000
      1788       140  OAC       LPO1            7.4850000000        0.4780000000        8.8280000000  OAC       50              0.0000000000
      1789       140  OAC       LPO2            8.7330000000        0.9470000000        6.6170000000  OAC       50              0.0000000000
      1790       140  OAC       LPO2            8.1250000000        0.9800000000        6.3780000000  OAC       50              0.0000000000
      1791       141  OAC       C1              2.2870000000        1.5190000000        6.1910000000  OAC       51              0.0000000000
      1792       141  OAC       DC1             2.2950000000        1.5210000000        6.1960000000  OAC       51              0.0000000000
      1793       141  OAC       C2              3.6330000000        2.1230000000        5.9810000000  OAC       51              0.0000000000
      1794       141  OAC       DC2             3.6080000000        2.1130000000        5.9760000000  OAC       51              0.0000000000
      1795       141  OAC       H1              4.2250000000        1.4880000000        5.2890000000  OAC       51              0.0000000000
      1796       141  OAC       H2              4.1760000000        2.2080000000        6.9460000000  OAC       51              0.0000000000
      1797       141  OAC       H3              3.5230000000        3.1360000000        5.5370000000  OAC       51              0.0000000000
      1798       141  OAC       O1              1.8170000000        1.1580000000        7.2620000000  OAC       51              0.0000000000
      1799       141  OAC       DO1             1.7990000000        1.1550000000        7.2270000000  OAC       51              0.0000000000
      1800       141  OAC       O2              1.6090000000        1.4080000000        5.0140000000  OAC       51              0.0000000000
      1801       141  OAC       DO2             1.6250000000        1.4160000000        5.0110000000  OAC       51              0.0000000000
      1802       141  OAC       H               0.7450000000        1.0090000000        5.2210000000  OAC       51              0.0000000000
      1803       141  OAC       LPO1            1.5640000000        1.0700000000        7.1270000000  OAC       51              0.0000000000
      1804       141  OAC       LPO1            2.0670000000        1.2420000000        7.4060000000  OAC       51              0.0000000000
      1805       141  OAC       LPO2            1.4240000000        1.6990000000        4.9480000000  OAC       51              0.0000000000
      1806       141  OAC       LPO2            1.6780000000        1.1030000000        4.8580000000  OAC       51              0.0000000000
      1807       142  OAC       C1             -7.9280000000        4.4220000000        6.0950000000  OAC       52              0.0000000000
      1808       142  OAC       DC1            -7.9260000000        4.4230000000        6.0850000000  OAC       52              0.0000000000
      1809       142  OAC       C2             -6.9420000000        5.0760000000        5.1880000000  OAC       52              0.0000000000
      1810       142  OAC       DC2            -6.9550000000        5.0680000000        5.2110000000  OAC       52              0.0000000000
      1811       142  OAC       H1             -6.9720000000        6.1760000000        5.3340000000  OAC       52              0.0000000000
      1812       142  OAC       H2             -7.1770000000        4.8460000000        4.1280000000  OAC       52              0.0000000000
      1813       142  OAC       H3             -5.9200000000        4.7080000000        5.4200000000  OAC       52              0.0000000000
      1814       142  OAC       O1             -8.8730000000        3.7250000000        5.7500000000  OAC       52              0.0000000000
      1815       142  OAC       DO1            -8.8640000000        3.7340000000        5.7880000000  OAC       52              0.0000000000
      1816       142  OAC       O2             -7.6520000000        4.6960000000        7.4010000000  OAC       52              0.0000000000
      1817       142  OAC       DO2            -7.6390000000        4.7040000000        7.3900000000  OAC       52              0.0000000000
      1818       142  OAC       H              -8.3280000000        4.2420000000        7.9350000000  OAC       52              0.0000000000
      1819       142  OAC       LPO1           -8.9530000000        3.6830000000        6.0360000000  OAC       52              0.0000000000
      1820       142  OAC       LPO1           -8.8010000000        3.7600000000        5.4610000000  OAC       52              0.0000000000
      1821       142  OAC       LPO2           -7.4310000000        4.4590000000        7.5350000000  OAC       52              0.0000000000
      1822       142  OAC       LPO2           -7.8120000000        4.9900000000        7.5040000000  OAC       52              0.0000000000
      1823       143  OAC       C1             -4.1440000000       -8.5610000000        0.1150000000  OAC       53              0.0000000000
      1824       143  OAC       DC1            -4.1520000000       -8.5590000000        0.1090000000  OAC       53              0.0000000000
      1825       143  OAC       C2             -5.5820000000       -8.1940000000        0.2630000000  OAC       53              0.0000000000
      1826       143  OAC       DC2            -5.5560000000       -8.2010000000        0.2690000000  OAC       53              0.0000000000
      1827       143  OAC       H1             -6.1030000000       -8.9650000000        0.8680000000  OAC       53              0.0000000000
      1828       143  OAC       H2             -6.0700000000       -8.1250000000       -0.7320000000  OAC       53              0.0000000000
      1829       143  OAC       H3             -5.6660000000       -7.2130000000        0.7760000000  OAC       53              0.0000000000
      1830       143  OAC       O1             -3.5570000000       -8.7630000000       -0.9390000000  OAC       53              0.0000000000
      1831       143  OAC       DO1            -3.5400000000       -8.7650000000       -0.9030000000  OAC       53              0.0000000000
      1832       143  OAC       O2             -3.5320000000       -8.6490000000        1.3290000000  OAC       53              0.0000000000
      1833       143  OAC       DO2            -3.5490000000       -8.6440000000        1.3310000000  OAC       53              0.0000000000
      1834       143  OAC       H              -2.6030000000       -8.8890000000        1.1610000000  OAC       53              0.0000000000
      1835       143  OAC       LPO1           -3.3010000000       -8.8180000000       -0.7920000000  OAC       53              0.0000000000
      1836       143  OAC       LPO1           -3.8070000000       -8.7090000000       -1.0960000000  OAC       53              0.0000000000
      1837       143  OAC       LPO2           -3.4020000000       -8.3380000000        1.4270000000  OAC       53              0.0000000000
      1838       143  OAC       LPO2           -3.5600000000       -8.9720000000        1.4600000000  OAC       53              0.0000000000
      1839       144  OAC       C1              4.9590000000       -5.4990000000        4.9340000000  OAC       54              0.0000000000
      1840       144  OAC       DC1             4.9590000000       -5.4900000000        4.9350000000  OAC       54              0.0000000000
      1841       144  OAC       C2              5.6860000000       -4.2180000000        4.7060000000  OAC       54              0.0000000000
      1842       144  OAC       DC2             5.6790000000       -4.2450000000        4.7060000000  OAC       54              0.0000000000
      1843       144  OAC       H1              6.6630000000       -4.2430000000        5.2320000000  OAC       54              0.0000000000
      1844       144  OAC       H2              5.0910000000       -3.3620000000        5.0880000000  OAC       54              0.0000000000
      1845       144  OAC       H3              5.8640000000       -4.0770000000        3.6180000000  OAC       54              0.0000000000
      1846       144  OAC       O1              3.8640000000       -5.6240000000        5.4640000000  OAC       54              0.0000000000
      1847       144  OAC       DO1             3.8860000000       -5.6540000000        5.4500000000  OAC       54              0.0000000000
      1848       144  OAC       O2              5.6780000000       -6.5600000000        4.4680000000  OAC       54              0.0000000000
      1849       144  OAC       DO2             5.6860000000       -6.5450000000        4.4650000000  OAC       54              0.0000000000
      1850       144  OAC       H               5.1500000000       -7.3600000000        4.6480000000  OAC       54              0.0000000000
      1851       144  OAC       LPO1            3.8740000000       -5.9210000000        5.4280000000  OAC       54              0.0000000000
      1852       144  OAC       LPO1            3.8440000000       -5.3260000000        5.5050000000  OAC       54              0.0000000000
      1853       144  OAC       LPO2            5.6030000000       -6.6240000000        4.1320000000  OAC       54              0.0000000000
      1854       144  OAC       LPO2            5.8920000000       -6.6840000000        4.7150000000  OAC       54              0.0000000000
      1855       145  OAC       C1             -4.8510000000        8.6450000000        6.8390000000  OAC       55              0.0000000000
      1856       145  OAC       DC1            -4.8450000000        8.6450000000        6.8460000000  OAC       55              0.0000000000
      1857       145  OAC       C2             -4.7530000000        8.2800000000        8.2810000000  OAC       55              0.0000000000
      1858       145  OAC       DC2            -4.7640000000        8.2860000000        8.2560000000  OAC       55              0.0000000000
      1859       145  OAC       H1             -5.3610000000        8.9840000000        8.8870000000  OAC       55              0.0000000000
      1860       145  OAC       H2             -3.6980000000        8.3280000000        8.6220000000  OAC       55              0.0000000000
      1861       145  OAC       H3             -5.1370000000        7.2490000000        8.4320000000  OAC       55              0.0000000000
      1862       145  OAC       O1             -3.9200000000        8.9570000000        6.1090000000  OAC       55              0.0000000000
      1863       145  OAC       DO1            -3.9580000000        8.9560000000        6.0970000000  OAC       55              0.0000000000
      1864       145  OAC       O2             -6.1420000000        8.5920000000        6.4050000000  OAC       55              0.0000000000
      1865       145  OAC       DO2            -6.1410000000        8.5870000000        6.4220000000  OAC       55              0.0000000000
      1866       145  OAC       H              -6.1350000000        8.8400000000        5.4630000000  OAC       55              0.0000000000
      1867       145  OAC       LPO1           -4.1070000000        8.9940000000        5.8770000000  OAC       55              0.0000000000
      1868       145  OAC       LPO1           -3.7240000000        8.9240000000        6.3350000000  OAC       55              0.0000000000
      1869       145  OAC       LPO2           -6.2220000000        8.2710000000        6.2880000000  OAC       55              0.0000000000
      1870       145  OAC       LPO2           -6.3030000000        8.8980000000        6.4520000000  OAC       55              0.0000000000
      1871       146  OAC       C1              7.4040000000       -0.2910000000       -7.9570000000  OAC       56              0.0000000000
      1872       146  OAC       DC1             7.3980000000       -0.2980000000       -7.9560000000  OAC       56              0.0000000000
      1873       146  OAC       C2              5.9690000000       -0.6940000000       -7.9550000000  OAC       56              0.0000000000
      1874       146  OAC       DC2             5.9920000000       -0.6780000000       -7.9570000000  OAC       56              0.0000000000
      1875       146  OAC       H1              5.4290000000       -0.1520000000       -7.1510000000  OAC       56              0.0000000000
      1876       146  OAC       H2              5.8720000000       -1.7860000000       -7.7820000000  OAC       56              0.0000000000
      1877       146  OAC       H3              5.5090000000       -0.4400000000       -8.9340000000  OAC       56              0.0000000000
      1878       146  OAC       O1              8.3620000000       -1.0340000000       -7.7940000000  OAC       56              0.0000000000
      1879       146  OAC       DO1             8.3650000000       -0.9950000000       -7.8000000000  OAC       56              0.0000000000
      1880       146  OAC       O2              7.5380000000        1.0490000000       -8.1680000000  OAC       56              0.0000000000
      1881       146  OAC       DO2             7.5210000000        1.0440000000       -8.1690000000  OAC       56              0.0000000000
      1882       146  OAC       H               8.4930000000        1.2440000000       -8.1570000000  OAC       56              0.0000000000
      1883       146  OAC       LPO1            8.5520000000       -0.8040000000       -7.8230000000  OAC       56              0.0000000000
      1884       146  OAC       LPO1            8.1800000000       -1.2710000000       -7.7630000000  OAC       56              0.0000000000
      1885       146  OAC       LPO2            7.5590000000        1.1200000000       -8.5110000000  OAC       56              0.0000000000
      1886       146  OAC       LPO2            7.5300000000        1.2250000000       -7.8660000000  OAC       56              0.0000000000
      1887       147  OAC       C1             -2.9930000000       -4.3930000000        3.2630000000  OAC       57              0.0000000000
      1888       147  OAC       DC1            -2.9900000000       -4.3900000000        3.2720000000  OAC       57              0.0000000000
      1889       147  OAC       C2             -2.0560000000       -4.7610000000        4.3630000000  OAC       57              0.0000000000
      1890       147  OAC       DC2            -2.0710000000       -4.7620000000        4.3400000000  OAC       57              0.0000000000
      1891       147  OAC       H1             -2.3990000000       -5.6990000000        4.8490000000  OAC       57              0.0000000000
      1892       147  OAC       H2             -2.0150000000       -3.9540000000        5.1240000000  OAC       57              0.0000000000
      1893       147  OAC       H3             -1.0380000000       -4.9190000000        3.9490000000  OAC       57              0.0000000000
      1894       147  OAC       O1             -3.6400000000       -3.3580000000        3.1820000000  OAC       57              0.0000000000
      1895       147  OAC       DO1            -3.6410000000       -3.3870000000        3.1560000000  OAC       57              0.0000000000
      1896       147  OAC       O2             -3.0530000000       -5.3760000000        2.3200000000  OAC       57              0.0000000000
      1897       147  OAC       DO2            -3.0420000000       -5.3800000000        2.3340000000  OAC       57              0.0000000000
      1898       147  OAC       H              -3.6790000000       -5.0740000000        1.6370000000  OAC       57              0.0000000000
      1899       147  OAC       LPO1           -3.7600000000       -3.4470000000        2.9230000000  OAC       57              0.0000000000
      1900       147  OAC       LPO1           -3.5250000000       -3.2590000000        3.4420000000  OAC       57              0.0000000000
      1901       147  OAC       LPO2           -2.8090000000       -5.3280000000        2.0740000000  OAC       57              0.0000000000
      1902       147  OAC       LPO2           -3.3010000000       -5.6100000000        2.3990000000  OAC       57              0.0000000000
      1903       148  OAC       C1              8.2890000000       -7.0160000000        3.9660000000  OAC       58              0.0000000000
      1904       148  OAC       DC1             8.2890000000       -7.0240000000        3.9710000000  OAC       58              0.0000000000
      1905       148  OAC       C2              7.7770000000       -8.4160000000        3.9890000000  OAC       58              0.0000000000
      1906       148  OAC       DC2             7.7820000000       -8.3900000000        3.9810000000  OAC       58              0.0000000000
      1907       148  OAC       H1              6.6670000000       -8.4080000000        3.9780000000  OAC       58              0.0000000000
      1908       148  OAC       H2              8.1250000000       -8.9420000000        4.9030000000  OAC       58              0.0000000000
      1909       148  OAC       H3              8.1440000000       -8.9630000000        3.0950000000  OAC       58              0.0000000000
      1910       148  OAC       O1              8.9950000000       -6.4920000000        4.8170000000  OAC       58              0.0000000000
      1911       148  OAC       DO1             8.9820000000       -6.4740000000        4.7840000000  OAC       58              0.0000000000
      1912       148  OAC       O2              7.8690000000       -6.3580000000        2.8490000000  OAC       58              0.0000000000
      1913       148  OAC       DO2             7.8630000000       -6.3750000000        2.8490000000  OAC       58              0.0000000000
      1914       148  OAC       H               8.2360000000       -5.4570000000        2.8960000000  OAC       58              0.0000000000
      1915       148  OAC       LPO1            9.0000000000       -6.2350000000        4.6630000000  OAC       58              0.0000000000
      1916       148  OAC       LPO1            8.9970000000       -6.7450000000        4.9790000000  OAC       58              0.0000000000
      1917       148  OAC       LPO2            8.0950000000       -6.4030000000        2.5850000000  OAC       58              0.0000000000
      1918       148  OAC       LPO2            7.5610000000       -6.2020000000        2.9040000000  OAC       58              0.0000000000
      1919       149  OAC       C1              0.1010000000       -5.4310000000       -0.8130000000  OAC       59              0.0000000000
      1920       149  OAC       DC1             0.1080000000       -5.4280000000       -0.8080000000  OAC       59              0.0000000000
      1921       149  OAC       C2              1.1360000000       -5.9260000000        0.1380000000  OAC       59              0.0000000000
      1922       149  OAC       DC2             1.1150000000       -5.9250000000        0.1200000000  OAC       59              0.0000000000
      1923       149  OAC       H1              0.6450000000       -6.4180000000        1.0030000000  OAC       59              0.0000000000
      1924       149  OAC       H2              1.7590000000       -5.0840000000        0.5070000000  OAC       59              0.0000000000
      1925       149  OAC       H3              1.7910000000       -6.6630000000       -0.3740000000  OAC       59              0.0000000000
      1926       149  OAC       O1             -0.0650000000       -4.2690000000       -1.1590000000  OAC       59              0.0000000000
      1927       149  OAC       DO1            -0.0870000000       -4.2990000000       -1.1710000000  OAC       59              0.0000000000
      1928       149  OAC       O2             -0.6720000000       -6.4540000000       -1.2750000000  OAC       59              0.0000000000
      1929       149  OAC       DO2            -0.6590000000       -6.4600000000       -1.2640000000  OAC       59              0.0000000000
      1930       149  OAC       H              -1.3230000000       -6.0650000000       -1.8870000000  OAC       59              0.0000000000
      1931       149  OAC       LPO1           -0.2940000000       -4.3480000000       -1.3350000000  OAC       59              0.0000000000
      1932       149  OAC       LPO1            0.1620000000       -4.1790000000       -0.9840000000  OAC       59              0.0000000000
      1933       149  OAC       LPO2           -0.5320000000       -6.5970000000       -1.5630000000  OAC       59              0.0000000000
      1934       149  OAC       LPO2           -0.9470000000       -6.5080000000       -1.0660000000  OAC       59              0.0000000000
      1935       150  OAC       C1              3.3640000000       -8.1540000000        1.7010000000  OAC       60              0.0000000000
      1936       150  OAC       DC1             3.3710000000       -8.1540000000        1.7070000000  OAC       60              0.0000000000
      1937       150  OAC       C2              3.7480000000       -7.8030000000        3.0980000000  OAC       60              0.0000000000
      1938       150  OAC       DC2             3.7340000000       -7.8060000000        3.0750000000  OAC       60              0.0000000000
      1939       150  OAC       H1              3.6550000000       -6.7070000000        3.2470000000  OAC       60              0.0000000000
      1940       150  OAC       H2              4.7970000000       -8.1070000000        3.3000000000  OAC       60              0.0000000000
      1941       150  OAC       H3              3.0770000000       -8.3240000000        3.8130000000  OAC       60              0.0000000000
      1942       150  OAC       O1              4.0790000000       -8.7000000000        0.8720000000  OAC       60              0.0000000000
      1943       150  OAC       DO1             4.0410000000       -8.6880000000        0.8650000000  OAC       60              0.0000000000
      1944       150  OAC       O2              2.0780000000       -7.7860000000        1.4390000000  OAC       60              0.0000000000
      1945       150  OAC       DO2             2.0830000000       -7.7820000000        1.4560000000  OAC       60              0.0000000000
      1946       150  OAC       H               1.8930000000       -8.0420000000        0.5170000000  OAC       60              0.0000000000
      1947       150  OAC       LPO1            3.8580000000       -8.6920000000        0.6690000000  OAC       60              0.0000000000
      1948       150  OAC       LPO1            4.3060000000       -8.7120000000        1.0680000000  OAC       60              0.0000000000
      1949       150  OAC       LPO2            1.8550000000       -8.0430000000        1.5220000000  OAC       60              0.0000000000
      1950       150  OAC       LPO2            2.0630000000       -7.4580000000        1.3180000000  OAC       60              0.0000000000
      1951       151  OAC       C1              7.1950000000       -8.6220000000        7.0770000000  OAC       61              0.0000000000
      1952       151  OAC       DC1             7.1860000000       -8.6200000000        7.0740000000  OAC       61              0.0000000000
      1953       151  OAC       C2              6.4420000000       -8.2460000000        5.8460000000  OAC       61              0.0000000000
      1954       151  OAC       DC2             6.4630000000       -8.2520000000        5.8640000000  OAC       61              0.0000000000
      1955       151  OAC       H1              6.7800000000       -7.2500000000        5.4910000000  OAC       61              0.0000000000
      1956       151  OAC       H2              5.3520000000       -8.2050000000        6.0560000000  OAC       61              0.0000000000
      1957       151  OAC       H3              6.6290000000       -8.9980000000        5.0500000000  OAC       61              0.0000000000
      1958       151  OAC       O1              6.7110000000       -8.8570000000        8.1760000000  OAC       61              0.0000000000
      1959       151  OAC       DO1             6.7490000000       -8.8580000000        8.1670000000  OAC       61              0.0000000000
      1960       151  OAC       O2              8.5350000000       -8.6770000000        6.8350000000  OAC       61              0.0000000000
      1961       151  OAC       DO2             8.5260000000       -8.6730000000        6.8200000000  OAC       61              0.0000000000
      1962       151  OAC       H               8.9650000000       -8.9250000000        7.6740000000  OAC       61              0.0000000000
      1963       151  OAC       LPO1            6.9830000000       -8.9090000000        8.2900000000  OAC       61              0.0000000000
      1964       151  OAC       LPO1            6.4340000000       -8.8060000000        8.0710000000  OAC       61              0.0000000000
      1965       151  OAC       LPO2            8.6300000000       -8.9970000000        6.7280000000  OAC       61              0.0000000000
      1966       151  OAC       LPO2            8.6850000000       -8.3650000000        6.8870000000  OAC       61              0.0000000000
      1967       152  OAC       C1              7.3260000000       -3.8690000000        8.4610000000  OAC       62              0.0000000000
      1968       152  OAC       DC1             7.3220000000       -3.8600000000        8.4630000000  OAC       62              0.0000000000
      1969       152  OAC       C2              7.4580000000       -2.3940000000        8.2820000000  OAC       62              0.0000000000
      1970       152  OAC       DC2             7.4630000000       -2.4220000000        8.2820000000  OAC       62              0.0000000000
      1971       152  OAC       H1              8.3600000000       -2.0320000000        8.8190000000  OAC       62              0.0000000000
      1972       152  OAC       H2              6.5640000000       -1.8730000000        8.6850000000  OAC       62              0.0000000000
      1973       152  OAC       H3              7.5590000000       -2.1560000000        7.2020000000  OAC       62              0.0000000000
      1974       152  OAC       O1              6.3810000000       -4.4510000000        8.9740000000  OAC       62              0.0000000000
      1975       152  OAC       DO1             6.4130000000       -4.4690000000        8.9600000000  OAC       62              0.0000000000
      1976       152  OAC       O2              8.4170000000       -4.5220000000        7.9700000000  OAC       62              0.0000000000
      1977       152  OAC       DO2             8.4180000000       -4.5040000000        7.9680000000  OAC       62              0.0000000000
      1978       152  OAC       H               8.2670000000       -5.4740000000        8.1180000000  OAC       62              0.0000000000
      1979       152  OAC       LPO1            6.5130000000       -4.7170000000        8.9290000000  OAC       62              0.0000000000
      1980       152  OAC       LPO1            6.2400000000       -4.1910000000        9.0240000000  OAC       62              0.0000000000
      1981       152  OAC       LPO2            8.3750000000       -4.6000000000        7.6310000000  OAC       62              0.0000000000
      1982       152  OAC       LPO2            8.6640000000       -4.5550000000        8.2160000000  OAC       62              0.0000000000
      1983       153  OAC       C1             -5.3540000000        1.7720000000       -3.9870000000  OAC       63              0.0000000000
      1984       153  OAC       DC1            -5.3620000000        1.7760000000       -3.9830000000  OAC       63              0.0000000000
      1985       153  OAC       C2             -6.4100000000        1.4350000000       -2.9910000000  OAC       63              0.0000000000
      1986       153  OAC       DC2            -6.3880000000        1.4330000000       -3.0070000000  OAC       63              0.0000000000
      1987       153  OAC       H1             -7.0080000000        0.5740000000       -3.3560000000  OAC       63              0.0000000000
      1988       153  OAC       H2             -7.0840000000        2.3020000000       -2.8310000000  OAC       63              0.0000000000
      1989       153  OAC       H3             -5.9370000000        1.1620000000       -2.0230000000  OAC       63              0.0000000000
      1990       153  OAC       O1             -5.2230000000        2.8430000000       -4.5650000000  OAC       63              0.0000000000
      1991       153  OAC       DO1            -5.1990000000        2.8110000000       -4.5700000000  OAC       63              0.0000000000
      1992       153  OAC       O2             -4.5170000000        0.7160000000       -4.1930000000  OAC       63              0.0000000000
      1993       153  OAC       DO2            -4.5300000000        0.7120000000       -4.1810000000  OAC       63              0.0000000000
      1994       153  OAC       H              -3.8570000000        1.0020000000       -4.8500000000  OAC       63              0.0000000000
      1995       153  OAC       LPO1           -4.9830000000        2.7400000000       -4.7120000000  OAC       63              0.0000000000
      1996       153  OAC       LPO1           -5.4620000000        2.9550000000       -4.4230000000  OAC       63              0.0000000000
      1997       153  OAC       LPO2           -4.2500000000        0.7220000000       -3.9670000000  OAC       63              0.0000000000
      1998       153  OAC       LPO2           -4.6370000000        0.5090000000       -4.4490000000  OAC       63              0.0000000000
      1999       154  OAC       C1              1.9840000000       -4.7800000000        6.9570000000  OAC       64              0.0000000000
      2000       154  OAC       DC1             1.9810000000       -4.7740000000        6.9500000000  OAC       64              0.0000000000
      2001       154  OAC       C2              1.5560000000       -3.3930000000        6.6160000000  OAC       64              0.0000000000
      2002       154  OAC       DC2             1.5650000000       -3.4150000000        6.6300000000  OAC       64              0.0000000000
      2003       154  OAC       H1              0.6860000000       -3.1050000000        7.2430000000  OAC       64              0.0000000000
      2004       154  OAC       H2              1.2660000000       -3.3290000000        5.5460000000  OAC       64              0.0000000000
      2005       154  OAC       H3              2.3910000000       -2.6860000000        6.8070000000  OAC       64              0.0000000000
      2006       154  OAC       O1              2.0220000000       -5.7320000000        6.1910000000  OAC       64              0.0000000000
      2007       154  OAC       DO1             2.0320000000       -5.7340000000        6.2290000000  OAC       64              0.0000000000
      2008       154  OAC       O2              2.3430000000       -4.8740000000        8.2690000000  OAC       64              0.0000000000
      2009       154  OAC       DO2             2.3380000000       -4.8570000000        8.2640000000  OAC       64              0.0000000000
      2010       154  OAC       H               2.6100000000       -5.7980000000        8.4240000000  OAC       64              0.0000000000
      2011       154  OAC       LPO1            2.1220000000       -5.9110000000        6.4090000000  OAC       64              0.0000000000
      2012       154  OAC       LPO1            1.9220000000       -5.5620000000        5.9640000000  OAC       64              0.0000000000
      2013       154  OAC       LPO2            2.6830000000       -4.8010000000        8.3110000000  OAC       64              0.0000000000
      2014       154  OAC       LPO2            2.0670000000       -4.9520000000        8.4690000000  OAC       64              0.0000000000
      2015       155  OAC       C1              5.9220000000        4.0990000000       -8.0310000000  OAC       65              0.0000000000
      2016       155  OAC       DC1             5.9240000000        4.1080000000       -8.0330000000  OAC       65              0.0000000000
      2017       155  OAC       C2              5.3900000000        5.4910000000       -8.0150000000  OAC       65              0.0000000000
      2018       155  OAC       DC2             5.3920000000        5.4640000000       -8.0120000000  OAC       65              0.0000000000
      2019       155  OAC       H1              4.4530000000        5.5400000000       -8.6080000000  OAC       65              0.0000000000
      2020       155  OAC       H2              6.1300000000        6.1940000000       -8.4510000000  OAC       65              0.0000000000
      2021       155  OAC       H3              5.1730000000        5.7960000000       -6.9690000000  OAC       65              0.0000000000
      2022       155  OAC       O1              7.0140000000        3.7480000000       -8.4560000000  OAC       65              0.0000000000
      2023       155  OAC       DO1             6.9870000000        3.7240000000       -8.4400000000  OAC       65              0.0000000000
      2024       155  OAC       O2              5.0230000000        3.2230000000       -7.4980000000  OAC       65              0.0000000000
      2025       155  OAC       DO2             5.0170000000        3.2400000000       -7.4980000000  OAC       65              0.0000000000
      2026       155  OAC       H               5.4300000000        2.3390000000       -7.5390000000  OAC       65              0.0000000000
      2027       155  OAC       LPO1            6.9560000000        3.4630000000       -8.3850000000  OAC       65              0.0000000000
      2028       155  OAC       LPO1            7.0820000000        4.0320000000       -8.5300000000  OAC       65              0.0000000000
      2029       155  OAC       LPO2            5.0670000000        3.1940000000       -7.1520000000  OAC       65              0.0000000000
      2030       155  OAC       LPO2            4.8060000000        3.1010000000       -7.7440000000  OAC       65              0.0000000000
      2031       156  OAC       C1             -5.7040000000        6.6240000000       -8.6620000000  OAC       66              0.0000000000
      2032       156  OAC       DC1            -5.6990000000        6.6320000000       -8.6600000000  OAC       66              0.0000000000
      2033       156  OAC       C2             -4.3320000000        7.0540000000       -8.2680000000  OAC       66              0.0000000000
      2034       156  OAC       DC2            -4.3540000000        7.0380000000       -8.2740000000  OAC       66              0.0000000000
      2035       156  OAC       H1             -4.1010000000        6.6790000000       -7.2490000000  OAC       66              0.0000000000
      2036       156  OAC       H2             -4.2560000000        8.1620000000       -8.2710000000  OAC       66              0.0000000000
      2037       156  OAC       H3             -3.5910000000        6.6390000000       -8.9840000000  OAC       66              0.0000000000
      2038       156  OAC       O1             -6.6360000000        7.3630000000       -8.9530000000  OAC       66              0.0000000000
      2039       156  OAC       DO1            -6.6380000000        7.3230000000       -8.9520000000  OAC       66              0.0000000000
      2040       156  OAC       O2             -5.8120000000        5.2660000000       -8.6630000000  OAC       66              0.0000000000
      2041       156  OAC       DO2            -5.7950000000        5.2710000000       -8.6580000000  OAC       66              0.0000000000
      2042       156  OAC       H              -6.7260000000        5.0540000000       -8.9270000000  OAC       66              0.0000000000
      2043       156  OAC       LPO1           -6.8150000000        7.1270000000       -9.0000000000  OAC       66              0.0000000000
      2044       156  OAC       LPO1           -6.4650000000        7.6060000000       -8.9070000000  OAC       66              0.0000000000
      2045       156  OAC       LPO2           -5.7240000000        5.1330000000       -8.9750000000  OAC       66              0.0000000000
      2046       156  OAC       LPO2           -5.9090000000        5.1470000000       -8.3480000000  OAC       66              0.0000000000
      2047       157  OAC       C1              5.6520000000        2.9570000000        0.7530000000  OAC       67              0.0000000000
      2048       157  OAC       DC1             5.6610000000        2.9590000000        0.7540000000  OAC       67              0.0000000000
      2049       157  OAC       C2              6.5880000000        3.6120000000        1.7110000000  OAC       67              0.0000000000
      2050       157  OAC       DC2             6.5650000000        3.6020000000        1.7000000000  OAC       67              0.0000000000
      2051       157  OAC       H1              6.2640000000        4.6580000000        1.8940000000  OAC       67              0.0000000000
      2052       157  OAC       H2              7.6200000000        3.6200000000        1.3020000000  OAC       67              0.0000000000
      2053       157  OAC       H3              6.5850000000        3.0580000000        2.6740000000  OAC       67              0.0000000000
      2054       157  OAC       O1              5.9480000000        2.4850000000       -0.3360000000  OAC       67              0.0000000000
      2055       157  OAC       DO1             5.9110000000        2.4850000000       -0.3210000000  OAC       67              0.0000000000
      2056       157  OAC       O2              4.3800000000        2.9390000000        1.2430000000  OAC       67              0.0000000000
      2057       157  OAC       DO2             4.3920000000        2.9470000000        1.2550000000  OAC       67              0.0000000000
      2058       157  OAC       H               3.8250000000        2.5010000000        0.5740000000  OAC       67              0.0000000000
      2059       157  OAC       LPO1            5.6640000000        2.4040000000       -0.3840000000  OAC       67              0.0000000000
      2060       157  OAC       LPO1            6.2360000000        2.5620000000       -0.2980000000  OAC       67              0.0000000000
      2061       157  OAC       LPO2            4.3240000000        2.6510000000        1.4340000000  OAC       67              0.0000000000
      2062       157  OAC       LPO2            4.2070000000        3.2290000000        1.1530000000  OAC       67              0.0000000000
      2063       158  OAC       C1             -2.9990000000       -1.2050000000       -8.5400000000  OAC       68              0.0000000000
      2064       158  OAC       DC1            -2.9990000000       -1.1950000000       -8.5380000000  OAC       68              0.0000000000
      2065       158  OAC       C2             -3.9820000000       -0.1940000000       -8.0570000000  OAC       68              0.0000000000
      2066       158  OAC       DC2            -3.9710000000       -0.2180000000       -8.0650000000  OAC       68              0.0000000000
      2067       158  OAC       H1             -4.8330000000       -0.1310000000       -8.7670000000  OAC       68              0.0000000000
      2068       158  OAC       H2             -3.5040000000        0.8050000000       -7.9760000000  OAC       68              0.0000000000
      2069       158  OAC       H3             -4.3650000000       -0.4930000000       -7.0580000000  OAC       68              0.0000000000
      2070       158  OAC       O1             -1.8250000000       -0.9950000000       -8.8170000000  OAC       68              0.0000000000
      2071       158  OAC       DO1            -1.8430000000       -1.0300000000       -8.8200000000  OAC       68              0.0000000000
      2072       158  OAC       O2             -3.5720000000       -2.4370000000       -8.6440000000  OAC       68              0.0000000000
      2073       158  OAC       DO2            -3.5830000000       -2.4250000000       -8.6380000000  OAC       68              0.0000000000
      2074       158  OAC       H              -2.8800000000       -3.0450000000       -8.9630000000  OAC       68              0.0000000000
      2075       158  OAC       LPO1           -1.7850000000       -1.2830000000       -8.8890000000  OAC       68              0.0000000000
      2076       158  OAC       LPO1           -1.8550000000       -0.7040000000       -8.7480000000  OAC       68              0.0000000000
      2077       158  OAC       LPO2           -3.5450000000       -2.6130000000       -8.3430000000  OAC       68              0.0000000000
      2078       158  OAC       LPO2           -3.7140000000       -2.4830000000       -8.9610000000  OAC       68              0.0000000000
      2079       159  OAC       C1             -3.7200000000        4.6830000000       -0.7280000000  OAC       69              0.0000000000
      2080       159  OAC       DC1            -3.7200000000        4.6920000000       -0.7270000000  OAC       69              0.0000000000
      2081       159  OAC       C2             -4.3950000000        5.9200000000       -1.2140000000  OAC       69              0.0000000000
      2082       159  OAC       DC2            -4.3880000000        5.8930000000       -1.2100000000  OAC       69              0.0000000000
      2083       159  OAC       H1             -4.2340000000        6.0290000000       -2.3060000000  OAC       69              0.0000000000
      2084       159  OAC       H2             -3.9860000000        6.8140000000       -0.6970000000  OAC       69              0.0000000000
      2085       159  OAC       H3             -5.4860000000        5.8540000000       -1.0130000000  OAC       69              0.0000000000
      2086       159  OAC       O1             -2.8370000000        4.6270000000        0.1180000000  OAC       69              0.0000000000
      2087       159  OAC       DO1            -2.8520000000        4.5960000000        0.0990000000  OAC       69              0.0000000000
      2088       159  OAC       O2             -4.2120000000        3.5770000000       -1.3540000000  OAC       69              0.0000000000
      2089       159  OAC       DO2            -4.2200000000        3.5920000000       -1.3590000000  OAC       69              0.0000000000
      2090       159  OAC       H              -3.7310000000        2.8100000000       -0.9930000000  OAC       69              0.0000000000
      2091       159  OAC       LPO1           -2.8230000000        4.3290000000        0.0910000000  OAC       69              0.0000000000
      2092       159  OAC       LPO1           -2.8440000000        4.9260000000        0.1520000000  OAC       69              0.0000000000
      2093       159  OAC       LPO2           -4.4870000000        3.4470000000       -1.1800000000  OAC       69              0.0000000000
      2094       159  OAC       LPO2           -4.0350000000        3.5100000000       -1.6480000000  OAC       69              0.0000000000
      2095       160  OAC       C1              6.5780000000        1.7020000000       -5.6180000000  OAC       70              0.0000000000
      2096       160  OAC       DC1             6.5710000000        1.7020000000       -5.6120000000  OAC       70              0.0000000000
      2097       160  OAC       C2              6.1360000000        2.5110000000       -4.4470000000  OAC       70              0.0000000000
      2098       160  OAC       DC2             6.1500000000        2.5010000000       -4.4680000000  OAC       70              0.0000000000
      2099       160  OAC       H1              6.8940000000        2.4450000000       -3.6390000000  OAC       70              0.0000000000
      2100       160  OAC       H2              5.1640000000        2.1360000000       -4.0620000000  OAC       70              0.0000000000
      2101       160  OAC       H3              6.0200000000        3.5730000000       -4.7490000000  OAC       70              0.0000000000
      2102       160  OAC       O1              5.9790000000        0.7550000000       -6.1090000000  OAC       70              0.0000000000
      2103       160  OAC       DO1             6.0140000000        0.7680000000       -6.1220000000  OAC       70              0.0000000000
      2104       160  OAC       O2              7.7710000000        2.1500000000       -6.1020000000  OAC       70              0.0000000000
      2105       160  OAC       DO2             7.7650000000        2.1600000000       -6.0880000000  OAC       70              0.0000000000
      2106       160  OAC       H               8.0010000000        1.5820000000       -6.8600000000  OAC       70              0.0000000000
      2107       160  OAC       LPO1            6.1940000000        0.7180000000       -6.3150000000  OAC       70              0.0000000000
      2108       160  OAC       LPO1            5.7580000000        0.7820000000       -5.9060000000  OAC       70              0.0000000000
      2109       160  OAC       LPO2            7.7220000000        2.4000000000       -6.3430000000  OAC       70              0.0000000000
      2110       160  OAC       LPO2            8.0390000000        1.9920000000       -5.9420000000  OAC       70              0.0000000000
      2111       161  OAC       C1             -2.6400000000        3.8940000000       -5.0360000000  OAC       71              0.0000000000
      2112       161  OAC       DC1            -2.6450000000        3.9010000000       -5.0330000000  OAC       71              0.0000000000
      2113       161  OAC       C2             -2.9610000000        5.2740000000       -5.4970000000  OAC       71              0.0000000000
      2114       161  OAC       DC2            -2.9500000000        5.2490000000       -5.4950000000  OAC       71              0.0000000000
      2115       161  OAC       H1             -2.0440000000        5.8990000000       -5.4750000000  OAC       71              0.0000000000
      2116       161  OAC       H2             -3.7270000000        5.7350000000       -4.8380000000  OAC       71              0.0000000000
      2117       161  OAC       H3             -3.3510000000        5.2400000000       -6.5360000000  OAC       71              0.0000000000
      2118       161  OAC       O1             -3.1330000000        3.3210000000       -4.0730000000  OAC       71              0.0000000000
      2119       161  OAC       DO1            -3.1050000000        3.3060000000       -4.0970000000  OAC       71              0.0000000000
      2120       161  OAC       O2             -1.7000000000        3.3150000000       -5.8350000000  OAC       71              0.0000000000
      2121       161  OAC       DO2            -1.7040000000        3.3320000000       -5.8410000000  OAC       71              0.0000000000
      2122       161  OAC       H              -1.5370000000        2.4220000000       -5.4810000000  OAC       71              0.0000000000
      2123       161  OAC       LPO1           -2.9670000000        3.0780000000       -4.1260000000  OAC       71              0.0000000000
      2124       161  OAC       LPO1           -3.3030000000        3.5610000000       -4.0110000000  OAC       71              0.0000000000
      2125       161  OAC       LPO2           -1.8500000000        3.1480000000       -6.1040000000  OAC       71              0.0000000000
      2126       161  OAC       LPO2           -1.3770000000        3.3860000000       -5.7200000000  OAC       71              0.0000000000
      2127       162  OAC       C1             -0.8740000000        7.4810000000        5.8550000000  OAC       72              0.0000000000
      2128       162  OAC       DC1            -0.8790000000        7.4740000000        5.8600000000  OAC       72              0.0000000000
      2129       162  OAC       C2             -1.5090000000        7.2030000000        7.1750000000  OAC       72              0.0000000000
      2130       162  OAC       DC2            -1.4950000000        7.2160000000        7.1550000000  OAC       72              0.0000000000
      2131       162  OAC       H1             -0.7440000000        7.2590000000        7.9770000000  OAC       72              0.0000000000
      2132       162  OAC       H2             -1.9650000000        6.1910000000        7.1810000000  OAC       72              0.0000000000
      2133       162  OAC       H3             -2.3000000000        7.9570000000        7.3760000000  OAC       72              0.0000000000
      2134       162  OAC       O1             -0.8430000000        6.7230000000        4.8960000000  OAC       72              0.0000000000
      2135       162  OAC       DO1            -0.8270000000        6.7590000000        4.8960000000  OAC       72              0.0000000000
      2136       162  OAC       O2             -0.3100000000        8.7210000000        5.8330000000  OAC       72              0.0000000000
      2137       162  OAC       DO2            -0.3180000000        8.7180000000        5.8490000000  OAC       72              0.0000000000
      2138       162  OAC       H               0.0840000000        8.8380000000        4.9500000000  OAC       72              0.0000000000
      2139       162  OAC       LPO1           -0.6910000000        6.9240000000        4.7350000000  OAC       72              0.0000000000
      2140       162  OAC       LPO1           -0.9950000000        6.5140000000        5.0490000000  OAC       72              0.0000000000
      2141       162  OAC       LPO2           -0.5410000000        8.9630000000        5.7280000000  OAC       72              0.0000000000
      2142       162  OAC       LPO2            0.0220000000        8.7110000000        5.9460000000  OAC       72              0.0000000000
      2143       163  OAC       C1              1.5050000000        6.9820000000       -7.0010000000  OAC       73              0.0000000000
      2144       163  OAC       DC1             1.5050000000        6.9850000000       -6.9920000000  OAC       73              0.0000000000
      2145       163  OAC       C2              1.5430000000        8.2710000000       -6.2530000000  OAC       73              0.0000000000
      2146       163  OAC       DC2             1.5420000000        8.2520000000       -6.2740000000  OAC       73              0.0000000000
      2147       163  OAC       H1              2.4700000000        8.8250000000       -6.5100000000  OAC       73              0.0000000000
      2148       163  OAC       H2              1.5230000000        8.0850000000       -5.1590000000  OAC       73              0.0000000000
      2149       163  OAC       H3              0.6630000000        8.8900000000       -6.5310000000  OAC       73              0.0000000000
      2150       163  OAC       O1              1.4590000000        5.8630000000       -6.5080000000  OAC       73              0.0000000000
      2151       163  OAC       DO1             1.4600000000        5.8700000000       -6.5470000000  OAC       73              0.0000000000
      2152       163  OAC       O2              1.5280000000        7.1940000000       -8.3470000000  OAC       73              0.0000000000
      2153       163  OAC       DO2             1.5280000000        7.2090000000       -8.3380000000  OAC       73              0.0000000000
      2154       163  OAC       H               1.5020000000        6.3180000000       -8.7730000000  OAC       73              0.0000000000
      2155       163  OAC       LPO1            1.4570000000        5.7370000000       -6.7800000000  OAC       73              0.0000000000
      2156       163  OAC       LPO1            1.4600000000        5.9790000000       -6.2310000000  OAC       73              0.0000000000
      2157       163  OAC       LPO2            1.2030000000        7.2310000000       -8.4740000000  OAC       73              0.0000000000
      2158       163  OAC       LPO2            1.8570000000        7.2080000000       -8.4670000000  OAC       73              0.0000000000
      2159       164  OAC       C1              7.8310000000       -0.9700000000        4.1510000000  OAC       74              0.0000000000
      2160       164  OAC       DC1             7.8260000000       -0.9780000000        4.1490000000  OAC       74              0.0000000000
      2161       164  OAC       C2              6.4790000000       -1.3950000000        3.6910000000  OAC       74              0.0000000000
      2162       164  OAC       DC2             6.5000000000       -1.3800000000        3.6980000000  OAC       74              0.0000000000
      2163       164  OAC       H1              5.7040000000       -0.9720000000        4.3640000000  OAC       74              0.0000000000
      2164       164  OAC       H2              6.3970000000       -2.5020000000        3.6980000000  OAC       74              0.0000000000
      2165       164  OAC       H3              6.3020000000       -1.0260000000        2.6580000000  OAC       74              0.0000000000
      2166       164  OAC       O1              8.7430000000       -1.7100000000        4.4940000000  OAC       74              0.0000000000
      2167       164  OAC       DO1             8.7450000000       -1.6710000000        4.4940000000  OAC       74              0.0000000000
      2168       164  OAC       O2              7.9470000000        0.3880000000        4.1470000000  OAC       74              0.0000000000
      2169       164  OAC       DO2             7.9300000000        0.3830000000        4.1420000000  OAC       74              0.0000000000
      2170       164  OAC       H               8.8470000000        0.5970000000        4.4560000000  OAC       74              0.0000000000
      2171       164  OAC       LPO1            8.9210000000       -1.4750000000        4.5480000000  OAC       74              0.0000000000
      2172       164  OAC       LPO1            8.5730000000       -1.9530000000        4.4420000000  OAC       74              0.0000000000
      2173       164  OAC       LPO2            8.0600000000        0.5040000000        3.8360000000  OAC       74              0.0000000000
      2174       164  OAC       LPO2            7.8440000000        0.5240000000        4.4530000000  OAC       74              0.0000000000
      2175       165  OAC       C1              6.3930000000        7.7990000000       -0.4080000000  OAC       75              0.0000000000
      2176       165  OAC       DC1             6.4020000000        7.7990000000       -0.4060000000  OAC       75              0.0000000000
      2177       165  OAC       C2              7.4270000000        7.0580000000        0.3700000000  OAC       75              0.0000000000
      2178       165  OAC       DC2             7.4030000000        7.0650000000        0.3580000000  OAC       75              0.0000000000
      2179       165  OAC       H1              7.1170000000        6.9900000000        1.4330000000  OAC       75              0.0000000000
      2180       165  OAC       H2              8.4050000000        7.5810000000        0.3110000000  OAC       75              0.0000000000
      2181       165  OAC       H3              7.5400000000        6.0320000000       -0.0410000000  OAC       75              0.0000000000
      2182       165  OAC       O1              6.5660000000        8.8360000000       -1.0330000000  OAC       75              0.0000000000
      2183       165  OAC       DO1             6.5310000000        8.8170000000       -1.0300000000  OAC       75              0.0000000000
      2184       165  OAC       O2              5.1860000000        7.1680000000       -0.3460000000  OAC       75              0.0000000000
      2185       165  OAC       DO2             5.1990000000        7.1590000000       -0.3370000000  OAC       75              0.0000000000
      2186       165  OAC       H               4.5610000000        7.7000000000       -0.8710000000  OAC       75              0.0000000000
      2187       165  OAC       LPO1            6.2790000000        8.8400000000       -1.1180000000  OAC       75              0.0000000000
      2188       165  OAC       LPO1            6.8560000000        8.8430000000       -0.9530000000  OAC       75              0.0000000000
      2189       165  OAC       LPO2            5.1540000000        6.9330000000       -0.6040000000  OAC       75              0.0000000000
      2190       165  OAC       LPO2            5.0010000000        7.2790000000       -0.0700000000  OAC       75              0.0000000000
      2191       166  OAC       C1             -6.8470000000       -3.5890000000        1.6350000000  OAC       76              0.0000000000
      2192       166  OAC       DC1            -6.8430000000       -3.5830000000        1.6280000000  OAC       76              0.0000000000
      2193       166  OAC       C2             -5.8370000000       -3.4840000000        0.5430000000  OAC       76              0.0000000000
      2194       166  OAC       DC2            -5.8520000000       -3.4940000000        0.5640000000  OAC       76              0.0000000000
      2195       166  OAC       H1             -4.8160000000       -3.5810000000        0.9670000000  OAC       76              0.0000000000
      2196       166  OAC       H2             -5.9220000000       -2.5040000000        0.0280000000  OAC       76              0.0000000000
      2197       166  OAC       H3             -6.0010000000       -4.2970000000       -0.1970000000  OAC       76              0.0000000000
      2198       166  OAC       O1             -7.6660000000       -2.7340000000        1.9440000000  OAC       76              0.0000000000
      2199       166  OAC       DO1            -7.6620000000       -2.7690000000        1.9620000000  OAC       76              0.0000000000
      2200       166  OAC       O2             -6.7540000000       -4.7880000000        2.2760000000  OAC       76              0.0000000000
      2201       166  OAC       DO2            -6.7420000000       -4.7860000000        2.2630000000  OAC       76              0.0000000000
      2202       166  OAC       H              -7.4360000000       -4.7900000000        2.9720000000  OAC       76              0.0000000000
      2203       166  OAC       LPO1           -7.7740000000       -2.9090000000        2.1620000000  OAC       76              0.0000000000
      2204       166  OAC       LPO1           -7.5640000000       -2.5510000000        1.7290000000  OAC       76              0.0000000000
      2205       166  OAC       LPO2           -6.9550000000       -5.0290000000        2.1210000000  OAC       76              0.0000000000
      2206       166  OAC       LPO2           -6.5270000000       -4.7710000000        2.5420000000  OAC       76              0.0000000000
      2207       167  OAC       C1             -4.9600000000        8.6010000000       -0.7040000000  OAC       77              0.0000000000
      2208       167  OAC       DC1            -4.9540000000        8.5990000000       -0.7120000000  OAC       77              0.0000000000
      2209       167  OAC       C2             -4.9450000000        8.1290000000       -2.1190000000  OAC       77              0.0000000000
      2210       167  OAC       DC2            -4.9540000000        8.1360000000       -2.0930000000  OAC       77              0.0000000000
      2211       167  OAC       H1             -5.3700000000        7.1050000000       -2.1760000000  OAC       77              0.0000000000
      2212       167  OAC       H2             -3.9070000000        8.1120000000       -2.5110000000  OAC       77              0.0000000000
      2213       167  OAC       H3             -5.5580000000        8.8100000000       -2.7460000000  OAC       77              0.0000000000
      2214       167  OAC       O1             -3.9840000000        8.9300000000       -0.0430000000  OAC       77              0.0000000000
      2215       167  OAC       DO1            -4.0220000000        8.9300000000       -0.0300000000  OAC       77              0.0000000000
      2216       167  OAC       O2             -6.2290000000        8.6270000000       -0.2090000000  OAC       77              0.0000000000
      2217       167  OAC       DO2            -6.2290000000        8.6220000000       -0.2260000000  OAC       77              0.0000000000
      2218       167  OAC       H              -6.1680000000        8.9420000000        0.7120000000  OAC       77              0.0000000000
      2219       167  OAC       LPO1           -4.1580000000        8.9900000000        0.1930000000  OAC       77              0.0000000000
      2220       167  OAC       LPO1           -3.8010000000        8.8720000000       -0.2750000000  OAC       77              0.0000000000
      2221       167  OAC       LPO2           -6.3820000000        8.9360000000       -0.2720000000  OAC       77              0.0000000000
      2222       167  OAC       LPO2           -6.3140000000        8.3190000000       -0.0650000000  OAC       77              0.0000000000
      2223       168  OAC       C1              7.5920000000        6.9580000000        8.5660000000  OAC       78              0.0000000000
      2224       168  OAC       DC1             7.5860000000        6.9650000000        8.5640000000  OAC       78              0.0000000000
      2225       168  OAC       C2              7.6370000000        8.3860000000        8.1410000000  OAC       78              0.0000000000
      2226       168  OAC       DC2             7.6440000000        8.3610000000        8.1480000000  OAC       78              0.0000000000
      2227       168  OAC       H1              8.2020000000        8.9810000000        8.8890000000  OAC       78              0.0000000000
      2228       168  OAC       H2              6.6090000000        8.7980000000        8.0550000000  OAC       78              0.0000000000
      2229       168  OAC       H3              8.1430000000        8.4680000000        7.1560000000  OAC       78              0.0000000000
      2230       168  OAC       O1              6.5830000000        6.3040000000        8.7940000000  OAC       78              0.0000000000
      2231       168  OAC       DO1             6.6200000000        6.2900000000        8.7970000000  OAC       78              0.0000000000
      2232       168  OAC       O2              8.8470000000        6.4390000000        8.6760000000  OAC       78              0.0000000000
      2233       168  OAC       DO2             8.8480000000        6.4560000000        8.6710000000  OAC       78              0.0000000000
      2234       168  OAC       H               8.7470000000        5.5110000000        8.9550000000  OAC       78              0.0000000000
      2235       168  OAC       LPO1            6.7480000000        6.0630000000        8.8600000000  OAC       78              0.0000000000
      2236       168  OAC       LPO1            6.4090000000        6.5410000000        8.7300000000  OAC       78              0.0000000000
      2237       168  OAC       LPO2            8.9540000000        6.3030000000        8.3710000000  OAC       78              0.0000000000
      2238       168  OAC       LPO2            8.9760000000        6.4890000000        8.9980000000  OAC       78              0.0000000000
      2239       169  OAC       C1              8.6670000000       -1.8570000000       -0.9440000000  OAC       79              0.0000000000
      2240       169  OAC       DC1             8.6670000000       -1.8650000000       -0.9380000000  OAC       79              0.0000000000
      2241       169  OAC       C2              8.3920000000       -3.3220000000       -0.9140000000  OAC       79              0.0000000000
      2242       169  OAC       DC2             8.3950000000       -3.2960000000       -0.9220000000  OAC       79              0.0000000000
      2243       169  OAC       H1              7.3380000000       -3.5100000000       -1.2090000000  OAC       79              0.0000000000
      2244       169  OAC       H2              8.5590000000       -3.7270000000        0.1060000000  OAC       79              0.0000000000
      2245       169  OAC       H3              9.0660000000       -3.8440000000       -1.6250000000  OAC       79              0.0000000000
      2246       169  OAC       O1              9.0280000000       -1.1710000000        0.0030000000  OAC       79              0.0000000000
      2247       169  OAC       DO1             9.0210000000       -1.1570000000       -0.0340000000  OAC       79              0.0000000000
      2248       169  OAC       O2              8.4660000000       -1.3450000000       -2.1910000000  OAC       79              0.0000000000
      2249       169  OAC       DO2             8.4630000000       -1.3630000000       -2.1910000000  OAC       79              0.0000000000
      2250       169  OAC       H               8.6610000000       -0.3920000000       -2.1410000000  OAC       79              0.0000000000
      2251       169  OAC       LPO1            9.0340000000       -0.9260000000       -0.1700000000  OAC       79              0.0000000000
      2252       169  OAC       LPO1            9.0250000000       -1.4100000000        0.1850000000  OAC       79              0.0000000000
      2253       169  OAC       LPO2            8.7580000000       -1.3640000000       -2.3830000000  OAC       79              0.0000000000
      2254       169  OAC       LPO2            8.1330000000       -1.2430000000       -2.2330000000  OAC       79              0.0000000000
      2255       170  OAC       C1             -1.1150000000       -7.7380000000        8.5610000000  OAC       80              0.0000000000
      2256       170  OAC       DC1            -1.1060000000       -7.7340000000        8.5610000000  OAC       80              0.0000000000
      2257       170  OAC       C2              0.2960000000       -8.1370000000        8.2890000000  OAC       80              0.0000000000
      2258       170  OAC       DC2             0.2680000000       -8.1380000000        8.2920000000  OAC       80              0.0000000000
      2259       170  OAC       H1              0.5910000000       -8.9560000000        8.9760000000  OAC       80              0.0000000000
      2260       170  OAC       H2              0.9790000000       -7.2750000000        8.4390000000  OAC       80              0.0000000000
      2261       170  OAC       H3              0.3880000000       -8.4930000000        7.2400000000  OAC       80              0.0000000000
      2262       170  OAC       O1             -1.4970000000       -6.6270000000        8.9020000000  OAC       80              0.0000000000
      2263       170  OAC       DO1            -1.5210000000       -6.6580000000        8.8970000000  OAC       80              0.0000000000
      2264       170  OAC       O2             -1.9660000000       -8.7870000000        8.3800000000  OAC       80              0.0000000000
      2265       170  OAC       DO2            -1.9490000000       -8.7910000000        8.3760000000  OAC       80              0.0000000000
      2266       170  OAC       H              -2.8630000000       -8.4600000000        8.5720000000  OAC       80              0.0000000000
      2267       170  OAC       LPO1           -1.7810000000       -6.7210000000        8.9100000000  OAC       80              0.0000000000
      2268       170  OAC       LPO1           -1.2150000000       -6.5220000000        8.8980000000  OAC       80              0.0000000000
      2269       170  OAC       LPO2           -2.0760000000       -8.8030000000        8.0470000000  OAC       80              0.0000000000
      2270       170  OAC       LPO2           -2.0030000000       -8.9710000000        8.6750000000  OAC       80              0.0000000000
      2271       171  OAC       C1             -7.5640000000       -0.4570000000        1.0300000000  OAC       81              0.0000000000
      2272       171  OAC       DC1            -7.5700000000       -0.4600000000        1.0230000000  OAC       81              0.0000000000
      2273       171  OAC       C2             -7.5790000000       -1.1850000000       -0.2710000000  OAC       81              0.0000000000
      2274       171  OAC       DC2            -7.5710000000       -1.1730000000       -0.2470000000  OAC       81              0.0000000000
      2275       171  OAC       H1             -7.0190000000       -0.6030000000       -1.0320000000  OAC       81              0.0000000000
      2276       171  OAC       H2             -8.6220000000       -1.3300000000       -0.6220000000  OAC       81              0.0000000000
      2277       171  OAC       H3             -7.0980000000       -2.1790000000       -0.1480000000  OAC       81              0.0000000000
      2278       171  OAC       O1             -8.5440000000       -0.0620000000        1.6470000000  OAC       81              0.0000000000
      2279       171  OAC       DO1            -8.5060000000       -0.0570000000        1.6590000000  OAC       81              0.0000000000
      2280       171  OAC       O2             -6.2890000000       -0.2720000000        1.4740000000  OAC       81              0.0000000000
      2281       171  OAC       DO2            -6.2890000000       -0.2810000000        1.4590000000  OAC       81              0.0000000000
      2282       171  OAC       H              -6.3500000000        0.2060000000        2.3210000000  OAC       81              0.0000000000
      2283       171  OAC       LPO1           -8.3690000000        0.0510000000        1.8630000000  OAC       81              0.0000000000
      2284       171  OAC       LPO1           -8.7280000000       -0.1700000000        1.4360000000  OAC       81              0.0000000000
      2285       171  OAC       LPO2           -6.1840000000       -0.5430000000        1.6700000000  OAC       81              0.0000000000
      2286       171  OAC       LPO2           -6.1550000000        0.0270000000        1.3510000000  OAC       81              0.0000000000
      2287       172  OAC       C1             -2.7870000000       -2.9280000000        0.4460000000  OAC       82              0.0000000000
      2288       172  OAC       DC1            -2.7860000000       -2.9330000000        0.4380000000  OAC       82              0.0000000000
      2289       172  OAC       C2             -3.1100000000       -2.9750000000       -1.0090000000  OAC       82              0.0000000000
      2290       172  OAC       DC2            -3.1080000000       -2.9670000000       -0.9830000000  OAC       82              0.0000000000
      2291       172  OAC       H1             -4.2110000000       -2.9890000000       -1.1470000000  OAC       82              0.0000000000
      2292       172  OAC       H2             -2.6760000000       -3.8840000000       -1.4740000000  OAC       82              0.0000000000
      2293       172  OAC       H3             -2.6940000000       -2.0770000000       -1.5130000000  OAC       82              0.0000000000
      2294       172  OAC       O1             -2.1380000000       -3.7580000000        1.0680000000  OAC       82              0.0000000000
      2295       172  OAC       DO1            -2.1540000000       -3.7250000000        1.0830000000  OAC       82              0.0000000000
      2296       172  OAC       O2             -3.3140000000       -1.8150000000        1.0300000000  OAC       82              0.0000000000
      2297       172  OAC       DO2            -3.3180000000       -1.8160000000        1.0130000000  OAC       82              0.0000000000
      2298       172  OAC       H              -3.0680000000       -1.8470000000        1.9730000000  OAC       82              0.0000000000
      2299       172  OAC       LPO1           -2.1700000000       -3.6010000000        1.3210000000  OAC       82              0.0000000000
      2300       172  OAC       LPO1           -2.0990000000       -3.9220000000        0.8190000000  OAC       82              0.0000000000
      2301       172  OAC       LPO2           -3.0900000000       -1.5460000000        1.0120000000  OAC       82              0.0000000000
      2302       172  OAC       LPO2           -3.6390000000       -1.8760000000        1.1450000000  OAC       82              0.0000000000
      2303       173  OAC       C1              0.6700000000        3.2680000000       -4.4630000000  OAC       83              0.0000000000
      2304       173  OAC       DC1             0.6640000000        3.2750000000       -4.4660000000  OAC       83              0.0000000000
      2305       173  OAC       C2              0.6930000000        4.5090000000       -5.2890000000  OAC       83              0.0000000000
      2306       173  OAC       DC2             0.7010000000        4.4850000000       -5.2760000000  OAC       83              0.0000000000
      2307       173  OAC       H1              1.4480000000        5.2140000000       -4.8830000000  OAC       83              0.0000000000
      2308       173  OAC       H2             -0.3020000000        5.0000000000       -5.2800000000  OAC       83              0.0000000000
      2309       173  OAC       H3              0.9620000000        4.2550000000       -6.3370000000  OAC       83              0.0000000000
      2310       173  OAC       O1             -0.2930000000        2.8270000000       -3.8500000000  OAC       83              0.0000000000
      2311       173  OAC       DO1            -0.2570000000        2.8110000000       -3.8510000000  OAC       83              0.0000000000
      2312       173  OAC       O2              1.8860000000        2.6530000000       -4.4650000000  OAC       83              0.0000000000
      2313       173  OAC       DO2             1.8860000000        2.6680000000       -4.4750000000  OAC       83              0.0000000000
      2314       173  OAC       H               1.8020000000        1.8560000000       -3.9110000000  OAC       83              0.0000000000
      2315       173  OAC       LPO1           -0.1310000000        2.5950000000       -3.7510000000  OAC       83              0.0000000000
      2316       173  OAC       LPO1           -0.4650000000        3.0560000000       -3.9430000000  OAC       83              0.0000000000
      2317       173  OAC       LPO2            1.9120000000        2.4270000000       -4.7320000000  OAC       83              0.0000000000
      2318       173  OAC       LPO2            2.0880000000        2.7740000000       -4.2060000000  OAC       83              0.0000000000
      2319       174  OAC       C1              0.7140000000        6.0940000000        1.8580000000  OAC       84              0.0000000000
      2320       174  OAC       DC1             0.7170000000        6.0870000000        1.8640000000  OAC       84              0.0000000000
      2321       174  OAC       C2              0.1910000000        5.0120000000        2.7410000000  OAC       84              0.0000000000
      2322       174  OAC       DC2             0.1930000000        5.0330000000        2.7230000000  OAC       84              0.0000000000
      2323       174  OAC       H1             -0.4510000000        5.4520000000        3.5310000000  OAC       84              0.0000000000
      2324       174  OAC       H2              1.0290000000        4.4630000000        3.2200000000  OAC       84              0.0000000000
      2325       174  OAC       H3             -0.4110000000        4.2980000000        2.1390000000  OAC       84              0.0000000000
      2326       174  OAC       O1              1.8920000000        6.3640000000        1.6680000000  OAC       84              0.0000000000
      2327       174  OAC       DO1             1.8610000000        6.3840000000        1.6520000000  OAC       84              0.0000000000
      2328       174  OAC       O2             -0.3040000000        6.7770000000        1.2630000000  OAC       84              0.0000000000
      2329       174  OAC       DO2            -0.3110000000        6.7630000000        1.2730000000  OAC       84              0.0000000000
      2330       174  OAC       H               0.1030000000        7.4640000000        0.7050000000  OAC       84              0.0000000000
      2331       174  OAC       LPO1            1.8160000000        6.5860000000        1.4820000000  OAC       84              0.0000000000
      2332       174  OAC       LPO1            1.9780000000        6.1440000000        1.8540000000  OAC       84              0.0000000000
      2333       174  OAC       LPO2           -0.3950000000        6.6270000000        0.9590000000  OAC       84              0.0000000000
      2334       174  OAC       LPO2           -0.4090000000        7.0450000000        1.4620000000  OAC       84              0.0000000000
      2335       175  OAC       C1             -3.8450000000        7.6640000000        4.4800000000  OAC       85              0.0000000000
      2336       175  OAC       DC1            -3.8360000000        7.6600000000        4.4810000000  OAC       85              0.0000000000
      2337       175  OAC       C2             -3.1570000000        6.3460000000        4.3700000000  OAC       85              0.0000000000
      2338       175  OAC       DC2            -3.1760000000        6.3660000000        4.3690000000  OAC       85              0.0000000000
      2339       175  OAC       H1             -3.6880000000        5.5950000000        4.9900000000  OAC       85              0.0000000000
      2340       175  OAC       H2             -2.1060000000        6.4270000000        4.7200000000  OAC       85              0.0000000000
      2341       175  OAC       H3             -3.1600000000        6.0100000000        3.3110000000  OAC       85              0.0000000000
      2342       175  OAC       O1             -3.3500000000        8.7040000000        4.8920000000  OAC       85              0.0000000000
      2343       175  OAC       DO1            -3.3870000000        8.7010000000        4.8800000000  OAC       85              0.0000000000
      2344       175  OAC       O2             -5.1360000000        7.5810000000        4.0530000000  OAC       85              0.0000000000
      2345       175  OAC       DO2            -5.1280000000        7.5650000000        4.0510000000  OAC       85              0.0000000000
      2346       175  OAC       H              -5.5250000000        8.4690000000        4.1500000000  OAC       85              0.0000000000
      2347       175  OAC       LPO1           -3.6070000000        8.8510000000        4.8480000000  OAC       85              0.0000000000
      2348       175  OAC       LPO1           -3.0870000000        8.5670000000        4.9410000000  OAC       85              0.0000000000
      2349       175  OAC       LPO2           -5.1590000000        7.6430000000        3.7080000000  OAC       85              0.0000000000
      2350       175  OAC       LPO2           -5.3500000000        7.4930000000        4.3150000000  OAC       85              0.0000000000
      2351       176  OAC       C1              1.3350000000       -0.7770000000       -8.1510000000  OAC       86              0.0000000000
      2352       176  OAC       DC1             1.3380000000       -0.7860000000       -8.1470000000  OAC       86              0.0000000000
      2353       176  OAC       C2              0.9920000000       -1.8620000000       -7.1870000000  OAC       86              0.0000000000
      2354       176  OAC       DC2             0.9910000000       -1.8390000000       -7.2020000000  OAC       86              0.0000000000
      2355       176  OAC       H1              0.9430000000       -1.4480000000       -6.1590000000  OAC       86              0.0000000000
      2356       176  OAC       H2              1.7590000000       -2.6640000000       -7.2170000000  OAC       86              0.0000000000
      2357       176  OAC       H3              0.0040000000       -2.2970000000       -7.4500000000  OAC       86              0.0000000000
      2358       176  OAC       O1              2.3140000000       -0.7460000000       -8.8830000000  OAC       86              0.0000000000
      2359       176  OAC       DO1             2.2870000000       -0.7170000000       -8.8810000000  OAC       86              0.0000000000
      2360       176  OAC       O2              0.4010000000        0.2150000000       -8.1250000000  OAC       86              0.0000000000
      2361       176  OAC       DO2             0.3970000000        0.2020000000       -8.1140000000  OAC       86              0.0000000000
      2362       176  OAC       H               0.6840000000        0.8870000000       -8.7720000000  OAC       86              0.0000000000
      2363       176  OAC       LPO1            2.2290000000       -0.4810000000       -8.9950000000  OAC       86              0.0000000000
      2364       176  OAC       LPO1            2.4090000000       -1.0110000000       -8.7770000000  OAC       86              0.0000000000
      2365       176  OAC       LPO2            0.1430000000        0.1500000000       -8.3520000000  OAC       86              0.0000000000
      2366       176  OAC       LPO2            0.4820000000        0.4570000000       -7.8850000000  OAC       86              0.0000000000
      2367       177  OAC       C1              0.4390000000        0.0390000000        8.6560000000  OAC       87              0.0000000000
      2368       177  OAC       DC1             0.4340000000        0.0480000000        8.6550000000  OAC       87              0.0000000000
      2369       177  OAC       C2             -0.8990000000        0.5770000000        8.2780000000  OAC       87              0.0000000000
      2370       177  OAC       DC2            -0.8790000000        0.5600000000        8.2840000000  OAC       87              0.0000000000
      2371       177  OAC       H1             -1.1650000000        0.2350000000        7.2570000000  OAC       87              0.0000000000
      2372       177  OAC       H2             -0.8910000000        1.6870000000        8.2970000000  OAC       87              0.0000000000
      2373       177  OAC       H3             -1.6650000000        0.2100000000        8.9940000000  OAC       87              0.0000000000
      2374       177  OAC       O1              1.4250000000        0.7010000000        8.9500000000  OAC       87              0.0000000000
      2375       177  OAC       DO1             1.4240000000        0.6610000000        8.9490000000  OAC       87              0.0000000000
      2376       177  OAC       O2              0.4430000000       -1.3230000000        8.6380000000  OAC       87              0.0000000000
      2377       177  OAC       DO2             0.4270000000       -1.3170000000        8.6340000000  OAC       87              0.0000000000
      2378       177  OAC       H               1.3400000000       -1.6070000000        8.8930000000  OAC       87              0.0000000000
      2379       177  OAC       LPO1            1.5860000000        0.4510000000        8.9930000000  OAC       87              0.0000000000
      2380       177  OAC       LPO1            1.2730000000        0.9560000000        8.9090000000  OAC       87              0.0000000000
      2381       177  OAC       LPO2            0.3470000000       -1.4530000000        8.9500000000  OAC       87              0.0000000000
      2382       177  OAC       LPO2            0.5280000000       -1.4450000000        8.3210000000  OAC       87              0.0000000000
      2383       178  OAC       C1              5.1930000000        7.2920000000        2.1130000000  OAC       88              0.0000000000
      2384       178  OAC       DC1             5.1930000000        7.3000000000        2.1080000000  OAC       88              0.0000000000
      2385       178  OAC       C2              4.3140000000        8.1460000000        1.2630000000  OAC       88              0.0000000000
      2386       178  OAC       DC2             4.3230000000        8.1250000000        1.2800000000  OAC       88              0.0000000000
      2387       178  OAC       H1              3.8980000000        7.5410000000        0.4310000000  OAC       88              0.0000000000
      2388       178  OAC       H2              4.8910000000        8.9940000000        0.8400000000  OAC       88              0.0000000000
      2389       178  OAC       H3              3.4780000000        8.5460000000        1.8740000000  OAC       88              0.0000000000
      2390       178  OAC       O1              6.3820000000        7.4740000000        2.3330000000  OAC       88              0.0000000000
      2391       178  OAC       DO1             6.3610000000        7.4440000000        2.3470000000  OAC       88              0.0000000000
      2392       178  OAC       O2              4.4980000000        6.2450000000        2.6410000000  OAC       88              0.0000000000
      2393       178  OAC       DO2             4.4870000000        6.2550000000        2.6310000000  OAC       88              0.0000000000
      2394       178  OAC       H               5.1250000000        5.7310000000        3.1810000000  OAC       88              0.0000000000
      2395       178  OAC       LPO1            6.3930000000        7.2300000000        2.5060000000  OAC       88              0.0000000000
      2396       178  OAC       LPO1            6.3820000000        7.7210000000        2.1610000000  OAC       88              0.0000000000
      2397       178  OAC       LPO2            4.3530000000        6.3320000000        2.9480000000  OAC       88              0.0000000000
      2398       178  OAC       LPO2            4.5050000000        5.9680000000        2.4260000000  OAC       88              0.0000000000
      2399       179  OAC       C1             -4.2850000000        4.6180000000        8.3930000000  OAC       89              0.0000000000
      2400       179  OAC       DC1            -4.2770000000        4.6220000000        8.3960000000  OAC       89              0.0000000000
      2401       179  OAC       C2             -2.8170000000        4.3680000000        8.4620000000  OAC       89              0.0000000000
      2402       179  OAC       DC2            -2.8440000000        4.3650000000        8.4570000000  OAC       89              0.0000000000
      2403       179  OAC       H1             -2.6250000000        3.4160000000        9.0000000000  OAC       89              0.0000000000
      2404       179  OAC       H2             -2.3070000000        5.1960000000        8.9990000000  OAC       89              0.0000000000
      2405       179  OAC       H3             -2.4020000000        4.2940000000        7.4340000000  OAC       89              0.0000000000
      2406       179  OAC       O1             -4.8740000000        5.5870000000        8.8520000000  OAC       89              0.0000000000
      2407       179  OAC       DO1            -4.8920000000        5.5570000000        8.8330000000  OAC       89              0.0000000000
      2408       179  OAC       O2             -4.9250000000        3.6100000000        7.7350000000  OAC       89              0.0000000000
      2409       179  OAC       DO2            -4.9070000000        3.6070000000        7.7360000000  OAC       89              0.0000000000
      2410       179  OAC       H              -5.8730000000        3.8340000000        7.7260000000  OAC       89              0.0000000000
      2411       179  OAC       LPO1           -5.1370000000        5.4810000000        8.7540000000  OAC       89              0.0000000000
      2412       179  OAC       LPO1           -4.6160000000        5.7030000000        8.9540000000  OAC       89              0.0000000000
      2413       179  OAC       LPO2           -4.9380000000        3.6730000000        7.3910000000  OAC       89              0.0000000000
      2414       179  OAC       LPO2           -5.0190000000        3.3560000000        7.9570000000  OAC       89              0.0000000000
      2415       180  OAC       C1              8.5790000000        4.8020000000       -4.8170000000  OAC       90              0.0000000000
      2416       180  OAC       DC1             8.5800000000        4.7940000000       -4.8110000000  OAC       90              0.0000000000
      2417       180  OAC       C2              8.3480000000        4.4260000000       -3.3920000000  OAC       90              0.0000000000
      2418       180  OAC       DC2             8.3500000000        4.4410000000       -3.4160000000  OAC       90              0.0000000000
      2419       180  OAC       H1              8.9880000000        5.0490000000       -2.7330000000  OAC       90              0.0000000000
      2420       180  OAC       H2              8.5950000000        3.3560000000       -3.2280000000  OAC       90              0.0000000000
      2421       180  OAC       H3              7.2830000000        4.5970000000       -3.1290000000  OAC       90              0.0000000000
      2422       180  OAC       O1              8.9820000000        4.0600000000       -5.7020000000  OAC       90              0.0000000000
      2423       180  OAC       DO1             8.9740000000        4.0990000000       -5.7070000000  OAC       90              0.0000000000
      2424       180  OAC       O2              8.2810000000        6.1140000000       -5.0330000000  OAC       90              0.0000000000
      2425       180  OAC       DO2             8.2780000000        6.1090000000       -5.0160000000  OAC       90              0.0000000000
      2426       180  OAC       H               8.4520000000        6.2920000000       -5.9760000000  OAC       90              0.0000000000
      2427       180  OAC       LPO1            8.9690000000        4.2830000000       -5.9020000000  OAC       90              0.0000000000
      2428       180  OAC       LPO1            8.9990000000        3.8300000000       -5.5100000000  OAC       90              0.0000000000
      2429       180  OAC       LPO2            7.9430000000        6.1530000000       -5.1190000000  OAC       90              0.0000000000
      2430       180  OAC       LPO2            8.5600000000        6.3170000000       -4.9760000000  OAC       90              0.0000000000
